 running  256 mpi-ranks, with    1 threads/rank, on    7 nodes
 distrk:  each k-point on  128 cores,    2 groups
 distr:  one band on    4 cores,   32 groups
 vasp.6.4.1 05Apr23 (build May 18 2023 13:19:41) complex                         
 POSCAR found type information on POSCAR C S O 
 POSCAR found :  3 types and     366 ions
 Reading from existing POTCAR
 scaLAPACK will be used
 Reading from existing POTCAR
 -----------------------------------------------------------------------------
|                                                                             |
|               ----> ADVICE to this user running VASP <----                  |
|                                                                             |
|     You have a (more or less) 'large supercell' and for larger cells it     |
|     might be more efficient to use real-space projection operators.         |
|     Therefore, try LREAL= Auto in the INCAR file.                           |
|     Mind: If you want to do very accurate calculations, keep the            |
|     reciprocal projection scheme (i.e. LREAL=.FALSE.).                      |
|                                                                             |
 -----------------------------------------------------------------------------

 LDA part: xc-table for Pade appr. of Perdew
 POSCAR, INCAR and KPOINTS ok, starting setup
 FFT: planning ... GRIDC
 FFT: planning ... GRID_SOFT
 FFT: planning ... GRID
 WAVECAR not read
 WARNING: chargedensity file is incomplete
 WARNING: random wavefunctions but no delay for mixing, default for NELMDL
 entering main loop
       N       E                     dE             d eps       ncg     rms          rms(c)
DAV:   1     0.131971306843E+05    0.13197E+05   -0.45346E+05  4544   0.936E+02
DAV:   2     0.107759867817E+03   -0.13089E+05   -0.12307E+05  5312   0.240E+02
DAV:   3    -0.335617855135E+04   -0.34639E+04   -0.34142E+04  4480   0.131E+02
DAV:   4    -0.354375237061E+04   -0.18757E+03   -0.18460E+03  4320   0.395E+01
DAV:   5    -0.354894871390E+04   -0.51963E+01   -0.51359E+01  4800   0.594E+00    0.747E+01
DAV:   6    -0.342415639507E+04    0.12479E+03   -0.77395E+01  4224   0.856E+00    0.549E+01
DAV:   7    -0.332272628849E+04    0.10143E+03   -0.40619E+02  4480   0.216E+01    0.200E+01
DAV:   8    -0.331583508771E+04    0.68912E+01   -0.43679E+01  3968   0.165E+01    0.105E+01
DAV:   9    -0.331435926942E+04    0.14758E+01   -0.36526E+01  4576   0.117E+01    0.745E+00
DAV:  10    -0.331413740208E+04    0.22187E+00   -0.14731E+01  4160   0.729E+00    0.569E+00
DAV:  11    -0.331421085370E+04   -0.73452E-01   -0.78873E+00  4480   0.306E+00    0.398E+00
DAV:  12    -0.331403134987E+04    0.17950E+00   -0.33015E+00  4256   0.145E+00    0.199E+00
DAV:  13    -0.331391709144E+04    0.11426E+00   -0.39673E-01  4192   0.160E+00    0.127E+00
DAV:  14    -0.331392381881E+04   -0.67274E-02   -0.64392E-01  4128   0.731E-01    0.108E+00
DAV:  15    -0.331391955484E+04    0.42640E-02   -0.90226E-02  4096   0.261E-01    0.485E-01
DAV:  16    -0.331392027626E+04   -0.72142E-03   -0.27012E-02  4320   0.213E-01    0.813E-01
DAV:  17    -0.331391390445E+04    0.63718E-02   -0.35568E-02  4192   0.269E-01    0.144E-01
DAV:  18    -0.331391735177E+04   -0.34473E-02   -0.13883E-02  4096   0.152E-01    0.184E-01
DAV:  19    -0.331391744844E+04   -0.96669E-04   -0.15297E-03  4096   0.426E-02    0.163E-01
DAV:  20    -0.331391720247E+04    0.24597E-03   -0.29251E-04  4032   0.324E-02    0.169E-01
DAV:  21    -0.331391691581E+04    0.28666E-03   -0.50707E-03  4064   0.970E-02    0.830E-02
DAV:  22    -0.331391701882E+04   -0.10301E-03   -0.14616E-03  3936   0.455E-02    0.992E-02
DAV:  23    -0.331391693497E+04    0.83845E-04   -0.11182E-04  4224   0.122E-02    0.924E-02
DAV:  24    -0.331391685575E+04    0.79225E-04   -0.45256E-05  4064   0.101E-02    0.738E-02
DAV:  25    -0.331391678270E+04    0.73049E-04   -0.36438E-04  4064   0.249E-02    0.120E-02
DAV:  26    -0.331391682016E+04   -0.37463E-04   -0.99039E-05  4160   0.110E-02    0.913E-03
DAV:  27    -0.331391682429E+04   -0.41297E-05   -0.56088E-06  3840   0.293E-03    0.831E-03
DAV:  28    -0.331391682187E+04    0.24243E-05   -0.84089E-06  4032   0.522E-03    0.346E-03
DAV:  29    -0.331391682270E+04   -0.83016E-06   -0.85880E-06  3936   0.318E-03
   1 F= -.33280385E+04 E0= -.33280385E+04  d E =-.332804E+04
 BRION: g(F)=  0.857E+01 g(S)=  0.000E+00
 bond charge predicted
       N       E                     dE             d eps       ncg     rms          rms(c)
DAV:   1    -0.330356478717E+04    0.10352E+02   -0.11896E+03  3776   0.310E+01    0.131E+01
DAV:   2    -0.331423738530E+04   -0.10673E+02   -0.11587E+02  4000   0.737E+00    0.888E+00
DAV:   3    -0.331270543204E+04    0.15320E+01   -0.58230E+00  4576   0.268E+00    0.522E+00
DAV:   4    -0.331241629182E+04    0.28914E+00   -0.21907E+00  4128   0.144E+00    0.379E+00
DAV:   5    -0.331240078804E+04    0.15504E-01   -0.15393E+00  4224   0.948E-01    0.236E+00
DAV:   6    -0.331234410201E+04    0.56686E-01   -0.42168E-01  3936   0.791E-01    0.869E-01
DAV:   7    -0.331236051414E+04   -0.16412E-01   -0.96857E-02  4032   0.444E-01    0.625E-01
DAV:   8    -0.331235919167E+04    0.13225E-02   -0.40273E-02  4192   0.210E-01    0.304E-01
DAV:   9    -0.331236006516E+04   -0.87348E-03   -0.84983E-03  4320   0.960E-02    0.138E-01
DAV:  10    -0.331236068725E+04   -0.62209E-03   -0.26904E-03  4160   0.575E-02    0.657E-02
DAV:  11    -0.331236072455E+04   -0.37303E-04   -0.54310E-04  3968   0.277E-02    0.339E-02
DAV:  12    -0.331236075026E+04   -0.25713E-04   -0.24571E-04  4288   0.147E-02    0.489E-02
DAV:  13    -0.331236072036E+04    0.29907E-04   -0.17387E-04  4192   0.970E-03    0.955E-03
DAV:  14    -0.331236072828E+04   -0.79212E-05   -0.11164E-05  4000   0.322E-03    0.628E-03
DAV:  15    -0.331236072911E+04   -0.83470E-06   -0.41576E-06  3968   0.209E-03
   2 F= -.33264951E+04 E0= -.33264951E+04  d E =0.154342E+01
 BRION: g(F)=  0.117E+02 g(S)=  0.000E+00 retain N=  1 mean eig= 0.47
 eig:   0.471
 bond charge predicted
       N       E                     dE             d eps       ncg     rms          rms(c)
DAV:   1    -0.331347399742E+04   -0.11133E+01   -0.30765E+02  3744   0.197E+01    0.379E+00
DAV:   2    -0.331402621770E+04   -0.55222E+00   -0.88472E+00  4256   0.322E+00    0.336E+00
DAV:   3    -0.331390303530E+04    0.12318E+00   -0.49546E-01  4160   0.840E-01    0.259E+00
DAV:   4    -0.331380895817E+04    0.94077E-01   -0.69468E-01  4096   0.965E-01    0.112E+00
DAV:   5    -0.331380125060E+04    0.77076E-02   -0.15427E-01  4288   0.541E-01    0.660E-01
DAV:   6    -0.331379934074E+04    0.19099E-02   -0.52606E-02  4160   0.242E-01    0.357E-01
DAV:   7    -0.331380210789E+04   -0.27672E-02   -0.99743E-03  3808   0.114E-01    0.154E-01
DAV:   8    -0.331380207562E+04    0.32273E-04   -0.19569E-03  4256   0.548E-02    0.972E-02
DAV:   9    -0.331380215388E+04   -0.78264E-04   -0.10476E-03  3808   0.364E-02    0.364E-02
DAV:  10    -0.331380216465E+04   -0.10771E-04   -0.21548E-04  4192   0.170E-02    0.201E-02
DAV:  11    -0.331380216534E+04   -0.68452E-06   -0.55210E-05  4160   0.868E-03    0.872E-03
DAV:  12    -0.331380216459E+04    0.75006E-06   -0.10870E-05  4256   0.474E-03    0.514E-03
DAV:  13    -0.331380216409E+04    0.49430E-06   -0.39177E-06  4160   0.228E-03
   3 F= -.33279309E+04 E0= -.33279309E+04  d E =-.143578E+01
 BRION: g(F)=  0.828E+01 g(S)=  0.000E+00 retain N=  2 mean eig= 0.31
 eig:   0.240  0.380
 bond charge predicted
       N       E                     dE             d eps       ncg     rms          rms(c)
DAV:   1    -0.331506000746E+04   -0.12578E+01   -0.90607E+01  3776   0.107E+01    0.267E+00
DAV:   2    -0.331518094388E+04   -0.12094E+00   -0.27369E+00  4064   0.174E+00    0.215E+00
DAV:   3    -0.331516074978E+04    0.20194E-01   -0.51029E-01  4576   0.589E-01    0.264E+00
DAV:   4    -0.331510996789E+04    0.50782E-01   -0.89713E-01  4384   0.563E-01    0.129E+00
DAV:   5    -0.331510426518E+04    0.57027E-02   -0.10909E-01  4128   0.461E-01    0.599E-01
DAV:   6    -0.331510437599E+04   -0.11081E-03   -0.36303E-02  3904   0.248E-01    0.318E-01
DAV:   7    -0.331510533802E+04   -0.96204E-03   -0.14199E-02  4224   0.120E-01    0.180E-01
DAV:   8    -0.331510604550E+04   -0.70748E-03   -0.63664E-03  4320   0.671E-02    0.138E-01
DAV:   9    -0.331510585118E+04    0.19432E-03   -0.12927E-03  4096   0.381E-02    0.666E-02
DAV:  10    -0.331510599379E+04   -0.14261E-03   -0.45626E-04  4288   0.175E-02    0.288E-02
DAV:  11    -0.331510604166E+04   -0.47875E-04   -0.11369E-04  4096   0.110E-02    0.114E-02
DAV:  12    -0.331510604071E+04    0.95414E-06   -0.28336E-05  4064   0.564E-03    0.812E-03
DAV:  13    -0.331510604074E+04   -0.30501E-07   -0.88429E-06  3936   0.267E-03
   4 F= -.33292365E+04 E0= -.33292365E+04  d E =-.130565E+01
 BRION: g(F)=  0.187E+01 g(S)=  0.000E+00 retain N=  3 mean eig= 2.48
 eig:   7.092  0.168  0.168
 bond charge predicted
       N       E                     dE             d eps       ncg     rms          rms(c)
DAV:   1    -0.331540633507E+04   -0.30029E+00   -0.13333E+01  3968   0.385E+00    0.167E+00
DAV:   2    -0.331550597697E+04   -0.99642E-01   -0.18888E+00  4192   0.845E-01    0.212E+00
DAV:   3    -0.331542044024E+04    0.85537E-01   -0.23687E-01  4352   0.516E-01    0.949E-01
DAV:   4    -0.331542192349E+04   -0.14833E-02   -0.18342E-01  4160   0.278E-01    0.132E+00
DAV:   5    -0.331541220825E+04    0.97152E-02   -0.13388E-01  4128   0.194E-01    0.321E-01
DAV:   6    -0.331541642261E+04   -0.42144E-02   -0.55261E-03  3840   0.834E-02    0.239E-01
DAV:   7    -0.331541644123E+04   -0.18619E-04   -0.39108E-03  4192   0.448E-02    0.780E-02
DAV:   8    -0.331541676330E+04   -0.32206E-03   -0.67219E-04  3904   0.235E-02    0.404E-02
DAV:   9    -0.331541678559E+04   -0.22292E-04   -0.13173E-04  4096   0.990E-03    0.233E-02
DAV:  10    -0.331541682627E+04   -0.40681E-04   -0.46265E-05  4032   0.725E-03    0.154E-02
DAV:  11    -0.331541682521E+04    0.10572E-05   -0.18887E-05  4128   0.392E-03    0.475E-03
DAV:  12    -0.331541682659E+04   -0.13803E-05   -0.29612E-06  3200   0.170E-03    0.436E-03
DAV:  13    -0.331541682674E+04   -0.14296E-06   -0.49504E-06  2688   0.136E-03
   5 F= -.33295482E+04 E0= -.33295482E+04  d E =-.311642E+00
 BRION: g(F)=  0.135E+01 g(S)=  0.000E+00 retain N=  2 mean eig= 0.18
 eig:   0.179  0.179
 bond charge predicted
       N       E                     dE             d eps       ncg     rms          rms(c)
DAV:   1    -0.331566157070E+04   -0.24474E+00   -0.18226E+02  3904   0.106E+01    0.523E+00
DAV:   2    -0.331669297164E+04   -0.10314E+01   -0.19974E+01  3904   0.277E+00    0.552E+00
DAV:   3    -0.331594341694E+04    0.74955E+00   -0.14758E+00  4224   0.177E+00    0.362E+00
DAV:   4    -0.331594747647E+04   -0.40595E-02   -0.24693E+00  4160   0.108E+00    0.367E+00
DAV:   5    -0.331580317442E+04    0.14430E+00   -0.94697E-01  4064   0.589E-01    0.106E+00
DAV:   6    -0.331582033901E+04   -0.17165E-01   -0.63647E-02  4256   0.331E-01    0.603E-01
DAV:   7    -0.331587079874E+04   -0.50460E-01   -0.48380E-01  4480   0.319E-01    0.230E+00
DAV:   8    -0.331581663978E+04    0.54159E-01   -0.12375E-01  4480   0.176E-01    0.986E-01
DAV:   9    -0.331582115936E+04   -0.45196E-02   -0.13248E-01  4320   0.139E-01    0.792E-01
DAV:  10    -0.331582484980E+04   -0.36904E-02   -0.69061E-02  4192   0.891E-02    0.462E-01
DAV:  11    -0.331582384099E+04    0.10088E-02   -0.48437E-03  3968   0.482E-02    0.223E-01
DAV:  12    -0.331582382958E+04    0.11412E-04   -0.22795E-03  4224   0.225E-02    0.596E-02
DAV:  13    -0.331582417267E+04   -0.34309E-03   -0.17142E-04  3872   0.148E-02    0.450E-02
DAV:  14    -0.331582418125E+04   -0.85788E-05   -0.91114E-05  4256   0.586E-03    0.306E-02
DAV:  15    -0.331582417533E+04    0.59190E-05   -0.12268E-05  4128   0.349E-03    0.244E-02
DAV:  16    -0.331582417492E+04    0.40559E-06   -0.11823E-05  3904   0.228E-03    0.332E-02
DAV:  17    -0.331582416715E+04    0.77682E-05   -0.88227E-06  3264   0.186E-03    0.193E-02
DAV:  18    -0.331582416899E+04   -0.18366E-05   -0.20850E-06  3360   0.145E-03    0.145E-02
DAV:  19    -0.331582416910E+04   -0.11211E-06   -0.62842E-06  2720   0.950E-04
   6 F= -.33299563E+04 E0= -.33299563E+04  d E =-.408096E+00
 BRION: g(F)=  0.303E+01 g(S)=  0.000E+00 retain N=  3 mean eig= 0.28
 eig:   0.413  0.210  0.210
 bond charge predicted
       N       E                     dE             d eps       ncg     rms          rms(c)
DAV:   1    -0.331586217894E+04   -0.38010E-01   -0.88865E+01  3648   0.770E+00    0.271E+00
DAV:   2    -0.331644992916E+04   -0.58775E+00   -0.85877E+00  3936   0.173E+00    0.581E+00
DAV:   3    -0.331610790034E+04    0.34203E+00   -0.12668E+00  4256   0.760E-01    0.173E+00
DAV:   4    -0.331611296457E+04   -0.50642E-02   -0.11833E-01  4096   0.332E-01    0.108E+00
DAV:   5    -0.331609932333E+04    0.13641E-01   -0.82569E-02  3904   0.271E-01    0.753E-01
DAV:   6    -0.331609834695E+04    0.97638E-03   -0.70058E-02  4288   0.171E-01    0.417E-01
DAV:   7    -0.331610028012E+04   -0.19332E-02   -0.13490E-02  4000   0.885E-02    0.163E-01
DAV:   8    -0.331610003405E+04    0.24607E-03   -0.23973E-03  4032   0.627E-02    0.113E-01
DAV:   9    -0.331610006122E+04   -0.27168E-04   -0.21790E-03  3904   0.337E-02    0.772E-02
DAV:  10    -0.331610009691E+04   -0.35693E-04   -0.35487E-04  4096   0.197E-02    0.243E-02
DAV:  11    -0.331610010694E+04   -0.10033E-04   -0.10252E-04  4032   0.102E-02    0.120E-02
DAV:  12    -0.331610010696E+04   -0.19092E-07   -0.16292E-05  4128   0.417E-03    0.775E-03
DAV:  13    -0.331610010590E+04    0.10607E-05   -0.62341E-06  4000   0.262E-03    0.439E-03
DAV:  14    -0.331610010581E+04    0.90222E-07   -0.17030E-06  2944   0.121E-03
   7 F= -.33302339E+04 E0= -.33302339E+04  d E =-.277622E+00
 BRION: g(F)=  0.104E+01 g(S)=  0.000E+00 retain N=  1 mean eig= 0.25
 eig:   0.255
 bond charge predicted
       N       E                     dE             d eps       ncg     rms          rms(c)
DAV:   1    -0.331633186795E+04   -0.23176E+00   -0.61550E+01  3776   0.695E+00    0.242E+00
DAV:   2    -0.331672196139E+04   -0.39009E+00   -0.58695E+00  4160   0.135E+00    0.360E+00
DAV:   3    -0.331645679058E+04    0.26517E+00   -0.53290E-01  4224   0.773E-01    0.189E+00
DAV:   4    -0.331644997602E+04    0.68146E-02   -0.36404E-01  4160   0.325E-01    0.137E+00
DAV:   5    -0.331645583281E+04   -0.58568E-02   -0.26482E-01  4160   0.214E-01    0.115E+00
DAV:   6    -0.331645071229E+04    0.51205E-02   -0.82138E-02  4160   0.159E-01    0.322E-01
DAV:   7    -0.331645781701E+04   -0.71047E-02   -0.48714E-02  4064   0.118E-01    0.730E-01
DAV:   8    -0.331645299092E+04    0.48261E-02   -0.52154E-02  4480   0.810E-02    0.363E-01
DAV:   9    -0.331645478359E+04   -0.17927E-02   -0.63321E-03  3872   0.374E-02    0.539E-02
DAV:  10    -0.331645512514E+04   -0.34156E-03   -0.12576E-03  4224   0.181E-02    0.166E-01
DAV:  11    -0.331645485098E+04    0.27417E-03   -0.10842E-03  4032   0.121E-02    0.209E-02
DAV:  12    -0.331645498864E+04   -0.13767E-03   -0.58370E-05  3808   0.634E-03    0.173E-02
DAV:  13    -0.331645499648E+04   -0.78428E-05   -0.14180E-05  3904   0.290E-03    0.356E-03
DAV:  14    -0.331645499678E+04   -0.30024E-06   -0.13467E-06  2784   0.118E-03
   8 F= -.33305900E+04 E0= -.33305900E+04  d E =-.356086E+00
 BRION: g(F)=  0.613E+00 g(S)=  0.000E+00 retain N=  2 mean eig= 0.51
 eig:   0.223  0.802
 bond charge predicted
       N       E                     dE             d eps       ncg     rms          rms(c)
DAV:   1    -0.331653602905E+04   -0.81033E-01   -0.97518E+00  3648   0.339E+00    0.825E-01
DAV:   2    -0.331660045081E+04   -0.64422E-01   -0.89039E-01  4256   0.598E-01    0.219E+00
DAV:   3    -0.331654445103E+04    0.56000E-01   -0.20650E-01  4192   0.268E-01    0.707E-01
DAV:   4    -0.331655057669E+04   -0.61257E-02   -0.14941E-02  4192   0.946E-02    0.401E-01
DAV:   5    -0.331655139883E+04   -0.82213E-03   -0.62705E-03  4096   0.102E-01    0.282E-01
DAV:   6    -0.331655131003E+04    0.88797E-04   -0.49395E-03  4000   0.805E-02    0.781E-02
DAV:   7    -0.331655175639E+04   -0.44636E-03   -0.14896E-03  4032   0.424E-02    0.107E-01
DAV:   8    -0.331655170114E+04    0.55249E-04   -0.10257E-03  4000   0.200E-02    0.407E-02
DAV:   9    -0.331655174578E+04   -0.44636E-04   -0.26637E-04  4064   0.957E-03    0.391E-02
DAV:  10    -0.331655174174E+04    0.40357E-05   -0.72981E-05  3968   0.628E-03    0.108E-02
DAV:  11    -0.331655174835E+04   -0.66062E-05   -0.14627E-05  3776   0.464E-03    0.367E-03
DAV:  12    -0.331655174857E+04   -0.22619E-06   -0.34744E-06  3808   0.214E-03
   9 F= -.33306871E+04 E0= -.33306871E+04  d E =-.970690E-01
 BRION: g(F)=  0.326E+00 g(S)=  0.000E+00 retain N=  2 mean eig= 0.09
 eig:   0.019  0.157
 bond charge predicted
       N       E                     dE             d eps       ncg     rms          rms(c)
DAV:   1    -0.331658278087E+04   -0.31033E-01   -0.66316E+01  3680   0.686E+00    0.161E+00
DAV:   2    -0.331675646371E+04   -0.17368E+00   -0.20323E+00  4096   0.929E-01    0.170E+00
DAV:   3    -0.331675153635E+04    0.49274E-02   -0.55682E-01  4192   0.316E-01    0.181E+00
DAV:   4    -0.331673472555E+04    0.16811E-01   -0.34821E-01  4352   0.243E-01    0.966E-01
DAV:   5    -0.331674418125E+04   -0.94557E-02   -0.10821E-01  3872   0.216E-01    0.629E-01
DAV:   6    -0.331674339063E+04    0.79062E-03   -0.21039E-02  3904   0.102E-01    0.162E-01
DAV:   7    -0.331674469008E+04   -0.12994E-02   -0.21863E-03  3936   0.481E-02    0.950E-02
DAV:   8    -0.331674479614E+04   -0.10606E-03   -0.37563E-04  4096   0.250E-02    0.571E-02
DAV:   9    -0.331674481234E+04   -0.16202E-04   -0.24580E-04  4064   0.179E-02    0.251E-02
DAV:  10    -0.331674481245E+04   -0.11362E-06   -0.95953E-05  4256   0.988E-03    0.155E-02
DAV:  11    -0.331674481493E+04   -0.24731E-05   -0.26431E-05  3936   0.444E-03    0.658E-03
DAV:  12    -0.331674481486E+04    0.67288E-07   -0.32625E-06  3424   0.213E-03
  10 F= -.33308799E+04 E0= -.33308799E+04  d E =-.192829E+00
 BRION: g(F)=  0.221E+00 g(S)=  0.000E+00 retain N=  3 mean eig= 0.76
 eig:   0.411  0.936  0.936
 bond charge predicted
       N       E                     dE             d eps       ncg     rms          rms(c)
DAV:   1    -0.331677766629E+04   -0.32851E-01   -0.10974E+01  3584   0.332E+00    0.741E-01
DAV:   2    -0.331681243408E+04   -0.34768E-01   -0.48070E-01  4096   0.473E-01    0.182E+00
DAV:   3    -0.331678803761E+04    0.24396E-01   -0.25269E-01  4480   0.181E-01    0.671E-01
DAV:   4    -0.331679607217E+04   -0.80346E-02   -0.11010E-02  3904   0.860E-02    0.350E-01
DAV:   5    -0.331679616429E+04   -0.92126E-04   -0.10418E-02  4128   0.936E-02    0.244E-01
DAV:   6    -0.331679655300E+04   -0.38871E-03   -0.45581E-03  3968   0.576E-02    0.637E-02
DAV:   7    -0.331679669831E+04   -0.14531E-03   -0.76763E-04  3968   0.273E-02    0.553E-02
DAV:   8    -0.331679668165E+04    0.16656E-04   -0.31402E-04  4256   0.146E-02    0.293E-02
DAV:   9    -0.331679669271E+04   -0.11051E-04   -0.59461E-05  3904   0.805E-03    0.897E-03
DAV:  10    -0.331679669420E+04   -0.14929E-05   -0.91107E-06  4096   0.330E-03    0.537E-03
DAV:  11    -0.331679669404E+04    0.15786E-06   -0.19086E-06  3232   0.177E-03
  11 F= -.33309310E+04 E0= -.33309310E+04  d E =-.511074E-01
 BRION: g(F)=  0.206E+00 g(S)=  0.000E+00 retain N=  3 mean eig= 2.38
 eig:   6.668  0.241  0.241
 bond charge predicted
       N       E                     dE             d eps       ncg     rms          rms(c)
DAV:   1    -0.331666365576E+04    0.13304E+00   -0.99029E+01  3712   0.802E+00    0.212E+00
DAV:   2    -0.331699262870E+04   -0.32897E+00   -0.38443E+00  4160   0.115E+00    0.257E+00
DAV:   3    -0.331693387661E+04    0.58752E-01   -0.80492E-01  4192   0.443E-01    0.177E+00
DAV:   4    -0.331693139403E+04    0.24826E-02   -0.40233E-01  4160   0.261E-01    0.131E+00
DAV:   5    -0.331693340141E+04   -0.20074E-02   -0.20549E-01  4224   0.220E-01    0.108E+00
DAV:   6    -0.331693266214E+04    0.73927E-03   -0.49750E-02  3936   0.135E-01    0.242E-01
DAV:   7    -0.331693640603E+04   -0.37439E-02   -0.86216E-03  4000   0.980E-02    0.259E-01
DAV:   8    -0.331693607381E+04    0.33222E-03   -0.30097E-03  3936   0.466E-02    0.941E-02
DAV:   9    -0.331693632154E+04   -0.24772E-03   -0.87514E-04  4032   0.267E-02    0.957E-02
DAV:  10    -0.331693624506E+04    0.76481E-04   -0.41390E-04  4224   0.122E-02    0.276E-02
DAV:  11    -0.331693632307E+04   -0.78015E-04   -0.31247E-05  4032   0.671E-03    0.175E-02
DAV:  12    -0.331693633213E+04   -0.90622E-05   -0.11144E-05  4288   0.352E-03    0.770E-03
DAV:  13    -0.331693633541E+04   -0.32812E-05   -0.24382E-06  3456   0.180E-03    0.574E-03
DAV:  14    -0.331693633573E+04   -0.31712E-06   -0.30171E-06  2752   0.104E-03
  12 F= -.33310688E+04 E0= -.33310688E+04  d E =-.137841E+00
 BRION: g(F)=  0.136E+00 g(S)=  0.000E+00 retain N=  4 mean eig= 2.14
 eig:   5.019  2.704  0.376  0.443
 bond charge predicted
       N       E                     dE             d eps       ncg     rms          rms(c)
DAV:   1    -0.331695568887E+04   -0.19353E-01   -0.98071E+00  3648   0.280E+00    0.631E-01
DAV:   2    -0.331697490255E+04   -0.19214E-01   -0.25480E-01  3936   0.373E-01    0.445E-01
DAV:   3    -0.331697867094E+04   -0.37684E-02   -0.65402E-02  4704   0.127E-01    0.816E-01
DAV:   4    -0.331697130585E+04    0.73651E-02   -0.37948E-02  4256   0.808E-02    0.276E-01
DAV:   5    -0.331697551803E+04   -0.42122E-02   -0.52515E-03  3904   0.789E-02    0.198E-01
DAV:   6    -0.331697564459E+04   -0.12656E-03   -0.25071E-03  4096   0.388E-02    0.578E-02
DAV:   7    -0.331697580511E+04   -0.16051E-03   -0.38116E-04  3968   0.214E-02    0.301E-02
DAV:   8    -0.331697581424E+04   -0.91308E-05   -0.13871E-04  4160   0.907E-03    0.405E-02
DAV:   9    -0.331697580581E+04    0.84265E-05   -0.10050E-04  4384   0.623E-03    0.121E-02
DAV:  10    -0.331697581249E+04   -0.66757E-05   -0.95819E-06  4032   0.322E-03    0.714E-03
DAV:  11    -0.331697581220E+04    0.28173E-06   -0.29282E-06  2944   0.162E-03
  13 F= -.33311074E+04 E0= -.33311074E+04  d E =-.385297E-01
 BRION: g(F)=  0.449E-01 g(S)=  0.000E+00 retain N=  2 mean eig= 0.53
 eig:   0.184  0.880
 bond charge predicted
       N       E                     dE             d eps       ncg     rms          rms(c)
DAV:   1    -0.331698272160E+04   -0.69091E-02   -0.32811E+00  3584   0.183E+00    0.424E-01
DAV:   2    -0.331699771662E+04   -0.14995E-01   -0.20141E-01  4032   0.282E-01    0.112E+00
DAV:   3    -0.331698316088E+04    0.14556E-01   -0.64118E-02  4192   0.117E-01    0.280E-01
DAV:   4    -0.331698792257E+04   -0.47617E-02   -0.19524E-03  3968   0.483E-02    0.189E-01
DAV:   5    -0.331698840978E+04   -0.48721E-03   -0.20662E-03  4192   0.531E-02    0.741E-02
DAV:   6    -0.331698860888E+04   -0.19910E-03   -0.93617E-04  3968   0.299E-02    0.683E-02
DAV:   7    -0.331698858840E+04    0.20483E-04   -0.62124E-04  4192   0.158E-02    0.433E-02
DAV:   8    -0.331698859766E+04   -0.92665E-05   -0.95779E-05  4000   0.716E-03    0.144E-02
DAV:   9    -0.331698860010E+04   -0.24341E-05   -0.68361E-06  4096   0.387E-03    0.849E-03
DAV:  10    -0.331698860036E+04   -0.25972E-06   -0.60071E-06  3936   0.318E-03
  14 F= -.33311195E+04 E0= -.33311195E+04  d E =-.120900E-01
 BRION: g(F)=  0.711E-01 g(S)=  0.000E+00 retain N=  3 mean eig= 1.02
 eig:   2.353  0.442  0.269
 bond charge predicted
       N       E                     dE             d eps       ncg     rms          rms(c)
DAV:   1    -0.331700015944E+04   -0.11559E-01   -0.56557E+00  3648   0.203E+00    0.486E-01
DAV:   2    -0.331701309208E+04   -0.12933E-01   -0.17368E-01  3808   0.277E-01    0.669E-01
DAV:   3    -0.331701129575E+04    0.17963E-02   -0.60452E-02  4544   0.996E-02    0.502E-01
DAV:   4    -0.331701054440E+04    0.75134E-03   -0.12324E-02  4032   0.528E-02    0.199E-01
DAV:   5    -0.331701220013E+04   -0.16557E-02   -0.33175E-03  3936   0.565E-02    0.181E-01
DAV:   6    -0.331701222235E+04   -0.22221E-04   -0.26978E-03  4160   0.339E-02    0.570E-02
DAV:   7    -0.331701235083E+04   -0.12848E-03   -0.27980E-04  4000   0.175E-02    0.243E-02
DAV:   8    -0.331701235381E+04   -0.29758E-05   -0.57386E-05  4064   0.718E-03    0.306E-02
DAV:   9    -0.331701234786E+04    0.59531E-05   -0.32841E-05  4320   0.515E-03    0.941E-03
DAV:  10    -0.331701235167E+04   -0.38143E-05   -0.93159E-06  4000   0.278E-03    0.445E-03
DAV:  11    -0.331701235213E+04   -0.46426E-06   -0.16678E-06  2944   0.123E-03
  15 F= -.33311425E+04 E0= -.33311425E+04  d E =-.230258E-01
 BRION: g(F)=  0.354E-01 g(S)=  0.000E+00 retain N=  3 mean eig= 2.41
 eig:   6.979  0.123  0.123
 bond charge predicted
       N       E                     dE             d eps       ncg     rms          rms(c)
DAV:   1    -0.331700835748E+04    0.39942E-02   -0.80928E-01  3616   0.949E-01    0.244E-01
DAV:   2    -0.331701252771E+04   -0.41702E-02   -0.61509E-02  4064   0.149E-01    0.674E-01
DAV:   3    -0.331700756338E+04    0.49643E-02   -0.26239E-02  4224   0.698E-02    0.154E-01
DAV:   4    -0.331700938817E+04   -0.18248E-02   -0.85167E-04  3904   0.295E-02    0.975E-02
DAV:   5    -0.331700940335E+04   -0.15186E-04   -0.47140E-04  4128   0.238E-02    0.562E-02
DAV:   6    -0.331700942404E+04   -0.20692E-04   -0.22901E-04  4160   0.150E-02    0.157E-02
DAV:   7    -0.331700943236E+04   -0.83165E-05   -0.42283E-05  3968   0.644E-03    0.150E-02
DAV:   8    -0.331700943110E+04    0.12591E-05   -0.24563E-05  4160   0.290E-03    0.898E-03
DAV:   9    -0.331700943214E+04   -0.10369E-05   -0.33505E-06  2976   0.180E-03    0.284E-03
DAV:  10    -0.331700943216E+04   -0.25844E-07   -0.97120E-07  3008   0.109E-03
  16 F= -.33311398E+04 E0= -.33311398E+04  d E =0.267677E-02
 BRION: g(F)=  0.358E-01 g(S)=  0.000E+00 retain N=  2 mean eig= 0.19
 eig:   0.210  0.170
 bond charge predicted
       N       E                     dE             d eps       ncg     rms          rms(c)
DAV:   1    -0.331701924978E+04   -0.98176E-02   -0.39017E+00  3616   0.170E+00    0.385E-01
DAV:   2    -0.331702652211E+04   -0.72723E-02   -0.93996E-02  3872   0.216E-01    0.217E-01
DAV:   3    -0.331702677377E+04   -0.25166E-03   -0.18408E-03  4320   0.434E-02    0.164E-01
DAV:   4    -0.331702775332E+04   -0.97955E-03   -0.52280E-03  4256   0.427E-02    0.263E-01
DAV:   5    -0.331702707700E+04    0.67632E-03   -0.71336E-03  4224   0.356E-02    0.115E-01
DAV:   6    -0.331702751541E+04   -0.43841E-03   -0.88000E-04  3744   0.207E-02    0.323E-02
DAV:   7    -0.331702752740E+04   -0.11987E-04   -0.10811E-04  4064   0.105E-02    0.137E-02
DAV:   8    -0.331702752828E+04   -0.87928E-06   -0.18223E-05  4064   0.432E-03    0.147E-02
DAV:   9    -0.331702752643E+04    0.18411E-05   -0.13365E-05  3968   0.331E-03    0.519E-03
DAV:  10    -0.331702752715E+04   -0.71654E-06   -0.24396E-06  3488   0.176E-03
  17 F= -.33311571E+04 E0= -.33311571E+04  d E =-.173230E-01
 BRION: g(F)=  0.277E-01 g(S)=  0.000E+00 retain N=  3 mean eig= 0.65
 eig:   1.527  0.087  0.338
 bond charge predicted
       N       E                     dE             d eps       ncg     rms          rms(c)
DAV:   1    -0.331703304777E+04   -0.55213E-02   -0.50760E-01  3616   0.718E-01    0.154E-01
DAV:   2    -0.331703437088E+04   -0.13231E-02   -0.17687E-02  4128   0.101E-01    0.267E-01
DAV:   3    -0.331703357714E+04    0.79373E-03   -0.74226E-03  4160   0.343E-02    0.150E-01
DAV:   4    -0.331703388289E+04   -0.30574E-03   -0.97441E-04  3744   0.212E-02    0.674E-02
DAV:   5    -0.331703392230E+04   -0.39410E-04   -0.46124E-04  4064   0.241E-02    0.290E-02
DAV:   6    -0.331703392650E+04   -0.42050E-05   -0.17835E-04  4160   0.114E-02    0.293E-02
DAV:   7    -0.331703392411E+04    0.23860E-05   -0.69309E-05  4096   0.650E-03    0.594E-03
DAV:   8    -0.331703392753E+04   -0.34148E-05   -0.47620E-06  3872   0.272E-03    0.433E-03
DAV:   9    -0.331703392748E+04    0.53667E-07   -0.12291E-06  2400   0.140E-03
  18 F= -.33311633E+04 E0= -.33311633E+04  d E =-.620629E-02
 BRION: g(F)=  0.171E-01 g(S)=  0.000E+00 retain N=  2 mean eig= 0.66
 eig:   0.194  1.123
 bond charge predicted
       N       E                     dE             d eps       ncg     rms          rms(c)
DAV:   1    -0.331704138931E+04   -0.74618E-02   -0.29560E+00  3648   0.145E+00    0.343E-01
DAV:   2    -0.331704705388E+04   -0.56646E-02   -0.73608E-02  3968   0.182E-01    0.273E-01
DAV:   3    -0.331704815040E+04   -0.10965E-02   -0.28938E-02  4192   0.606E-02    0.557E-01
DAV:   4    -0.331704574561E+04    0.24048E-02   -0.16381E-02  4224   0.507E-02    0.138E-01
DAV:   5    -0.331704757332E+04   -0.18277E-02   -0.16161E-03  3840   0.410E-02    0.502E-02
DAV:   6    -0.331704759561E+04   -0.22294E-04   -0.46676E-04  4032   0.176E-02    0.383E-02
DAV:   7    -0.331704760170E+04   -0.60864E-05   -0.88436E-05  4160   0.935E-03    0.138E-02
DAV:   8    -0.331704760450E+04   -0.28044E-05   -0.15261E-05  4064   0.399E-03    0.681E-03
DAV:   9    -0.331704760461E+04   -0.10873E-06   -0.26074E-06  3392   0.190E-03
  19 F= -.33311764E+04 E0= -.33311764E+04  d E =-.130719E-01
 BRION: g(F)=  0.211E-01 g(S)=  0.000E+00 retain N=  3 mean eig= 1.00
 eig:   2.582  0.088  0.318
 bond charge predicted
       N       E                     dE             d eps       ncg     rms          rms(c)
DAV:   1    -0.331705359785E+04   -0.59933E-02   -0.10215E+00  3648   0.900E-01    0.214E-01
DAV:   2    -0.331705641421E+04   -0.28164E-02   -0.37023E-02  4000   0.123E-01    0.393E-01
DAV:   3    -0.331705458134E+04    0.18329E-02   -0.14602E-02  4096   0.478E-02    0.174E-01
DAV:   4    -0.331705549094E+04   -0.90959E-03   -0.13956E-03  3808   0.235E-02    0.832E-02
DAV:   5    -0.331705565888E+04   -0.16794E-03   -0.61661E-04  4064   0.263E-02    0.431E-02
DAV:   6    -0.331705566450E+04   -0.56191E-05   -0.31037E-04  4128   0.131E-02    0.312E-02
DAV:   7    -0.331705566522E+04   -0.71840E-06   -0.76546E-05  4000   0.703E-03    0.694E-03
DAV:   8    -0.331705566814E+04   -0.29198E-05   -0.47368E-06  3840   0.265E-03    0.493E-03
DAV:   9    -0.331705566809E+04    0.43772E-07   -0.14024E-06  2912   0.153E-03
  20 F= -.33311842E+04 E0= -.33311842E+04  d E =-.776072E-02
 BRION: g(F)=  0.170E-01 g(S)=  0.000E+00 retain N=  2 mean eig= 1.38
 eig:   0.143  2.621
 bond charge predicted
       N       E                     dE             d eps       ncg     rms          rms(c)
DAV:   1    -0.331705894156E+04   -0.32734E-02   -0.60867E-01  3584   0.770E-01    0.158E-01
DAV:   2    -0.331706024803E+04   -0.13065E-02   -0.17732E-02  4000   0.105E-01    0.214E-01
DAV:   3    -0.331706003573E+04    0.21230E-03   -0.58569E-03  4544   0.325E-02    0.164E-01
DAV:   4    -0.331705991051E+04    0.12522E-03   -0.14350E-03  4096   0.192E-02    0.745E-02
DAV:   5    -0.331706003033E+04   -0.11982E-03   -0.33967E-04  3776   0.216E-02    0.298E-02
DAV:   6    -0.331706004244E+04   -0.12114E-04   -0.11097E-04  4160   0.929E-03    0.168E-02
DAV:   7    -0.331706004395E+04   -0.15053E-05   -0.23556E-05  4096   0.418E-03    0.548E-03
DAV:   8    -0.331706004452E+04   -0.56578E-06   -0.16978E-06  2784   0.156E-03
  21 F= -.33311883E+04 E0= -.33311883E+04  d E =-.411182E-02
 BRION: g(F)=  0.259E-01 g(S)=  0.000E+00 retain N=  3 mean eig= 2.49
 eig:   6.997  0.243  0.243
 bond charge predicted
       N       E                     dE             d eps       ncg     rms          rms(c)
DAV:   1    -0.331706663723E+04   -0.65933E-02   -0.14014E+00  3616   0.105E+00    0.254E-01
DAV:   2    -0.331707009339E+04   -0.34562E-02   -0.46046E-02  4064   0.139E-01    0.394E-01
DAV:   3    -0.331706846958E+04    0.16238E-02   -0.20998E-02  4128   0.553E-02    0.270E-01
DAV:   4    -0.331706906080E+04   -0.59122E-03   -0.34000E-03  3840   0.312E-02    0.949E-02
DAV:   5    -0.331706941551E+04   -0.35471E-03   -0.80172E-04  3968   0.303E-02    0.419E-02
DAV:   6    -0.331706942315E+04   -0.76359E-05   -0.33959E-04  4224   0.134E-02    0.364E-02
DAV:   7    -0.331706942293E+04    0.22387E-06   -0.91113E-05  4032   0.793E-03    0.792E-03
DAV:   8    -0.331706942704E+04   -0.41185E-05   -0.67094E-06  4000   0.309E-03    0.522E-03
DAV:   9    -0.331706942714E+04   -0.91852E-07   -0.16573E-06  2976   0.155E-03
  22 F= -.33311973E+04 E0= -.33311973E+04  d E =-.905822E-02
 BRION: g(F)=  0.163E-01 g(S)=  0.000E+00 retain N=  3 mean eig= 1.31
 eig:   3.466  0.168  0.307
 bond charge predicted
       N       E                     dE             d eps       ncg     rms          rms(c)
DAV:   1    -0.331707213406E+04   -0.27070E-02   -0.19220E-01  3616   0.452E-01    0.864E-02
DAV:   2    -0.331707249273E+04   -0.35866E-03   -0.48612E-03  4096   0.621E-02    0.737E-02
DAV:   3    -0.331707251018E+04   -0.17456E-04   -0.11366E-03  4384   0.163E-02    0.110E-01
DAV:   4    -0.331707240995E+04    0.10024E-03   -0.78706E-04  4224   0.123E-02    0.468E-02
DAV:   5    -0.331707245419E+04   -0.44245E-04   -0.18670E-04  3776   0.147E-02    0.160E-02
DAV:   6    -0.331707245643E+04   -0.22423E-05   -0.37787E-05  4000   0.636E-03    0.885E-03
DAV:   7    -0.331707245736E+04   -0.92562E-06   -0.85830E-06  4096   0.266E-03
  23 F= -.33312003E+04 E0= -.33312003E+04  d E =-.291407E-02
 BRION: g(F)=  0.123E-01 g(S)=  0.000E+00 retain N=  2 mean eig= 0.19
 eig:   0.159  0.227
 bond charge predicted
       N       E                     dE             d eps       ncg     rms          rms(c)
DAV:   1    -0.331707829626E+04   -0.58398E-02   -0.18425E+00  3648   0.111E+00    0.270E-01
DAV:   2    -0.331708197460E+04   -0.36783E-02   -0.48156E-02  3968   0.138E-01    0.298E-01
DAV:   3    -0.331708158365E+04    0.39095E-03   -0.19617E-02  4256   0.521E-02    0.348E-01
DAV:   4    -0.331708136481E+04    0.21885E-03   -0.65478E-03  4224   0.349E-02    0.103E-01
DAV:   5    -0.331708205224E+04   -0.68744E-03   -0.87420E-04  3808   0.295E-02    0.367E-02
DAV:   6    -0.331708205468E+04   -0.24412E-05   -0.26108E-04  4032   0.123E-02    0.270E-02
DAV:   7    -0.331708205597E+04   -0.12842E-05   -0.46006E-05  4096   0.672E-03    0.921E-03
DAV:   8    -0.331708205771E+04   -0.17387E-05   -0.89743E-06  4064   0.300E-03    0.464E-03
DAV:   9    -0.331708205763E+04    0.79977E-07   -0.10626E-06  2688   0.131E-03
  24 F= -.33312095E+04 E0= -.33312095E+04  d E =-.920797E-02
 BRION: g(F)=  0.124E-01 g(S)=  0.000E+00 retain N=  3 mean eig= 0.75
 eig:   1.813  0.095  0.356
 bond charge predicted
       N       E                     dE             d eps       ncg     rms          rms(c)
DAV:   1    -0.331708564261E+04   -0.35849E-02   -0.41132E-01  3648   0.560E-01    0.125E-01
DAV:   2    -0.331708636848E+04   -0.72587E-03   -0.96448E-03  3968   0.711E-02    0.738E-02
DAV:   3    -0.331708641928E+04   -0.50804E-04   -0.70217E-04  4192   0.152E-02    0.966E-02
DAV:   4    -0.331708639626E+04    0.23027E-04   -0.83318E-04  4384   0.115E-02    0.624E-02
DAV:   5    -0.331708645163E+04   -0.55370E-04   -0.23897E-04  3872   0.140E-02    0.150E-02
DAV:   6    -0.331708646656E+04   -0.14929E-04   -0.36947E-05  3936   0.614E-03    0.122E-02
DAV:   7    -0.331708646568E+04    0.87405E-06   -0.11276E-05  4128   0.303E-03    0.422E-03
DAV:   8    -0.331708646660E+04   -0.91607E-06   -0.11505E-06  2592   0.132E-03
  25 F= -.33312137E+04 E0= -.33312137E+04  d E =-.421477E-02
 BRION: g(F)=  0.112E-01 g(S)=  0.000E+00 retain N=  2 mean eig= 1.35
 eig:   0.214  2.485
 bond charge predicted
       N       E                     dE             d eps       ncg     rms          rms(c)
DAV:   1    -0.331709144969E+04   -0.49840E-02   -0.14764E+00  3648   0.997E-01    0.242E-01
DAV:   2    -0.331709434645E+04   -0.28968E-02   -0.38354E-02  3968   0.124E-01    0.256E-01
DAV:   3    -0.331709412403E+04    0.22242E-03   -0.15487E-02  4288   0.470E-02    0.310E-01
DAV:   4    -0.331709387910E+04    0.24493E-03   -0.51099E-03  4224   0.313E-02    0.910E-02
DAV:   5    -0.331709443372E+04   -0.55462E-03   -0.66386E-04  3776   0.266E-02    0.272E-02
DAV:   6    -0.331709444235E+04   -0.86249E-05   -0.17216E-04  4064   0.108E-02    0.257E-02
DAV:   7    -0.331709443991E+04    0.24419E-05   -0.43707E-05  4096   0.642E-03    0.788E-03
DAV:   8    -0.331709444191E+04   -0.20026E-05   -0.63518E-06  3936   0.265E-03    0.430E-03
DAV:   9    -0.331709444191E+04   -0.30268E-08   -0.11678E-06  3008   0.127E-03
  26 F= -.33312213E+04 E0= -.33312213E+04  d E =-.765497E-02
 BRION: g(F)=  0.125E-01 g(S)=  0.000E+00 retain N=  2 mean eig= 0.08
 eig:   0.117  0.037
 bond charge predicted
       N       E                     dE             d eps       ncg     rms          rms(c)
DAV:   1    -0.331709733679E+04   -0.28949E-02   -0.25357E-01  3648   0.457E-01    0.969E-02
DAV:   2    -0.331709778948E+04   -0.45269E-03   -0.60406E-03  3936   0.591E-02    0.702E-02
DAV:   3    -0.331709785095E+04   -0.61475E-04   -0.14291E-03  4288   0.165E-02    0.123E-01
DAV:   4    -0.331709774630E+04    0.10465E-03   -0.99451E-04  4256   0.130E-02    0.444E-02
DAV:   5    -0.331709782348E+04   -0.77184E-04   -0.14958E-04  3808   0.131E-02    0.131E-02
DAV:   6    -0.331709782600E+04   -0.25199E-05   -0.28315E-05  3968   0.551E-03    0.934E-03
DAV:   7    -0.331709782669E+04   -0.68673E-06   -0.91188E-06  4096   0.262E-03
  27 F= -.33312246E+04 E0= -.33312246E+04  d E =-.325416E-02
 BRION: g(F)=  0.961E-02 g(S)=  0.000E+00 retain N=  2 mean eig= 1.43
 eig:   0.181  2.675
 bond charge predicted
       N       E                     dE             d eps       ncg     rms          rms(c)
DAV:   1    -0.331710269966E+04   -0.48737E-02   -0.17137E+00  3648   0.105E+00    0.255E-01
DAV:   2    -0.331710578639E+04   -0.30867E-02   -0.40654E-02  3968   0.127E-01    0.203E-01
DAV:   3    -0.331710620068E+04   -0.41429E-03   -0.14771E-02  4320   0.457E-02    0.360E-01
DAV:   4    -0.331710538419E+04    0.81649E-03   -0.72933E-03  4256   0.349E-02    0.974E-02
DAV:   5    -0.331710615951E+04   -0.77532E-03   -0.67548E-04  3776   0.262E-02    0.227E-02
DAV:   6    -0.331710617546E+04   -0.15956E-04   -0.13876E-04  4064   0.103E-02    0.245E-02
DAV:   7    -0.331710617092E+04    0.45463E-05   -0.32991E-05  4096   0.578E-03    0.866E-03
DAV:   8    -0.331710617242E+04   -0.14975E-05   -0.81303E-06  4000   0.276E-03    0.386E-03
DAV:   9    -0.331710617246E+04   -0.46450E-07   -0.10420E-06  2784   0.122E-03
  28 F= -.33312326E+04 E0= -.33312326E+04  d E =-.799719E-02
 BRION: g(F)=  0.988E-02 g(S)=  0.000E+00 retain N=  2 mean eig= 0.24
 eig:   0.166  0.314
 bond charge predicted
       N       E                     dE             d eps       ncg     rms          rms(c)
DAV:   1    -0.331710887930E+04   -0.27069E-02   -0.28830E-01  3648   0.468E-01    0.105E-01
DAV:   2    -0.331710941223E+04   -0.53293E-03   -0.72292E-03  3904   0.600E-02    0.969E-02
DAV:   3    -0.331710942590E+04   -0.13676E-04   -0.24274E-03  4288   0.200E-02    0.132E-01
DAV:   4    -0.331710934165E+04    0.84249E-04   -0.97964E-04  4224   0.140E-02    0.429E-02
DAV:   5    -0.331710944365E+04   -0.10200E-03   -0.16091E-04  3776   0.139E-02    0.128E-02
DAV:   6    -0.331710944546E+04   -0.18057E-05   -0.30680E-05  4032   0.569E-03    0.113E-02
DAV:   7    -0.331710944599E+04   -0.53493E-06   -0.12833E-05  4096   0.324E-03    0.368E-03
DAV:   8    -0.331710944652E+04   -0.53144E-06   -0.11669E-06  2592   0.140E-03
  29 F= -.33312357E+04 E0= -.33312357E+04  d E =-.316005E-02
 BRION: g(F)=  0.901E-02 g(S)=  0.000E+00 retain N=  2 mean eig= 2.70
 eig:   0.164  5.227
 bond charge predicted
       N       E                     dE             d eps       ncg     rms          rms(c)
DAV:   1    -0.331711384825E+04   -0.44023E-02   -0.20981E+00  3648   0.116E+00    0.278E-01
DAV:   2    -0.331711763629E+04   -0.37880E-02   -0.49058E-02  3904   0.140E-01    0.207E-01
DAV:   3    -0.331711817566E+04   -0.53938E-03   -0.15542E-02  4320   0.486E-02    0.373E-01
DAV:   4    -0.331711725155E+04    0.92411E-03   -0.83742E-03  4256   0.373E-02    0.108E-01
DAV:   5    -0.331711808655E+04   -0.83500E-03   -0.82176E-04  3744   0.287E-02    0.248E-02
DAV:   6    -0.331711810332E+04   -0.16769E-04   -0.15574E-04  3968   0.112E-02    0.248E-02
DAV:   7    -0.331711809968E+04    0.36359E-05   -0.38321E-05  4096   0.621E-03    0.894E-03
DAV:   8    -0.331711810147E+04   -0.17812E-05   -0.78705E-06  4000   0.280E-03    0.438E-03
DAV:   9    -0.331711810145E+04    0.12573E-07   -0.14436E-06  3104   0.137E-03
  30 F= -.33312440E+04 E0= -.33312440E+04  d E =-.829582E-02
 BRION: g(F)=  0.106E-01 g(S)=  0.000E+00 retain N=  2 mean eig= 0.28
 eig:   0.168  0.401
 bond charge predicted
       N       E                     dE             d eps       ncg     rms          rms(c)
DAV:   1    -0.331711867401E+04   -0.57255E-03   -0.31316E-02  3648   0.213E-01    0.351E-02
DAV:   2    -0.331711873362E+04   -0.59611E-04   -0.85386E-04  4160   0.308E-02    0.365E-02
DAV:   3    -0.331711872683E+04    0.67953E-05   -0.95840E-05  4640   0.659E-03    0.339E-02
DAV:   4    -0.331711871579E+04    0.11036E-04   -0.49528E-05  4192   0.457E-03    0.242E-02
DAV:   5    -0.331711870720E+04    0.85905E-05   -0.33487E-05  3872   0.610E-03    0.994E-03
DAV:   6    -0.331711870723E+04   -0.25961E-07   -0.83091E-06  3744   0.301E-03
  31 F= -.33312446E+04 E0= -.33312446E+04  d E =-.596538E-03
 BRION: g(F)=  0.816E-02 g(S)=  0.000E+00 retain N=  2 mean eig= 1.33
 eig:   0.193  2.469
 bond charge predicted
       N       E                     dE             d eps       ncg     rms          rms(c)
DAV:   1    -0.331712290588E+04   -0.41987E-02   -0.15226E+00  3648   0.977E-01    0.235E-01
DAV:   2    -0.331712555669E+04   -0.26508E-02   -0.34653E-02  3872   0.117E-01    0.159E-01
DAV:   3    -0.331712600401E+04   -0.44732E-03   -0.94458E-03  4320   0.386E-02    0.299E-01
DAV:   4    -0.331712538252E+04    0.62149E-03   -0.55767E-03  4256   0.305E-02    0.907E-02
DAV:   5    -0.331712596520E+04   -0.58268E-03   -0.54349E-04  3744   0.231E-02    0.199E-02
DAV:   6    -0.331712597699E+04   -0.11788E-04   -0.91341E-05  3968   0.894E-03    0.206E-02
DAV:   7    -0.331712597311E+04    0.38755E-05   -0.24763E-05  4032   0.500E-03    0.759E-03
DAV:   8    -0.331712597448E+04   -0.13730E-05   -0.59152E-06  3904   0.238E-03    0.360E-03
DAV:   9    -0.331712597451E+04   -0.25262E-07   -0.10706E-06  2944   0.117E-03
  32 F= -.33312516E+04 E0= -.33312516E+04  d E =-.698419E-02
 BRION: g(F)=  0.814E-02 g(S)=  0.000E+00 retain N=  2 mean eig= 0.23
 eig:   0.189  0.265
 bond charge predicted
       N       E                     dE             d eps       ncg     rms          rms(c)
DAV:   1    -0.331712838422E+04   -0.24097E-02   -0.25508E-01  3648   0.420E-01    0.975E-02
DAV:   2    -0.331712882398E+04   -0.43977E-03   -0.61246E-03  3968   0.521E-02    0.783E-02
DAV:   3    -0.331712886814E+04   -0.44158E-04   -0.19356E-03  4320   0.180E-02    0.122E-01
DAV:   4    -0.331712878121E+04    0.86937E-04   -0.86060E-04  4256   0.130E-02    0.381E-02
DAV:   5    -0.331712889137E+04   -0.11017E-03   -0.11336E-04  3808   0.113E-02    0.108E-02
DAV:   6    -0.331712889415E+04   -0.27751E-05   -0.19228E-05  4064   0.445E-03    0.991E-03
DAV:   7    -0.331712889406E+04    0.89873E-07   -0.81141E-06  3808   0.269E-03
  33 F= -.33312544E+04 E0= -.33312544E+04  d E =-.280983E-02
 BRION: g(F)=  0.749E-02 g(S)=  0.000E+00 retain N=  2 mean eig= 2.32
 eig:   0.146  4.501
 bond charge predicted
       N       E                     dE             d eps       ncg     rms          rms(c)
DAV:   1    -0.331713280034E+04   -0.39062E-02   -0.21411E+00  3680   0.115E+00    0.279E-01
DAV:   2    -0.331713656783E+04   -0.37675E-02   -0.48771E-02  3904   0.137E-01    0.188E-01
DAV:   3    -0.331713719351E+04   -0.62568E-03   -0.12862E-02  4320   0.459E-02    0.340E-01
DAV:   4    -0.331713635603E+04    0.83748E-03   -0.73690E-03  4256   0.358E-02    0.106E-01
DAV:   5    -0.331713713158E+04   -0.77555E-03   -0.72940E-04  3776   0.264E-02    0.236E-02
DAV:   6    -0.331713714818E+04   -0.16602E-04   -0.12147E-04  3968   0.103E-02    0.244E-02
DAV:   7    -0.331713714221E+04    0.59641E-05   -0.33189E-05  4032   0.584E-03    0.910E-03
DAV:   8    -0.331713714393E+04   -0.17128E-05   -0.89524E-06  4000   0.283E-03    0.410E-03
DAV:   9    -0.331713714403E+04   -0.10733E-06   -0.14697E-06  3072   0.134E-03
  34 F= -.33312624E+04 E0= -.33312624E+04  d E =-.793750E-02
 BRION: g(F)=  0.804E-02 g(S)=  0.000E+00 retain N=  2 mean eig= 0.37
 eig:   0.161  0.580
 bond charge predicted
       N       E                     dE             d eps       ncg     rms          rms(c)
DAV:   1    -0.331713723671E+04   -0.92788E-04   -0.16243E-02  3712   0.155E-01    0.250E-02
DAV:   2    -0.331713726832E+04   -0.31602E-04   -0.44933E-04  4224   0.228E-02    0.279E-02
DAV:   3    -0.331713726439E+04    0.39252E-05   -0.35704E-05  4768   0.454E-03    0.234E-02
DAV:   4    -0.331713725833E+04    0.60657E-05   -0.15550E-05  3872   0.315E-03    0.190E-02
DAV:   5    -0.331713725205E+04    0.62763E-05   -0.19493E-05  4032   0.422E-03    0.914E-03
DAV:   6    -0.331713725151E+04    0.54401E-06   -0.58503E-06  3456   0.264E-03
  35 F= -.33312625E+04 E0= -.33312625E+04  d E =-.107658E-03
 BRION: g(F)=  0.738E-02 g(S)=  0.000E+00 retain N=  2 mean eig= 1.31
 eig:   0.173  2.440
 bond charge predicted
       N       E                     dE             d eps       ncg     rms          rms(c)
DAV:   1    -0.331714103778E+04   -0.37857E-02   -0.17205E+00  3680   0.103E+00    0.249E-01
DAV:   2    -0.331714401564E+04   -0.29779E-02   -0.39015E-02  3904   0.122E-01    0.168E-01
DAV:   3    -0.331714448297E+04   -0.46733E-03   -0.98454E-03  4320   0.410E-02    0.292E-01
DAV:   4    -0.331714389169E+04    0.59128E-03   -0.55026E-03  4256   0.316E-02    0.944E-02
DAV:   5    -0.331714448655E+04   -0.59487E-03   -0.58679E-04  3744   0.237E-02    0.222E-02
DAV:   6    -0.331714450004E+04   -0.13485E-04   -0.95498E-05  4000   0.909E-03    0.221E-02
DAV:   7    -0.331714449525E+04    0.47835E-05   -0.27731E-05  4064   0.526E-03    0.816E-03
DAV:   8    -0.331714449655E+04   -0.12917E-05   -0.66964E-06  3904   0.246E-03    0.384E-03
DAV:   9    -0.331714449660E+04   -0.51688E-07   -0.12767E-06  3072   0.124E-03
  36 F= -.33312695E+04 E0= -.33312695E+04  d E =-.698241E-02
 BRION: g(F)=  0.745E-02 g(S)=  0.000E+00 retain N=  2 mean eig= 0.22
 eig:   0.190  0.257
 bond charge predicted
       N       E                     dE             d eps       ncg     rms          rms(c)
DAV:   1    -0.331714591837E+04   -0.14218E-02   -0.87667E-02  3648   0.262E-01    0.559E-02
DAV:   2    -0.331714606743E+04   -0.14906E-03   -0.20171E-03  3904   0.333E-02    0.346E-02
DAV:   3    -0.331714607579E+04   -0.83528E-05   -0.92294E-05  4320   0.687E-03    0.336E-02
DAV:   4    -0.331714607856E+04   -0.27698E-05   -0.16733E-04  4352   0.564E-03    0.344E-02
DAV:   5    -0.331714608414E+04   -0.55806E-05   -0.70743E-05  4096   0.666E-03    0.753E-03
DAV:   6    -0.331714608956E+04   -0.54281E-05   -0.75720E-06  3936   0.299E-03    0.380E-03
DAV:   7    -0.331714608980E+04   -0.23772E-06   -0.87255E-07  2592   0.105E-03
  37 F= -.33312710E+04 E0= -.33312710E+04  d E =-.154217E-02
 BRION: g(F)=  0.663E-02 g(S)=  0.000E+00 retain N=  2 mean eig= 1.78
 eig:   0.184  3.371
 bond charge predicted
       N       E                     dE             d eps       ncg     rms          rms(c)
DAV:   1    -0.331714964777E+04   -0.35582E-02   -0.18481E+00  3680   0.106E+00    0.256E-01
DAV:   2    -0.331715279359E+04   -0.31458E-02   -0.41130E-02  3872   0.125E-01    0.157E-01
DAV:   3    -0.331715324634E+04   -0.45276E-03   -0.73932E-03  4320   0.374E-02    0.261E-01
DAV:   4    -0.331715282858E+04    0.41776E-03   -0.48384E-03  4256   0.297E-02    0.984E-02
DAV:   5    -0.331715338418E+04   -0.55561E-03   -0.58930E-04  3744   0.234E-02    0.230E-02
DAV:   6    -0.331715338835E+04   -0.41681E-05   -0.92325E-05  3904   0.899E-03    0.211E-02
DAV:   7    -0.331715338345E+04    0.49006E-05   -0.26907E-05  4032   0.516E-03    0.826E-03
DAV:   8    -0.331715338461E+04   -0.11594E-05   -0.61957E-06  3904   0.245E-03    0.377E-03
DAV:   9    -0.331715338464E+04   -0.32131E-07   -0.14289E-06  3104   0.126E-03
  38 F= -.33312780E+04 E0= -.33312780E+04  d E =-.703917E-02
 BRION: g(F)=  0.696E-02 g(S)=  0.000E+00 retain N=  2 mean eig= 0.62
 eig:   0.182  1.065
 bond charge predicted
       N       E                     dE             d eps       ncg     rms          rms(c)
DAV:   1    -0.331715389964E+04   -0.51503E-03   -0.17803E-02  3648   0.145E-01    0.259E-02
DAV:   2    -0.331715393343E+04   -0.33782E-04   -0.46645E-04  4128   0.199E-02    0.244E-02
DAV:   3    -0.331715393225E+04    0.11803E-05   -0.81210E-05  4352   0.503E-03    0.253E-02
DAV:   4    -0.331715392675E+04    0.54988E-05   -0.35722E-05  3808   0.338E-03    0.142E-02
DAV:   5    -0.331715392753E+04   -0.78033E-06   -0.14221E-05  3840   0.437E-03    0.504E-03
DAV:   6    -0.331715392776E+04   -0.23108E-06   -0.24903E-06  2912   0.175E-03
  39 F= -.33312786E+04 E0= -.33312786E+04  d E =-.532586E-03
 BRION: g(F)=  0.652E-02 g(S)=  0.000E+00 retain N=  2 mean eig= 1.12
 eig:   0.133  2.099
 bond charge predicted
       N       E                     dE             d eps       ncg     rms          rms(c)
DAV:   1    -0.331715727932E+04   -0.33518E-02   -0.11960E+00  3680   0.847E-01    0.204E-01
DAV:   2    -0.331715927068E+04   -0.19914E-02   -0.26259E-02  3872   0.100E-01    0.120E-01
DAV:   3    -0.331715952166E+04   -0.25098E-03   -0.32167E-03  4288   0.265E-02    0.176E-01
DAV:   4    -0.331715937870E+04    0.14296E-03   -0.24329E-03  4256   0.214E-02    0.811E-02
DAV:   5    -0.331715968336E+04   -0.30466E-03   -0.37428E-04  3776   0.184E-02    0.192E-02
DAV:   6    -0.331715968340E+04   -0.38184E-07   -0.56396E-05  3904   0.727E-03    0.156E-02
DAV:   7    -0.331715968184E+04    0.15595E-05   -0.14792E-05  3808   0.380E-03    0.675E-03
DAV:   8    -0.331715968268E+04   -0.83738E-06   -0.31536E-06  3680   0.189E-03
  40 F= -.33312841E+04 E0= -.33312841E+04  d E =-.556749E-02
 BRION: g(F)=  0.641E-02 g(S)=  0.000E+00 retain N=  2 mean eig= 0.25
 eig:   0.177  0.330
 bond charge predicted
       N       E                     dE             d eps       ncg     rms          rms(c)
DAV:   1    -0.331716181689E+04   -0.21351E-02   -0.27428E-01  3648   0.420E-01    0.986E-02
DAV:   2    -0.331716228785E+04   -0.47095E-03   -0.62159E-03  3936   0.510E-02    0.614E-02
DAV:   3    -0.331716234769E+04   -0.59843E-04   -0.96437E-04  4320   0.145E-02    0.927E-02
DAV:   4    -0.331716229629E+04    0.51403E-04   -0.62824E-04  4256   0.113E-02    0.391E-02
DAV:   5    -0.331716237337E+04   -0.77080E-04   -0.98456E-05  3840   0.101E-02    0.111E-02
DAV:   6    -0.331716237351E+04   -0.14878E-06   -0.15664E-05  3904   0.402E-03    0.837E-03
DAV:   7    -0.331716237344E+04    0.74855E-07   -0.54836E-06  3680   0.229E-03
  41 F= -.33312867E+04 E0= -.33312867E+04  d E =-.260701E-02
 BRION: g(F)=  0.633E-02 g(S)=  0.000E+00 retain N=  2 mean eig= 1.33
 eig:   0.179  2.475
 bond charge predicted
       N       E                     dE             d eps       ncg     rms          rms(c)
DAV:   1    -0.331716551347E+04   -0.31400E-02   -0.10764E+00  3680   0.801E-01    0.194E-01
DAV:   2    -0.331716733291E+04   -0.18194E-02   -0.23700E-02  3872   0.949E-02    0.115E-01
DAV:   3    -0.331716754629E+04   -0.21338E-03   -0.29873E-03  4288   0.258E-02    0.166E-01
DAV:   4    -0.331716740836E+04    0.13793E-03   -0.21633E-03  4256   0.206E-02    0.763E-02
DAV:   5    -0.331716768780E+04   -0.27945E-03   -0.33347E-04  3776   0.174E-02    0.186E-02
DAV:   6    -0.331716768707E+04    0.73621E-06   -0.50571E-05  3904   0.686E-03    0.150E-02
DAV:   7    -0.331716768535E+04    0.17205E-05   -0.14282E-05  3776   0.380E-03    0.641E-03
DAV:   8    -0.331716768617E+04   -0.81991E-06   -0.29345E-06  3520   0.181E-03
  42 F= -.33312919E+04 E0= -.33312919E+04  d E =-.515311E-02
 BRION: g(F)=  0.629E-02 g(S)=  0.000E+00 retain N=  2 mean eig= 0.64
 eig:   0.139  1.140
 bond charge predicted
       N       E                     dE             d eps       ncg     rms          rms(c)
DAV:   1    -0.331716893073E+04   -0.12454E-02   -0.82241E-02  3648   0.248E-01    0.539E-02
DAV:   2    -0.331716907505E+04   -0.14432E-03   -0.18937E-03  3904   0.314E-02    0.329E-02
DAV:   3    -0.331716907882E+04   -0.37760E-05   -0.52133E-05  4288   0.609E-03    0.270E-02
DAV:   4    -0.331716909487E+04   -0.16044E-04   -0.16590E-04  4736   0.602E-03    0.392E-02
DAV:   5    -0.331716908554E+04    0.93293E-05   -0.10532E-04  4160   0.638E-03    0.720E-03
DAV:   6    -0.331716909484E+04   -0.93059E-05   -0.78262E-06  3936   0.287E-03    0.383E-03
DAV:   7    -0.331716909519E+04   -0.34331E-06   -0.66071E-07  2688   0.900E-04
  43 F= -.33312933E+04 E0= -.33312933E+04  d E =-.136843E-02
 BRION: g(F)=  0.604E-02 g(S)=  0.000E+00 retain N=  2 mean eig= 1.07
 eig:   0.183  1.947
 bond charge predicted
       N       E                     dE             d eps       ncg     rms          rms(c)
DAV:   1    -0.331717226417E+04   -0.31693E-02   -0.13895E+00  3712   0.904E-01    0.218E-01
DAV:   2    -0.331717461737E+04   -0.23532E-02   -0.30350E-02  3872   0.106E-01    0.128E-01
DAV:   3    -0.331717486981E+04   -0.25244E-03   -0.32964E-03  4288   0.280E-02    0.174E-01
DAV:   4    -0.331717474192E+04    0.12789E-03   -0.25029E-03  4256   0.225E-02    0.868E-02
DAV:   5    -0.331717506030E+04   -0.31837E-03   -0.43053E-04  3744   0.192E-02    0.210E-02
DAV:   6    -0.331717505968E+04    0.62142E-06   -0.64472E-05  3904   0.760E-03    0.168E-02
DAV:   7    -0.331717505761E+04    0.20699E-05   -0.17110E-05  3872   0.413E-03    0.740E-03
DAV:   8    -0.331717505865E+04   -0.10424E-05   -0.40296E-06  3840   0.206E-03    0.320E-03
DAV:   9    -0.331717505862E+04    0.25611E-07   -0.10300E-06  2880   0.110E-03
  44 F= -.33312991E+04 E0= -.33312991E+04  d E =-.579469E-02
 BRION: g(F)=  0.612E-02 g(S)=  0.000E+00 retain N=  2 mean eig= 0.35
 eig:   0.182  0.522
 bond charge predicted
       N       E                     dE             d eps       ncg     rms          rms(c)
DAV:   1    -0.331717533032E+04   -0.27167E-03   -0.53367E-03  3712   0.819E-02    0.138E-02
DAV:   2    -0.331717534030E+04   -0.99853E-05   -0.13459E-04  4192   0.114E-02    0.119E-02
DAV:   3    -0.331717533927E+04    0.10349E-05   -0.57919E-06  3616   0.234E-03    0.972E-03
DAV:   4    -0.331717533976E+04   -0.48964E-06   -0.19697E-05  2976   0.244E-03    0.139E-02
DAV:   5    -0.331717533743E+04    0.23297E-05   -0.15622E-05  3168   0.256E-03    0.305E-03
DAV:   6    -0.331717533823E+04   -0.80129E-06   -0.10349E-06  2656   0.117E-03
  45 F= -.33312993E+04 E0= -.33312993E+04  d E =-.274573E-03
 BRION: g(F)=  0.564E-02 g(S)=  0.000E+00 retain N=  2 mean eig= 1.06
 eig:   0.139  1.983
 bond charge predicted
       N       E                     dE             d eps       ncg     rms          rms(c)
DAV:   1    -0.331717845866E+04   -0.31212E-02   -0.12541E+00  3712   0.850E-01    0.205E-01
DAV:   2    -0.331718054964E+04   -0.20910E-02   -0.27059E-02  3840   0.995E-02    0.118E-01
DAV:   3    -0.331718072662E+04   -0.17698E-03   -0.21200E-03  4288   0.239E-02    0.143E-01
DAV:   4    -0.331718068208E+04    0.44542E-04   -0.18866E-03  4288   0.197E-02    0.851E-02
DAV:   5    -0.331718093255E+04   -0.25047E-03   -0.40384E-04  3840   0.176E-02    0.194E-02
DAV:   6    -0.331718093459E+04   -0.20463E-05   -0.56631E-05  3840   0.714E-03    0.148E-02
DAV:   7    -0.331718093366E+04    0.93004E-06   -0.11454E-05  3808   0.340E-03    0.745E-03
DAV:   8    -0.331718093431E+04   -0.64925E-06   -0.37458E-06  3840   0.196E-03
  46 F= -.33313048E+04 E0= -.33313048E+04  d E =-.544670E-02
 BRION: g(F)=  0.564E-02 g(S)=  0.000E+00 retain N=  2 mean eig= 0.82
 eig:   0.185  1.447
 bond charge predicted
       N       E                     dE             d eps       ncg     rms          rms(c)
DAV:   1    -0.331718338928E+04   -0.24556E-02   -0.48785E-01  3712   0.533E-01    0.128E-01
DAV:   2    -0.331718420375E+04   -0.81446E-03   -0.10580E-02  3872   0.629E-02    0.734E-02
DAV:   3    -0.331718426758E+04   -0.63837E-04   -0.71222E-04  4288   0.145E-02    0.838E-02
DAV:   4    -0.331718426211E+04    0.54702E-05   -0.67999E-04  4320   0.121E-02    0.543E-02
DAV:   5    -0.331718435319E+04   -0.91077E-04   -0.16648E-04  3872   0.113E-02    0.130E-02
DAV:   6    -0.331718435477E+04   -0.15803E-05   -0.23440E-05  3968   0.474E-03    0.917E-03
DAV:   7    -0.331718435490E+04   -0.12934E-06   -0.45479E-06  3584   0.215E-03
  47 F= -.33313081E+04 E0= -.33313081E+04  d E =-.333754E-02
 BRION: g(F)=  0.578E-02 g(S)=  0.000E+00 retain N=  2 mean eig= 0.68
 eig:   0.114  1.244
 bond charge predicted
       N       E                     dE             d eps       ncg     rms          rms(c)
DAV:   1    -0.331718702009E+04   -0.26653E-02   -0.69035E-01  3712   0.637E-01    0.152E-01
DAV:   2    -0.331718816524E+04   -0.11452E-02   -0.14960E-02  3840   0.755E-02    0.862E-02
DAV:   3    -0.331718824404E+04   -0.78795E-04   -0.67268E-04  4288   0.158E-02    0.858E-02
DAV:   4    -0.331718827606E+04   -0.32025E-04   -0.88087E-04  4320   0.138E-02    0.709E-02
DAV:   5    -0.331718837913E+04   -0.10307E-03   -0.29521E-04  3968   0.135E-02    0.146E-02
DAV:   6    -0.331718838882E+04   -0.96917E-05   -0.34621E-05  4000   0.584E-03    0.101E-02
DAV:   7    -0.331718838952E+04   -0.70350E-06   -0.47466E-06  3776   0.221E-03
  48 F= -.33313121E+04 E0= -.33313121E+04  d E =-.393323E-02
 BRION: g(F)=  0.592E-02 g(S)=  0.000E+00 retain N=  2 mean eig= 0.18
 eig:   0.036  0.317
 bond charge predicted
       N       E                     dE             d eps       ncg     rms          rms(c)
DAV:   1    -0.331718985575E+04   -0.14669E-02   -0.12987E-01  3648   0.295E-01    0.675E-02
DAV:   2    -0.331719008086E+04   -0.22511E-03   -0.29536E-03  3904   0.364E-02    0.409E-02
DAV:   3    -0.331719009536E+04   -0.14497E-04   -0.24210E-04  4288   0.885E-03    0.470E-02
DAV:   4    -0.331719009078E+04    0.45759E-05   -0.20975E-04  4256   0.696E-03    0.292E-02
DAV:   5    -0.331719011530E+04   -0.24522E-04   -0.51561E-05  3872   0.701E-03    0.769E-03
DAV:   6    -0.331719011623E+04   -0.92562E-06   -0.76253E-06  3840   0.298E-03
  49 F= -.33313137E+04 E0= -.33313137E+04  d E =-.168924E-02
 BRION: g(F)=  0.563E-02 g(S)=  0.000E+00 retain N=  2 mean eig= 0.90
 eig:   0.160  1.646
 bond charge predicted
       N       E                     dE             d eps       ncg     rms          rms(c)
DAV:   1    -0.331719267426E+04   -0.25590E-02   -0.59908E-01  3712   0.589E-01    0.142E-01
DAV:   2    -0.331719366098E+04   -0.98672E-03   -0.12963E-02  3808   0.695E-02    0.804E-02
DAV:   3    -0.331719372362E+04   -0.62637E-04   -0.56440E-04  4288   0.145E-02    0.787E-02
DAV:   4    -0.331719375819E+04   -0.34569E-04   -0.75096E-04  4320   0.130E-02    0.659E-02
DAV:   5    -0.331719385070E+04   -0.92517E-04   -0.24814E-04  3968   0.123E-02    0.144E-02
DAV:   6    -0.331719385908E+04   -0.83762E-05   -0.30248E-05  4032   0.549E-03    0.942E-03
DAV:   7    -0.331719386014E+04   -0.10598E-05   -0.40357E-06  3680   0.206E-03    0.580E-03
DAV:   8    -0.331719386027E+04   -0.12980E-06   -0.16288E-06  3104   0.142E-03
  50 F= -.33313174E+04 E0= -.33313174E+04  d E =-.366065E-02
 BRION: g(F)=  0.546E-02 g(S)=  0.000E+00 retain N=  2 mean eig= 1.16
 eig:   0.190  2.133
 bond charge predicted
       N       E                     dE             d eps       ncg     rms          rms(c)
DAV:   1    -0.331719611305E+04   -0.22529E-02   -0.40083E-01  3712   0.480E-01    0.115E-01
DAV:   2    -0.331719677354E+04   -0.66049E-03   -0.86243E-03  3808   0.566E-02    0.650E-02
DAV:   3    -0.331719680572E+04   -0.32177E-04   -0.28802E-04  4288   0.112E-02    0.589E-02
DAV:   4    -0.331719684392E+04   -0.38204E-04   -0.49105E-04  4480   0.106E-02    0.576E-02
DAV:   5    -0.331719689031E+04   -0.46385E-04   -0.20447E-04  4064   0.102E-02    0.116E-02
DAV:   6    -0.331719689999E+04   -0.96842E-05   -0.21532E-05  4000   0.453E-03    0.781E-03
DAV:   7    -0.331719690078E+04   -0.78604E-06   -0.22505E-06  3392   0.155E-03
  51 F= -.33313204E+04 E0= -.33313204E+04  d E =-.297350E-02
 BRION: g(F)=  0.523E-02 g(S)=  0.000E+00 retain N=  2 mean eig= 0.58
 eig:   0.052  1.106
 bond charge predicted
       N       E                     dE             d eps       ncg     rms          rms(c)
DAV:   1    -0.331719962064E+04   -0.27207E-02   -0.95453E-01  3712   0.738E-01    0.177E-01
DAV:   2    -0.331720119320E+04   -0.15726E-02   -0.20556E-02  3808   0.868E-02    0.101E-01
DAV:   3    -0.331720128226E+04   -0.89060E-04   -0.10115E-03  4288   0.189E-02    0.102E-01
DAV:   4    -0.331720132389E+04   -0.41632E-04   -0.11643E-03  4320   0.164E-02    0.787E-02
DAV:   5    -0.331720148741E+04   -0.16352E-03   -0.36365E-04  3936   0.154E-02    0.173E-02
DAV:   6    -0.331720149602E+04   -0.86100E-05   -0.46366E-05  4032   0.654E-03    0.124E-02
DAV:   7    -0.331720149663E+04   -0.60082E-06   -0.70908E-06  3808   0.270E-03
  52 F= -.33313249E+04 E0= -.33313249E+04  d E =-.450001E-02
 BRION: g(F)=  0.547E-02 g(S)=  0.000E+00 retain N=  2 mean eig= 0.22
 eig:   0.059  0.373
 bond charge predicted
       N       E                     dE             d eps       ncg     rms          rms(c)
DAV:   1    -0.331720362455E+04   -0.21285E-02   -0.40009E-01  3712   0.489E-01    0.116E-01
DAV:   2    -0.331720429572E+04   -0.67117E-03   -0.87667E-03  3808   0.587E-02    0.653E-02
DAV:   3    -0.331720432021E+04   -0.24485E-04   -0.18286E-04  4256   0.108E-02    0.523E-02
DAV:   4    -0.331720440384E+04   -0.83637E-04   -0.57428E-04  4832   0.121E-02    0.699E-02
DAV:   5    -0.331720439772E+04    0.61289E-05   -0.34843E-04  4192   0.112E-02    0.127E-02
DAV:   6    -0.331720442190E+04   -0.24188E-04   -0.26192E-05  4000   0.508E-03    0.788E-03
DAV:   7    -0.331720442332E+04   -0.14210E-05   -0.25869E-06  3520   0.164E-03    0.559E-03
DAV:   8    -0.331720442341E+04   -0.83586E-07   -0.13467E-06  2976   0.137E-03
  53 F= -.33313277E+04 E0= -.33313277E+04  d E =-.286663E-02
 BRION: g(F)=  0.553E-02 g(S)=  0.000E+00 retain N=  2 mean eig= 0.94
 eig:   0.162  1.712
 bond charge predicted
       N       E                     dE             d eps       ncg     rms          rms(c)
DAV:   1    -0.331720546797E+04   -0.10446E-02   -0.69080E-02  3648   0.228E-01    0.488E-02
DAV:   2    -0.331720558769E+04   -0.11972E-03   -0.15908E-03  3840   0.290E-02    0.307E-02
DAV:   3    -0.331720558887E+04   -0.11802E-05   -0.54741E-05  4288   0.591E-03    0.259E-02
DAV:   4    -0.331720559794E+04   -0.90657E-05   -0.11267E-04  4320   0.545E-03    0.291E-02
DAV:   5    -0.331720559824E+04   -0.30664E-06   -0.60559E-05  4128   0.579E-03    0.642E-03
DAV:   6    -0.331720560254E+04   -0.42962E-05   -0.62016E-06  3904   0.262E-03    0.350E-03
DAV:   7    -0.331720560278E+04   -0.24086E-06   -0.58737E-07  2592   0.891E-04
  54 F= -.33313289E+04 E0= -.33313289E+04  d E =-.115513E-02
 BRION: g(F)=  0.523E-02 g(S)=  0.000E+00 retain N=  2 mean eig= 1.13
 eig:   0.165  2.088
 bond charge predicted
       N       E                     dE             d eps       ncg     rms          rms(c)
DAV:   1    -0.331720810886E+04   -0.25063E-02   -0.71195E-01  3712   0.639E-01    0.153E-01
DAV:   2    -0.331720928230E+04   -0.11734E-02   -0.15327E-02  3776   0.753E-02    0.869E-02
DAV:   3    -0.331720932968E+04   -0.47384E-04   -0.50596E-04  4288   0.151E-02    0.774E-02
DAV:   4    -0.331720940230E+04   -0.72617E-04   -0.83981E-04  4480   0.144E-02    0.748E-02
DAV:   5    -0.331720948981E+04   -0.87505E-04   -0.34844E-04  4032   0.135E-02    0.156E-02
DAV:   6    -0.331720950534E+04   -0.15534E-04   -0.38382E-05  4000   0.604E-03    0.105E-02
DAV:   7    -0.331720950669E+04   -0.13453E-05   -0.42954E-06  3776   0.213E-03    0.689E-03
DAV:   8    -0.331720950684E+04   -0.14831E-06   -0.24850E-06  3296   0.167E-03
  55 F= -.33313327E+04 E0= -.33313327E+04  d E =-.382869E-02
 BRION: g(F)=  0.498E-02 g(S)=  0.000E+00 retain N=  2 mean eig= 0.86
 eig:   0.182  1.532
 bond charge predicted
       N       E                     dE             d eps       ncg     rms          rms(c)
DAV:   1    -0.331721158245E+04   -0.20758E-02   -0.38636E-01  3744   0.472E-01    0.112E-01
DAV:   2    -0.331721221716E+04   -0.63471E-03   -0.83345E-03  3776   0.559E-02    0.635E-02
DAV:   3    -0.331721223867E+04   -0.21511E-04   -0.14473E-04  4256   0.100E-02    0.492E-02
DAV:   4    -0.331721234282E+04   -0.10415E-03   -0.55427E-04  4704   0.125E-02    0.696E-02
DAV:   5    -0.331721231651E+04    0.26309E-04   -0.36901E-04  4192   0.108E-02    0.126E-02
DAV:   6    -0.331721234108E+04   -0.24568E-04   -0.22882E-05  3936   0.467E-03    0.801E-03
DAV:   7    -0.331721234249E+04   -0.14087E-05   -0.24995E-06  3488   0.156E-03    0.556E-03
DAV:   8    -0.331721234264E+04   -0.15029E-06   -0.14165E-06  3072   0.134E-03
  56 F= -.33313355E+04 E0= -.33313355E+04  d E =-.278009E-02
 BRION: g(F)=  0.485E-02 g(S)=  0.000E+00 retain N=  2 mean eig= 0.21
 eig:   0.049  0.375
 bond charge predicted
       N       E                     dE             d eps       ncg     rms          rms(c)
DAV:   1    -0.331721464823E+04   -0.23057E-02   -0.60559E-01  3712   0.590E-01    0.141E-01
DAV:   2    -0.331721563970E+04   -0.99147E-03   -0.13094E-02  3776   0.699E-02    0.801E-02
DAV:   3    -0.331721567368E+04   -0.33979E-04   -0.36216E-04  4256   0.136E-02    0.680E-02
DAV:   4    -0.331721575866E+04   -0.84982E-04   -0.72335E-04  4608   0.137E-02    0.723E-02
DAV:   5    -0.331721582072E+04   -0.62060E-04   -0.34500E-04  4032   0.128E-02    0.149E-02
DAV:   6    -0.331721583846E+04   -0.17743E-04   -0.34989E-05  4000   0.578E-03    0.981E-03
DAV:   7    -0.331721583995E+04   -0.14852E-05   -0.37251E-06  3776   0.196E-03    0.669E-03
DAV:   8    -0.331721584010E+04   -0.15949E-06   -0.22405E-06  3200   0.161E-03
  57 F= -.33313389E+04 E0= -.33313389E+04  d E =-.343125E-02
 BRION: g(F)=  0.495E-02 g(S)=  0.000E+00 retain N=  2 mean eig= 0.95
 eig:   0.141  1.762
 bond charge predicted
       N       E                     dE             d eps       ncg     rms          rms(c)
DAV:   1    -0.331721775056E+04   -0.19106E-02   -0.33957E-01  3712   0.449E-01    0.106E-01
DAV:   2    -0.331721831132E+04   -0.56076E-03   -0.74373E-03  3776   0.540E-02    0.604E-02
DAV:   3    -0.331721832688E+04   -0.15559E-04   -0.13993E-04  4256   0.991E-03    0.472E-02
DAV:   4    -0.331721841533E+04   -0.88454E-04   -0.47910E-04  4704   0.118E-02    0.636E-02
DAV:   5    -0.331721840230E+04    0.13025E-04   -0.30803E-04  4192   0.104E-02    0.122E-02
DAV:   6    -0.331721842366E+04   -0.21351E-04   -0.22034E-05  3936   0.466E-03    0.756E-03
DAV:   7    -0.331721842500E+04   -0.13398E-05   -0.24964E-06  3424   0.158E-03    0.529E-03
DAV:   8    -0.331721842520E+04   -0.20722E-06   -0.10735E-06  2880   0.126E-03
  58 F= -.33313415E+04 E0= -.33313415E+04  d E =-.253916E-02
 BRION: g(F)=  0.499E-02 g(S)=  0.000E+00 retain N=  2 mean eig= 1.03
 eig:   0.162  1.897
 bond charge predicted
       N       E                     dE             d eps       ncg     rms          rms(c)
DAV:   1    -0.331721992432E+04   -0.14993E-02   -0.16923E-01  3712   0.324E-01    0.751E-02
DAV:   2    -0.331722020433E+04   -0.28001E-03   -0.37509E-03  3808   0.396E-02    0.434E-02
DAV:   3    -0.331722021238E+04   -0.80529E-05   -0.55594E-05  4160   0.706E-03    0.324E-02
DAV:   4    -0.331722026367E+04   -0.51285E-04   -0.10166E-04  3840   0.860E-03    0.254E-02
DAV:   5    -0.331722025740E+04    0.62633E-05   -0.68137E-05  4192   0.486E-03    0.848E-03
DAV:   6    -0.331722026173E+04   -0.43254E-05   -0.46471E-06  3552   0.217E-03    0.531E-03
DAV:   7    -0.331722026200E+04   -0.27474E-06   -0.17028E-06  3200   0.127E-03
  59 F= -.33313433E+04 E0= -.33313433E+04  d E =-.180193E-02
 BRION: g(F)=  0.469E-02 g(S)=  0.000E+00 retain N=  2 mean eig= 0.84
 eig:   0.178  1.499
 bond charge predicted
       N       E                     dE             d eps       ncg     rms          rms(c)
DAV:   1    -0.331722247143E+04   -0.22097E-02   -0.54887E-01  3712   0.558E-01    0.134E-01
DAV:   2    -0.331722335603E+04   -0.88461E-03   -0.11829E-02  3776   0.660E-02    0.759E-02
DAV:   3    -0.331722338502E+04   -0.28994E-04   -0.26783E-04  4256   0.124E-02    0.615E-02
DAV:   4    -0.331722349168E+04   -0.10665E-03   -0.67245E-04  4672   0.137E-02    0.720E-02
DAV:   5    -0.331722353151E+04   -0.39838E-04   -0.36478E-04  4096   0.123E-02    0.143E-02
DAV:   6    -0.331722355464E+04   -0.23124E-04   -0.31894E-05  4032   0.551E-03    0.935E-03
DAV:   7    -0.331722355634E+04   -0.17048E-05   -0.32344E-06  3648   0.182E-03    0.655E-03
DAV:   8    -0.331722355654E+04   -0.20140E-06   -0.22701E-06  3200   0.159E-03
  60 F= -.33313465E+04 E0= -.33313465E+04  d E =-.323803E-02
 BRION: g(F)=  0.456E-02 g(S)=  0.000E+00 retain N=  2 mean eig= 0.39
 eig:   0.164  0.616
 bond charge predicted
       N       E                     dE             d eps       ncg     rms          rms(c)
DAV:   1    -0.331722542818E+04   -0.18718E-02   -0.32317E-01  3744   0.428E-01    0.102E-01
DAV:   2    -0.331722594375E+04   -0.51557E-03   -0.69706E-03  3776   0.507E-02    0.579E-02
DAV:   3    -0.331722595766E+04   -0.13910E-04   -0.98949E-05  4160   0.888E-03    0.435E-02
DAV:   4    -0.331722607967E+04   -0.12202E-03   -0.32589E-04  4224   0.118E-02    0.510E-02
DAV:   5    -0.331722605152E+04    0.28150E-04   -0.22423E-04  4224   0.822E-03    0.116E-02
DAV:   6    -0.331722606769E+04   -0.16169E-04   -0.10582E-05  3808   0.334E-03    0.754E-03
DAV:   7    -0.331722606858E+04   -0.89151E-06   -0.24832E-06  3424   0.155E-03
  61 F= -.33313490E+04 E0= -.33313490E+04  d E =-.246964E-02
 BRION: g(F)=  0.446E-02 g(S)=  0.000E+00 retain N=  2 mean eig= 0.98
 eig:   0.170  1.786
 bond charge predicted
       N       E                     dE             d eps       ncg     rms          rms(c)
DAV:   1    -0.331722832408E+04   -0.22564E-02   -0.67789E-01  3744   0.616E-01    0.148E-01
DAV:   2    -0.331722943089E+04   -0.11068E-02   -0.14601E-02  3776   0.729E-02    0.837E-02
DAV:   3    -0.331722946464E+04   -0.33756E-04   -0.24972E-04  4224   0.131E-02    0.646E-02
DAV:   4    -0.331722964324E+04   -0.17859E-03   -0.86072E-04  4448   0.165E-02    0.840E-02
DAV:   5    -0.331722962971E+04    0.13523E-04   -0.56248E-04  4192   0.137E-02    0.161E-02
DAV:   6    -0.331722966998E+04   -0.40269E-04   -0.36577E-05  3904   0.593E-03    0.107E-02
DAV:   7    -0.331722967238E+04   -0.23928E-05   -0.43679E-06  3744   0.205E-03    0.732E-03
DAV:   8    -0.331722967275E+04   -0.37602E-06   -0.27570E-06  3296   0.174E-03
  62 F= -.33313525E+04 E0= -.33313525E+04  d E =-.354352E-02
 BRION: g(F)=  0.454E-02 g(S)=  0.000E+00 retain N=  2 mean eig= 1.00
 eig:   0.167  1.842
 bond charge predicted
       N       E                     dE             d eps       ncg     rms          rms(c)
DAV:   1    -0.331723118656E+04   -0.15142E-02   -0.18893E-01  3712   0.331E-01    0.783E-02
DAV:   2    -0.331723149000E+04   -0.30343E-03   -0.41170E-03  3808   0.398E-02    0.449E-02
DAV:   3    -0.331723149409E+04   -0.40903E-05   -0.69475E-05  4256   0.719E-03    0.344E-02
DAV:   4    -0.331723155821E+04   -0.64127E-04   -0.24327E-04  4352   0.915E-03    0.447E-02
DAV:   5    -0.331723155088E+04    0.73364E-05   -0.16441E-04  4192   0.743E-03    0.908E-03
DAV:   6    -0.331723156325E+04   -0.12374E-04   -0.10373E-05  3840   0.325E-03    0.584E-03
DAV:   7    -0.331723156407E+04   -0.81712E-06   -0.14836E-06  3264   0.123E-03
  63 F= -.33313544E+04 E0= -.33313544E+04  d E =-.186334E-02
 BRION: g(F)=  0.447E-02 g(S)=  0.000E+00 retain N=  2 mean eig= 0.70
 eig:   0.138  1.254
 bond charge predicted
       N       E                     dE             d eps       ncg     rms          rms(c)
DAV:   1    -0.331723327278E+04   -0.17095E-02   -0.26458E-01  3744   0.389E-01    0.928E-02
DAV:   2    -0.331723370043E+04   -0.42765E-03   -0.57351E-03  3776   0.465E-02    0.527E-02
DAV:   3    -0.331723371083E+04   -0.10405E-04   -0.76914E-05  4160   0.815E-03    0.392E-02
DAV:   4    -0.331723380173E+04   -0.90898E-04   -0.91951E-05  3840   0.945E-03    0.170E-02
DAV:   5    -0.331723380124E+04    0.49348E-06   -0.42770E-05  4192   0.441E-03    0.976E-03
DAV:   6    -0.331723380314E+04   -0.19064E-05   -0.61529E-06  3520   0.212E-03    0.677E-03
DAV:   7    -0.331723380357E+04   -0.43050E-06   -0.26945E-06  3232   0.155E-03
  64 F= -.33313566E+04 E0= -.33313566E+04  d E =-.220386E-02
 BRION: g(F)=  0.445E-02 g(S)=  0.000E+00 retain N=  2 mean eig= 0.62
 eig:   0.241  0.993
 bond charge predicted
       N       E                     dE             d eps       ncg     rms          rms(c)
DAV:   1    -0.331723580727E+04   -0.20041E-02   -0.42630E-01  3744   0.486E-01    0.117E-01
DAV:   2    -0.331723648499E+04   -0.67772E-03   -0.91252E-03  3776   0.574E-02    0.664E-02
DAV:   3    -0.331723650831E+04   -0.23319E-04   -0.13910E-04  4224   0.102E-02    0.503E-02
DAV:   4    -0.331723665213E+04   -0.14382E-03   -0.48558E-04  4192   0.134E-02    0.624E-02
DAV:   5    -0.331723663266E+04    0.19463E-04   -0.33368E-04  4160   0.103E-02    0.129E-02
DAV:   6    -0.331723665488E+04   -0.22220E-04   -0.18092E-05  3840   0.422E-03    0.861E-03
DAV:   7    -0.331723665626E+04   -0.13812E-05   -0.30242E-06  3616   0.172E-03    0.559E-03
DAV:   8    -0.331723665659E+04   -0.33004E-06   -0.15066E-06  3040   0.131E-03
  65 F= -.33313594E+04 E0= -.33313594E+04  d E =-.281055E-02
 BRION: g(F)=  0.435E-02 g(S)=  0.000E+00 retain N=  2 mean eig= 1.10
 eig:   0.222  1.979
 bond charge predicted
       N       E                     dE             d eps       ncg     rms          rms(c)
DAV:   1    -0.331723823378E+04   -0.15775E-02   -0.20956E-01  3744   0.340E-01    0.819E-02
DAV:   2    -0.331723855235E+04   -0.31857E-03   -0.44795E-03  3776   0.402E-02    0.466E-02
DAV:   3    -0.331723856502E+04   -0.12670E-04   -0.58916E-05  4160   0.700E-03    0.347E-02
DAV:   4    -0.331723865165E+04   -0.86633E-04   -0.82244E-05  3776   0.831E-03    0.182E-02
DAV:   5    -0.331723864930E+04    0.23518E-05   -0.39250E-05  4192   0.405E-03    0.858E-03
DAV:   6    -0.331723865089E+04   -0.15919E-05   -0.34450E-06  3232   0.187E-03    0.619E-03
DAV:   7    -0.331723865094E+04   -0.49127E-07   -0.19082E-06  3200   0.135E-03
  66 F= -.33313614E+04 E0= -.33313614E+04  d E =-.196575E-02
 BRION: g(F)=  0.430E-02 g(S)=  0.000E+00 retain N=  2 mean eig= 0.98
 eig:   0.229  1.723
 bond charge predicted
       N       E                     dE             d eps       ncg     rms          rms(c)
DAV:   1    -0.331724095905E+04   -0.23082E-02   -0.15883E+00  3744   0.933E-01    0.225E-01
DAV:   2    -0.331724352983E+04   -0.25708E-02   -0.33771E-02  3712   0.110E-01    0.128E-01
DAV:   3    -0.331724362128E+04   -0.91451E-04   -0.47424E-04  4192   0.192E-02    0.957E-02
DAV:   4    -0.331724414566E+04   -0.52439E-03   -0.13176E-03  4192   0.247E-02    0.973E-02
DAV:   5    -0.331724405836E+04    0.87308E-04   -0.88538E-04  4192   0.172E-02    0.237E-02
DAV:   6    -0.331724411082E+04   -0.52463E-04   -0.45260E-05  3840   0.678E-03    0.163E-02
DAV:   7    -0.331724411337E+04   -0.25505E-05   -0.11181E-05  4064   0.326E-03    0.102E-02
DAV:   8    -0.331724411452E+04   -0.11527E-05   -0.61249E-06  3648   0.252E-03    0.319E-03
DAV:   9    -0.331724411458E+04   -0.56345E-07   -0.16147E-06  2976   0.121E-03
  67 F= -.33313668E+04 E0= -.33313668E+04  d E =-.538512E-02
 BRION: g(F)=  0.430E-02 g(S)=  0.000E+00 retain N=  2 mean eig= 0.46
 eig:   0.464  0.464
 bond charge predicted
       N       E                     dE             d eps       ncg     rms          rms(c)
DAV:   1    -0.331724638596E+04   -0.22714E-02   -0.11908E+00  3744   0.814E-01    0.194E-01
DAV:   2    -0.331724828590E+04   -0.18999E-02   -0.25359E-02  3712   0.964E-02    0.111E-01
DAV:   3    -0.331724835634E+04   -0.70442E-04   -0.35440E-04  4224   0.168E-02    0.832E-02
DAV:   4    -0.331724876552E+04   -0.40918E-03   -0.81224E-04  4032   0.214E-02    0.724E-02
DAV:   5    -0.331724871527E+04    0.50254E-04   -0.52136E-04  4192   0.136E-02    0.208E-02
DAV:   6    -0.331724874484E+04   -0.29571E-04   -0.28834E-05  3872   0.554E-03    0.142E-02
DAV:   7    -0.331724874678E+04   -0.19445E-05   -0.96606E-06  4000   0.304E-03    0.843E-03
DAV:   8    -0.331724874761E+04   -0.83016E-06   -0.37848E-06  3488   0.210E-03
  68 F= -.33313713E+04 E0= -.33313713E+04  d E =-.456823E-02
 BRION: g(F)=  0.497E-02 g(S)=  0.000E+00 retain N=  2 mean eig= 0.60
 eig:   0.305  0.899
 bond charge predicted
       N       E                     dE             d eps       ncg     rms          rms(c)
DAV:   1    -0.331724904417E+04   -0.29739E-03   -0.10685E-02  3584   0.116E-01    0.195E-02
DAV:   2    -0.331724906418E+04   -0.20012E-04   -0.27574E-04  4192   0.163E-02    0.170E-02
DAV:   3    -0.331724906181E+04    0.23680E-05   -0.10614E-05  4416   0.332E-03    0.134E-02
DAV:   4    -0.331724906185E+04   -0.35390E-07   -0.22662E-05  4032   0.372E-03    0.130E-02
DAV:   5    -0.331724905988E+04    0.19688E-05   -0.20523E-05  3680   0.304E-03    0.454E-03
DAV:   6    -0.331724906057E+04   -0.69488E-06   -0.17970E-06  3008   0.143E-03
  69 F= -.33313716E+04 E0= -.33313716E+04  d E =-.311098E-03
 BRION: g(F)=  0.462E-02 g(S)=  0.000E+00 retain N=  2 mean eig= 1.17
 eig:   0.176  2.174
 bond charge predicted
       N       E                     dE             d eps       ncg     rms          rms(c)
DAV:   1    -0.331725009175E+04   -0.10319E-02   -0.72758E-02  3680   0.214E-01    0.492E-02
DAV:   2    -0.331725021032E+04   -0.11858E-03   -0.16128E-03  3808   0.263E-02    0.291E-02
DAV:   3    -0.331725021229E+04   -0.19697E-05   -0.24301E-05  4224   0.476E-03    0.216E-02
DAV:   4    -0.331725023702E+04   -0.24726E-04   -0.23570E-05  3840   0.547E-03    0.633E-03
DAV:   5    -0.331725023818E+04   -0.11554E-05   -0.83488E-06  3744   0.250E-03    0.550E-03
DAV:   6    -0.331725023824E+04   -0.65193E-07   -0.40952E-06  2752   0.122E-03
  70 F= -.33313728E+04 E0= -.33313728E+04  d E =-.116200E-02
 BRION: g(F)=  0.416E-02 g(S)=  0.000E+00 retain N=  2 mean eig= 0.94
 eig:   0.184  1.701
 bond charge predicted
       N       E                     dE             d eps       ncg     rms          rms(c)
DAV:   1    -0.331725253839E+04   -0.23002E-02   -0.96112E-01  3744   0.722E-01    0.175E-01
DAV:   2    -0.331725406438E+04   -0.15260E-02   -0.20299E-02  3712   0.851E-02    0.996E-02
DAV:   3    -0.331725412520E+04   -0.60820E-04   -0.26246E-04  4160   0.147E-02    0.740E-02
DAV:   4    -0.331725443222E+04   -0.30701E-03   -0.26427E-04  3808   0.161E-02    0.165E-02
DAV:   5    -0.331725443772E+04   -0.55050E-05   -0.58609E-05  3904   0.681E-03    0.144E-02
DAV:   6    -0.331725443739E+04    0.32806E-06   -0.12481E-05  3776   0.354E-03    0.905E-03
DAV:   7    -0.331725443751E+04   -0.11863E-06   -0.82070E-06  3392   0.195E-03
  71 F= -.33313769E+04 E0= -.33313769E+04  d E =-.414336E-02
 BRION: g(F)=  0.418E-02 g(S)=  0.000E+00 retain N=  2 mean eig= 0.49
 eig:   0.162  0.824
 bond charge predicted
       N       E                     dE             d eps       ncg     rms          rms(c)
DAV:   1    -0.331725549901E+04   -0.10616E-02   -0.89279E-02  3712   0.231E-01    0.550E-02
DAV:   2    -0.331725564425E+04   -0.14524E-03   -0.19732E-03  3808   0.284E-02    0.315E-02
[...]
       N       E                     dE             d eps       ncg     rms          rms(c)
DAV:   1    -0.331733498785E+04    0.23426E-01   -0.47442E+00  3584   0.222E+00    0.412E-01
DAV:   2    -0.331734437848E+04   -0.93906E-02   -0.12218E-01  3904   0.307E-01    0.311E-01
DAV:   3    -0.331734370142E+04    0.67706E-03   -0.38305E-03  4416   0.639E-02    0.231E-01
DAV:   4    -0.331734357919E+04    0.12223E-03   -0.29453E-03  4128   0.598E-02    0.129E-01
DAV:   5    -0.331734362703E+04   -0.47840E-04   -0.19489E-03  4192   0.423E-02    0.585E-02
DAV:   6    -0.331734372195E+04   -0.94923E-04   -0.39052E-04  3872   0.199E-02    0.273E-02
DAV:   7    -0.331734372069E+04    0.12642E-05   -0.65422E-05  4064   0.852E-03    0.156E-02
DAV:   8    -0.331734372295E+04   -0.22645E-05   -0.90025E-06  4192   0.381E-03    0.915E-03
DAV:   9    -0.331734372316E+04   -0.21188E-06   -0.65758E-06  3872   0.294E-03
  80 F= -.33314646E+04 E0= -.33314646E+04  d E =0.147490E-01
 BRION: g(F)=  0.229E+00 g(S)=  0.000E+00 retain N=  2 mean eig= 0.13
 eig:   0.043  0.215
 bond charge predicted
       N       E                     dE             d eps       ncg     rms          rms(c)
DAV:   1    -0.331736382472E+04   -0.20102E-01   -0.11077E+00  3584   0.127E+00    0.209E-01
DAV:   2    -0.331736621131E+04   -0.23866E-02   -0.32936E-02  4128   0.191E-01    0.214E-01
DAV:   3    -0.331736599906E+04    0.21225E-03   -0.11903E-03  4736   0.353E-02    0.187E-01
DAV:   4    -0.331736534659E+04    0.65247E-03   -0.11371E-03  3872   0.386E-02    0.110E-01
DAV:   5    -0.331736516947E+04    0.17712E-03   -0.92944E-04  4224   0.317E-02    0.427E-02
DAV:   6    -0.331736517861E+04   -0.91308E-05   -0.22018E-04  3904   0.158E-02    0.210E-02
DAV:   7    -0.331736517793E+04    0.67044E-06   -0.39841E-05  4000   0.669E-03    0.825E-03
DAV:   8    -0.331736517878E+04   -0.84098E-06   -0.38202E-06  3808   0.247E-03
  81 F= -.33314860E+04 E0= -.33314860E+04  d E =-.214282E-01
 BRION: g(F)=  0.227E-02 g(S)=  0.000E+00 retain N=  1 mean eig= 0.19
 eig:   0.194
 bond charge predicted
       N       E                     dE             d eps       ncg     rms          rms(c)
DAV:   1    -0.331736604977E+04   -0.87184E-03   -0.36224E-01  3648   0.513E-01    0.121E-01
DAV:   2    -0.331736681457E+04   -0.76479E-03   -0.10235E-02  3904   0.720E-02    0.742E-02
DAV:   3    -0.331736681691E+04   -0.23475E-05   -0.23086E-04  4192   0.148E-02    0.561E-02
DAV:   4    -0.331736690482E+04   -0.87904E-04   -0.18336E-04  3936   0.160E-02    0.175E-02
DAV:   5    -0.331736691194E+04   -0.71188E-05   -0.44329E-05  4000   0.737E-03    0.116E-02
DAV:   6    -0.331736691267E+04   -0.73004E-06   -0.11940E-05  4192   0.327E-03    0.715E-03
DAV:   7    -0.331736691327E+04   -0.59977E-06   -0.48165E-06  3552   0.225E-03
  82 F= -.33314877E+04 E0= -.33314877E+04  d E =-.168707E-02
 BRION: g(F)=  0.577E-02 g(S)=  0.000E+00 retain N=  2 mean eig= 0.18
 eig:   0.209  0.144
 bond charge predicted
       N       E                     dE             d eps       ncg     rms          rms(c)
DAV:   1    -0.331736760433E+04   -0.69166E-03   -0.32945E-02  3584   0.205E-01    0.370E-02
DAV:   2    -0.331736767009E+04   -0.65762E-04   -0.93005E-04  4064   0.296E-02    0.313E-02
DAV:   3    -0.331736766229E+04    0.77984E-05   -0.35880E-05  4640   0.621E-03    0.239E-02
DAV:   4    -0.331736765656E+04    0.57312E-05   -0.26267E-05  3968   0.635E-03    0.100E-02
DAV:   5    -0.331736765753E+04   -0.97207E-06   -0.14477E-05  4064   0.403E-03    0.581E-03
DAV:   6    -0.331736765752E+04    0.81491E-08   -0.37652E-06  2944   0.207E-03
  83 F= -.33314885E+04 E0= -.33314885E+04  d E =-.748083E-03
 BRION: g(F)=  0.201E-02 g(S)=  0.000E+00 retain N=  1 mean eig= 0.19
 eig:   0.190
 bond charge predicted
       N       E                     dE             d eps       ncg     rms          rms(c)
DAV:   1    -0.331736881380E+04   -0.11563E-02   -0.32187E-01  3712   0.439E-01    0.113E-01
DAV:   2    -0.331736946595E+04   -0.65215E-03   -0.86530E-03  3904   0.597E-02    0.648E-02
DAV:   3    -0.331736948659E+04   -0.20643E-04   -0.16179E-04  4160   0.116E-02    0.492E-02
DAV:   4    -0.331736957873E+04   -0.92142E-04   -0.13407E-04  4064   0.115E-02    0.148E-02
DAV:   5    -0.331736958555E+04   -0.68210E-05   -0.47741E-05  4000   0.652E-03    0.113E-02
DAV:   6    -0.331736958469E+04    0.86357E-06   -0.77034E-06  4320   0.326E-03
  84 F= -.33314904E+04 E0= -.33314904E+04  d E =-.190792E-02
 BRION: g(F)=  0.206E-02 g(S)=  0.000E+00 retain N=  2 mean eig= 0.28
 eig:   0.246  0.318
 bond charge predicted
       N       E                     dE             d eps       ncg     rms          rms(c)
DAV:   1    -0.331737023705E+04   -0.65150E-03   -0.55539E-02  3680   0.197E-01    0.499E-02
DAV:   2    -0.331737035177E+04   -0.11472E-03   -0.15864E-03  4000   0.276E-02    0.293E-02
DAV:   3    -0.331737035407E+04   -0.23003E-05   -0.35168E-05  4192   0.603E-03    0.219E-02
DAV:   4    -0.331737037111E+04   -0.17034E-04   -0.31767E-05  3872   0.666E-03    0.841E-03
DAV:   5    -0.331737037204E+04   -0.93365E-06   -0.10242E-05  4032   0.315E-03    0.515E-03
DAV:   6    -0.331737037206E+04   -0.18743E-07   -0.19600E-06  3200   0.171E-03
  85 F= -.33314911E+04 E0= -.33314911E+04  d E =-.765333E-03
 BRION: g(F)=  0.196E-02 g(S)=  0.000E+00 retain N=  1 mean eig= 0.25
 eig:   0.251
 bond charge predicted
       N       E                     dE             d eps       ncg     rms          rms(c)
DAV:   1    -0.331737143236E+04   -0.10603E-02   -0.22701E-01  3712   0.366E-01    0.942E-02
DAV:   2    -0.331737188748E+04   -0.45512E-03   -0.59770E-03  3904   0.494E-02    0.537E-02
DAV:   3    -0.331737190200E+04   -0.14520E-04   -0.10805E-04  4160   0.950E-03    0.406E-02
DAV:   4    -0.331737196641E+04   -0.64407E-04   -0.84472E-05  4032   0.936E-03    0.106E-02
DAV:   5    -0.331737196906E+04   -0.26501E-05   -0.23728E-05  3904   0.480E-03    0.868E-03
DAV:   6    -0.331737196862E+04    0.44180E-06   -0.46886E-06  3808   0.252E-03
  86 F= -.33314927E+04 E0= -.33314927E+04  d E =-.157231E-02
 BRION: g(F)=  0.187E-02 g(S)=  0.000E+00 retain N=  2 mean eig= 0.85
 eig:   0.128  1.566
 bond charge predicted
       N       E                     dE             d eps       ncg     rms          rms(c)
DAV:   1    -0.331737285985E+04   -0.89079E-03   -0.15249E-01  3712   0.304E-01    0.782E-02
DAV:   2    -0.331737316640E+04   -0.30655E-03   -0.40258E-03  3936   0.412E-02    0.441E-02
DAV:   3    -0.331737317750E+04   -0.11100E-04   -0.74227E-05  4192   0.792E-03    0.333E-02
DAV:   4    -0.331737322089E+04   -0.43390E-04   -0.53480E-05  3872   0.772E-03    0.903E-03
DAV:   5    -0.331737322288E+04   -0.19881E-05   -0.14932E-05  3936   0.394E-03    0.705E-03
DAV:   6    -0.331737322265E+04    0.22957E-06   -0.33886E-06  3456   0.217E-03
  87 F= -.33314940E+04 E0= -.33314940E+04  d E =-.124039E-02
 BRION: g(F)=  0.196E-02 g(S)=  0.000E+00 retain N=  2 mean eig= 0.29
 eig:   0.292  0.292
 bond charge predicted
       N       E                     dE             d eps       ncg     rms          rms(c)
DAV:   1    -0.331737425430E+04   -0.10314E-02   -0.26203E-01  3712   0.398E-01    0.102E-01
DAV:   2    -0.331737478489E+04   -0.53059E-03   -0.69080E-03  3904   0.539E-02    0.575E-02
DAV:   3    -0.331737480059E+04   -0.15696E-04   -0.12637E-04  4160   0.105E-02    0.434E-02
DAV:   4    -0.331737486945E+04   -0.68861E-04   -0.97201E-05  3904   0.108E-02    0.115E-02
DAV:   5    -0.331737487091E+04   -0.14561E-05   -0.21153E-05  4000   0.495E-03    0.852E-03
DAV:   6    -0.331737487079E+04    0.11490E-06   -0.47706E-06  3616   0.222E-03
  88 F= -.33314956E+04 E0= -.33314956E+04  d E =-.161549E-02
 BRION: g(F)=  0.195E-02 g(S)=  0.000E+00 retain N=  2 mean eig= 0.93
 eig:   0.146  1.710
 bond charge predicted
       N       E                     dE             d eps       ncg     rms          rms(c)
DAV:   1    -0.331737487711E+04   -0.61993E-05   -0.30128E-03  3776   0.648E-02    0.124E-02
DAV:   2    -0.331737488124E+04   -0.41333E-05   -0.76169E-05  4224   0.960E-03    0.119E-02
DAV:   3    -0.331737487920E+04    0.20416E-05   -0.38834E-06  3712   0.231E-03    0.884E-03
DAV:   4    -0.331737487737E+04    0.18257E-05   -0.55471E-06  3648   0.280E-03    0.373E-03
DAV:   5    -0.331737487725E+04    0.12142E-06   -0.16380E-06  2496   0.136E-03
  89 F= -.33314956E+04 E0= -.33314956E+04  d E =-.101584E-04
 BRION: g(F)=  0.181E-02 g(S)=  0.000E+00 retain N=  2 mean eig= 0.51
 eig:   0.197  0.830
 bond charge predicted
       N       E                     dE             d eps       ncg     rms          rms(c)
DAV:   1    -0.331737586866E+04   -0.99129E-03   -0.22836E-01  3712   0.367E-01    0.927E-02
DAV:   2    -0.331737632015E+04   -0.45148E-03   -0.58193E-03  3904   0.490E-02    0.525E-02
DAV:   3    -0.331737633295E+04   -0.12808E-04   -0.10328E-04  4160   0.933E-03    0.396E-02
DAV:   4    -0.331737638895E+04   -0.55999E-04   -0.81246E-05  3872   0.937E-03    0.100E-02
DAV:   5    -0.331737639026E+04   -0.13059E-05   -0.18870E-05  3904   0.444E-03    0.808E-03
DAV:   6    -0.331737638999E+04    0.26787E-06   -0.41497E-06  3424   0.237E-03
  90 F= -.33314971E+04 E0= -.33314971E+04  d E =-.148932E-02
 BRION: g(F)=  0.177E-02 g(S)=  0.000E+00 retain N=  2 mean eig= 0.50
 eig:   0.210  0.787
 bond charge predicted
       N       E                     dE             d eps       ncg     rms          rms(c)
DAV:   1    -0.331737714145E+04   -0.75119E-03   -0.10320E-01  3712   0.248E-01    0.642E-02
DAV:   2    -0.331737734277E+04   -0.20132E-03   -0.26489E-03  3904   0.332E-02    0.356E-02
DAV:   3    -0.331737735188E+04   -0.91146E-05   -0.47421E-05  4160   0.638E-03    0.268E-02
DAV:   4    -0.331737738037E+04   -0.28488E-04   -0.31790E-05  3872   0.606E-03    0.671E-03
DAV:   5    -0.331737738111E+04   -0.74296E-06   -0.70469E-06  3840   0.285E-03
  91 F= -.33314981E+04 E0= -.33314981E+04  d E =-.977392E-03
 BRION: g(F)=  0.171E-02 g(S)=  0.000E+00 retain N=  2 mean eig= 0.73
 eig:   0.732  0.732
 bond charge predicted
       N       E                     dE             d eps       ncg     rms          rms(c)
DAV:   1    -0.331737837520E+04   -0.99483E-03   -0.34910E-01  3712   0.455E-01    0.116E-01
DAV:   2    -0.331737906897E+04   -0.69377E-03   -0.89947E-03  3808   0.608E-02    0.653E-02
DAV:   3    -0.331737909503E+04   -0.26066E-04   -0.15644E-04  4160   0.115E-02    0.493E-02
DAV:   4    -0.331737918220E+04   -0.87166E-04   -0.12218E-04  3936   0.112E-02    0.133E-02
DAV:   5    -0.331737918579E+04   -0.35941E-05   -0.36089E-05  4000   0.592E-03    0.106E-02
DAV:   6    -0.331737918491E+04    0.88068E-06   -0.68397E-06  4160   0.312E-03
  92 F= -.33314998E+04 E0= -.33314998E+04  d E =-.177604E-02
 BRION: g(F)=  0.182E-02 g(S)=  0.000E+00 retain N=  2 mean eig= 0.48
 eig:   0.144  0.813
 bond charge predicted
       N       E                     dE             d eps       ncg     rms          rms(c)
DAV:   1    -0.331737967485E+04   -0.48906E-03   -0.43976E-02  3648   0.181E-01    0.442E-02
DAV:   2    -0.331737976578E+04   -0.90922E-04   -0.12136E-03  3936   0.250E-02    0.261E-02
DAV:   3    -0.331737976674E+04   -0.96357E-06   -0.27152E-05  4256   0.530E-03    0.193E-02
DAV:   4    -0.331737977577E+04   -0.90281E-05   -0.22747E-05  3872   0.567E-03    0.717E-03
DAV:   5    -0.331737977664E+04   -0.87707E-06   -0.69753E-06  3744   0.266E-03
  93 F= -.33315004E+04 E0= -.33315004E+04  d E =-.581313E-03
 BRION: g(F)=  0.188E-02 g(S)=  0.000E+00 retain N=  2 mean eig= 0.66
 eig:   0.179  1.148
 bond charge predicted
       N       E                     dE             d eps       ncg     rms          rms(c)
DAV:   1    -0.331738018025E+04   -0.40448E-03   -0.23224E-02  3680   0.132E-01    0.317E-02
DAV:   2    -0.331738022667E+04   -0.46421E-04   -0.62382E-04  3936   0.181E-02    0.192E-02
DAV:   3    -0.331738022734E+04   -0.67172E-06   -0.13627E-05  4128   0.370E-03    0.143E-02
DAV:   4    -0.331738023243E+04   -0.50873E-05   -0.10171E-05  3872   0.370E-03    0.466E-03
DAV:   5    -0.331738023310E+04   -0.67311E-06   -0.29420E-06  3168   0.190E-03
  94 F= -.33315009E+04 E0= -.33315009E+04  d E =-.450476E-03
 BRION: g(F)=  0.165E-02 g(S)=  0.000E+00 retain N=  2 mean eig= 0.80
 eig:   0.176  1.427
 bond charge predicted
       N       E                     dE             d eps       ncg     rms          rms(c)
DAV:   1    -0.331738110727E+04   -0.87484E-03   -0.18862E-01  3712   0.333E-01    0.849E-02
DAV:   2    -0.331738147413E+04   -0.36686E-03   -0.47423E-03  3904   0.440E-02    0.475E-02
DAV:   3    -0.331738148842E+04   -0.14292E-04   -0.80711E-05  4160   0.829E-03    0.358E-02
DAV:   4    -0.331738153566E+04   -0.47233E-04   -0.62537E-05  3872   0.804E-03    0.907E-03
DAV:   5    -0.331738153696E+04   -0.13070E-05   -0.15798E-05  3872   0.399E-03    0.737E-03
DAV:   6    -0.331738153666E+04    0.30664E-06   -0.33616E-06  3552   0.217E-03
  95 F= -.33315021E+04 E0= -.33315021E+04  d E =-.128472E-02
 BRION: g(F)=  0.158E-02 g(S)=  0.000E+00 retain N=  2 mean eig= 0.89
 eig:   0.170  1.602
 bond charge predicted
       N       E                     dE             d eps       ncg     rms          rms(c)
DAV:   1    -0.331738245202E+04   -0.91505E-03   -0.28791E-01  3712   0.411E-01    0.105E-01
DAV:   2    -0.331738300231E+04   -0.55030E-03   -0.71695E-03  3872   0.542E-02    0.581E-02
DAV:   3    -0.331738302600E+04   -0.23685E-04   -0.12289E-04  4128   0.102E-02    0.436E-02
DAV:   4    -0.331738310295E+04   -0.76954E-04   -0.87624E-05  3840   0.984E-03    0.108E-02
DAV:   5    -0.331738310422E+04   -0.12702E-05   -0.19204E-05  4000   0.457E-03    0.830E-03
DAV:   6    -0.331738310394E+04    0.28289E-06   -0.41048E-06  3520   0.216E-03
  96 F= -.33315037E+04 E0= -.33315037E+04  d E =-.154334E-02
 BRION: g(F)=  0.164E-02 g(S)=  0.000E+00 retain N=  2 mean eig= 0.46
 eig:   0.459  0.459
 bond charge predicted
       N       E                     dE             d eps       ncg     rms          rms(c)
DAV:   1    -0.331738348197E+04   -0.37775E-03   -0.23959E-02  3712   0.130E-01    0.318E-02
DAV:   2    -0.331738352996E+04   -0.47985E-04   -0.64612E-04  3968   0.179E-02    0.185E-02
DAV:   3    -0.331738353217E+04   -0.22091E-05   -0.12846E-05  4096   0.355E-03    0.139E-02
DAV:   4    -0.331738353810E+04   -0.59339E-05   -0.10062E-05  3776   0.358E-03    0.444E-03
DAV:   5    -0.331738353871E+04   -0.60443E-06   -0.31370E-06  3104   0.192E-03
  97 F= -.33315041E+04 E0= -.33315041E+04  d E =-.428941E-03
 BRION: g(F)=  0.161E-02 g(S)=  0.000E+00 retain N=  2 mean eig= 0.48
 eig:   0.050  0.907
 bond charge predicted
       N       E                     dE             d eps       ncg     rms          rms(c)
DAV:   1    -0.331738417734E+04   -0.63923E-03   -0.83845E-02  3712   0.229E-01    0.571E-02
DAV:   2    -0.331738433757E+04   -0.16024E-03   -0.21203E-03  3904   0.305E-02    0.324E-02
DAV:   3    -0.331738434473E+04   -0.71535E-05   -0.37831E-05  4160   0.584E-03    0.242E-02
DAV:   4    -0.331738436655E+04   -0.21824E-04   -0.29449E-05  3872   0.589E-03    0.654E-03
DAV:   5    -0.331738436733E+04   -0.77835E-06   -0.70633E-06  3776   0.283E-03
  98 F= -.33315049E+04 E0= -.33315049E+04  d E =-.816599E-03
 BRION: g(F)=  0.160E-02 g(S)=  0.000E+00 retain N=  2 mean eig= 0.89
 eig:   0.191  1.596
 bond charge predicted
       N       E                     dE             d eps       ncg     rms          rms(c)
DAV:   1    -0.331738510114E+04   -0.73459E-03   -0.13125E-01  3712   0.282E-01    0.715E-02
DAV:   2    -0.331738534963E+04   -0.24849E-03   -0.32837E-03  3936   0.373E-02    0.397E-02
DAV:   3    -0.331738536163E+04   -0.12000E-04   -0.57376E-05  4192   0.712E-03    0.298E-02
DAV:   4    -0.331738539724E+04   -0.35608E-04   -0.40770E-05  3872   0.694E-03    0.779E-03
DAV:   5    -0.331738539790E+04   -0.66031E-06   -0.89399E-06  3968   0.319E-03
  99 F= -.33315059E+04 E0= -.33315059E+04  d E =-.101615E-02
 BRION: g(F)=  0.154E-02 g(S)=  0.000E+00 retain N=  2 mean eig= 0.76
 eig:   0.105  1.419
 bond charge predicted
       N       E                     dE             d eps       ncg     rms          rms(c)
DAV:   1    -0.331738601266E+04   -0.61542E-03   -0.81905E-02  3712   0.225E-01    0.577E-02
DAV:   2    -0.331738617028E+04   -0.15762E-03   -0.20909E-03  3936   0.301E-02    0.320E-02
DAV:   3    -0.331738617805E+04   -0.77717E-05   -0.36927E-05  4160   0.574E-03    0.240E-02
DAV:   4    -0.331738620041E+04   -0.22362E-04   -0.26402E-05  3968   0.552E-03    0.660E-03
DAV:   5    -0.331738620154E+04   -0.11245E-05   -0.73994E-06  3808   0.286E-03    0.497E-03
DAV:   6    -0.331738620139E+04    0.14494E-06   -0.15720E-06  3040   0.158E-03
 100 F= -.33315067E+04 E0= -.33315067E+04  d E =-.792614E-03
 BRION: g(F)=  0.152E-02 g(S)=  0.000E+00 retain N=  2 mean eig= 0.39
 eig:   0.147  0.632
 bond charge predicted
       N       E                     dE             d eps       ncg     rms          rms(c)
DAV:   1    -0.331738687346E+04   -0.67193E-03   -0.10414E-01  3712   0.251E-01    0.633E-02
DAV:   2    -0.331738707263E+04   -0.19917E-03   -0.26007E-03  3936   0.331E-02    0.352E-02
DAV:   3    -0.331738708107E+04   -0.84377E-05   -0.44535E-05  4160   0.625E-03    0.264E-02
DAV:   4    -0.331738710877E+04   -0.27701E-04   -0.33692E-05  3872   0.616E-03    0.678E-03
DAV:   5    -0.331738710954E+04   -0.77067E-06   -0.79951E-06  3840   0.298E-03
 101 F= -.33315076E+04 E0= -.33315076E+04  d E =-.894501E-03
 BRION: g(F)=  0.146E-02 g(S)=  0.000E+00 retain N=  2 mean eig= 0.83
 eig:   0.137  1.522
 bond charge predicted
       N       E                     dE             d eps       ncg     rms          rms(c)
DAV:   1    -0.331738775922E+04   -0.65045E-03   -0.10432E-01  3712   0.251E-01    0.642E-02
DAV:   2    -0.331738795691E+04   -0.19769E-03   -0.26106E-03  3904   0.332E-02    0.354E-02
DAV:   3    -0.331738796570E+04   -0.87912E-05   -0.45079E-05  4160   0.633E-03    0.265E-02
DAV:   4    -0.331738799560E+04   -0.29895E-04   -0.31446E-05  3872   0.612E-03    0.683E-03
DAV:   5    -0.331738799616E+04   -0.56147E-06   -0.67678E-06  3872   0.283E-03
 102 F= -.33315085E+04 E0= -.33315085E+04  d E =-.875161E-03
 BRION: g(F)=  0.148E-02 g(S)=  0.000E+00 retain N=  2 mean eig= 0.73
 eig:   0.100  1.353
 bond charge predicted
       N       E                     dE             d eps       ncg     rms          rms(c)
DAV:   1    -0.331738869027E+04   -0.69467E-03   -0.13087E-01  3712   0.281E-01    0.716E-02
DAV:   2    -0.331738893837E+04   -0.24810E-03   -0.32670E-03  3936   0.371E-02    0.394E-02
DAV:   3    -0.331738894940E+04   -0.11029E-04   -0.55652E-05  4160   0.697E-03    0.296E-02
DAV:   4    -0.331738898624E+04   -0.36843E-04   -0.40258E-05  3904   0.672E-03    0.759E-03
DAV:   5    -0.331738898745E+04   -0.12043E-05   -0.98539E-06  3872   0.330E-03    0.592E-03
DAV:   6    -0.331738898730E+04    0.14389E-06   -0.22718E-06  3232   0.183E-03
 103 F= -.33315095E+04 E0= -.33315095E+04  d E =-.977977E-03
 BRION: g(F)=  0.147E-02 g(S)=  0.000E+00 retain N=  2 mean eig= 0.84
 eig:   0.169  1.510
 bond charge predicted
       N       E                     dE             d eps       ncg     rms          rms(c)
DAV:   1    -0.331738933738E+04   -0.34994E-03   -0.21505E-02  3712   0.120E-01    0.298E-02
DAV:   2    -0.331738937860E+04   -0.41216E-04   -0.55333E-04  3936   0.161E-02    0.168E-02
DAV:   3    -0.331738938051E+04   -0.19071E-05   -0.10152E-05  4032   0.312E-03    0.125E-02
DAV:   4    -0.331738938680E+04   -0.62977E-05   -0.72812E-06  3712   0.311E-03    0.354E-03
DAV:   5    -0.331738938710E+04   -0.29977E-06   -0.16443E-06  2784   0.151E-03
 soft stop encountered!  aborting job ...
 104 F= -.33315099E+04 E0= -.33315099E+04  d E =-.393597E-03
 BRION: g(F)=  0.139E-02 g(S)=  0.000E+00 retain N=  2 mean eig= 0.37
 eig:   0.072  0.666
 deleting file STOPCAR
 PROFILE, used timers:     325
