 running  128 mpi-ranks, with    1 threads/rank, on    2 nodes
 distrk:  each k-point on  128 cores,    1 groups
 distr:  one band on    1 cores,  128 groups
 vasp.6.4.2 20Jul23 (build Oct 12 2023 10:31:02) complex                         
 POSCAR found type information on POSCAR GeSe
 POSCAR found :  2 types and     576 ions
 Reading from existing POTCAR
 -----------------------------------------------------------------------------
|                                                                             |
|           W    W    AA    RRRRR   N    N  II  N    N   GGGG   !!!           |
|           W    W   A  A   R    R  NN   N  II  NN   N  G    G  !!!           |
|           W    W  A    A  R    R  N N  N  II  N N  N  G       !!!           |
|           W WW W  AAAAAA  RRRRR   N  N N  II  N  N N  G  GGG   !            |
|           WW  WW  A    A  R   R   N   NN  II  N   NN  G    G                |
|           W    W  A    A  R    R  N    N  II  N    N   GGGG   !!!           |
|                                                                             |
|     You use a magnetic or noncollinear calculation, but did not specify     |
|     the initial magnetic moment with the MAGMOM tag. Note that a            |
|     default of 1 will be used for all atoms. This ferromagnetic setup       |
|     may break the symmetry of the crystal, in particular it may rule        |
|     out finding an antiferromagnetic solution. Thence, we recommend         |
|     setting the initial magnetic moment manually or verifying carefully     |
|     that this magnetic setup is desired.                                    |
|                                                                             |
 -----------------------------------------------------------------------------

 scaLAPACK will be used
 Reading from existing POTCAR
 -----------------------------------------------------------------------------
|                                                                             |
|               ----> ADVICE to this user running VASP <----                  |
|                                                                             |
|     You have a (more or less) 'large supercell' and for larger cells it     |
|     might be more efficient to use real-space projection operators.         |
|     Therefore, try LREAL= Auto in the INCAR file.                           |
|     Mind: For very accurate calculation, you might also keep the            |
|     reciprocal projection scheme (i.e. LREAL=.FALSE.).                      |
|                                                                             |
 -----------------------------------------------------------------------------

 LDA part: xc-table for Pade appr. of Perdew
 -----------------------------------------------------------------------------
|                                                                             |
|           W    W    AA    RRRRR   N    N  II  N    N   GGGG   !!!           |
|           W    W   A  A   R    R  NN   N  II  NN   N  G    G  !!!           |
|           W    W  A    A  R    R  N N  N  II  N N  N  G       !!!           |
|           W WW W  AAAAAA  RRRRR   N  N N  II  N  N N  G  GGG   !            |
|           WW  WW  A    A  R   R   N   NN  II  N   NN  G    G                |
|           W    W  A    A  R    R  N    N  II  N    N   GGGG   !!!           |
|                                                                             |
|     The number of bands has been changed from the values supplied in        |
|     the INCAR file. This is a result of running the parallel version.       |
|     The orbitals not found in the WAVECAR file will be initialized with     |
|     random numbers, which is usually adequate. For correlated               |
|     calculations, however, you should redo the groundstate calculation.     |
|     I found NBANDS = 1728. Now, NBANDS = 1792.                              |
|                                                                             |
 -----------------------------------------------------------------------------

 POSCAR, INCAR and KPOINTS ok, starting setup
 FFT: planning ... GRIDC
 FFT: planning ... GRID_SOFT
 FFT: planning ... GRID
 WAVECAR not read
 WARNING: random wavefunctions but no delay for mixing, default for NELMDL
 entering main loop
       N       E                     dE             d eps       ncg     rms          rms(c)
DAV:   1     0.144529046074E+05    0.14453E+05   -0.11306E+06  7168   0.135E+03
DAV:   2    -0.583082567838E+03   -0.15036E+05   -0.14475E+05  8448   0.201E+02
DAV:   3    -0.228691044035E+04   -0.17038E+04   -0.16684E+04  8576   0.681E+01
DAV:   4    -0.234405453132E+04   -0.57144E+02   -0.56540E+02  8704   0.126E+01
DAV:   5    -0.234624140198E+04   -0.21869E+01   -0.21821E+01  9088   0.211E+00    0.819E+01
DAV:   6    -0.224271929218E+04    0.10352E+03   -0.31622E+02  8320   0.991E+00    0.567E+01
DAV:   7    -0.226545353978E+04   -0.22734E+02   -0.60017E+01  8320   0.473E+00    0.438E+01
DAV:   8    -0.232475603002E+04   -0.59302E+02   -0.21982E+01  8064   0.335E+00    0.334E+01
DAV:   9    -0.234629543228E+04   -0.21539E+02   -0.12928E+01  8064   0.272E+00    0.286E+01
DAV:  10    -0.240555964219E+04   -0.59264E+02   -0.47648E+01  7424   0.395E+00    0.201E+01
DAV:  11    -0.243320316275E+04   -0.27644E+02   -0.28735E+01  8448   0.276E+00    0.491E+00
DAV:  12    -0.243547014088E+04   -0.22670E+01   -0.47198E+00  7936   0.149E+00    0.207E+00
DAV:  13    -0.243560097847E+04   -0.13084E+00   -0.50034E-01  9984   0.406E-01    0.993E-01
DAV:  14    -0.243562531796E+04   -0.24339E-01   -0.68313E-02  8192   0.180E-01    0.523E-01
DAV:  15    -0.243563301193E+04   -0.76940E-02   -0.15255E-02  8704   0.105E-01    0.225E-01
DAV:  16    -0.243563561060E+04   -0.25987E-02   -0.49000E-03  7808   0.600E-02    0.101E-01
DAV:  17    -0.243563572946E+04   -0.11887E-03   -0.62286E-04  8704   0.200E-02    0.350E-02
DAV:  18    -0.243563575997E+04   -0.30502E-04   -0.15619E-04  8448   0.944E-03    0.130E-02
DAV:  19    -0.243563576009E+04   -0.12479E-06   -0.14431E-05  8704   0.336E-03    0.633E-03
DAV:  20    -0.243563576044E+04   -0.35341E-06   -0.12639E-06  6144   0.124E-03
   1 F= -.24356358E+04 E0= -.24356358E+04  d E =-.213635E-11  mag=    -0.0000
 writing wavefunctions
