 vasp.6.4.2 20Jul23 (build Oct 12 2023 10:31:02) complex                         
 executed on              LinuxNV date 2025.05.28  09:04:19
 running  128 mpi-ranks, with    1 threads/rank, on    2 nodes
 distrk:  each k-point on   64 cores,    2 groups
 distr:  one band on NCORE=   4 cores,   16 groups


--------------------------------------------------------------------------------------------------------


 INCAR:
   ENCUT = 360.000000
   SIGMA = 0.050000
   EDIFF = 1.00e-06
   ALGO = Normal
   GGA = PE
   PREC = Normal
   SYSTEM = ./
   ICHARG = 2
   ISMEAR = 0
   ISPIN = 1
   ISTART = 0
   ISYM = 0
   KPAR = 2
   LMAXMIX = 4
   NELM = 100
   NPAR = 16
   LASPH = .TRUE.
   LCHARG = .FALSE.
   LWAVE = .FALSE.

 POTCAR:    PAW_PBE Ge 05Jan2001                  
 POTCAR:    PAW_PBE Se 06Sep2000                  
 POTCAR:    PAW_PBE Ge 05Jan2001                  
   VRHFIN =Ge: s2p2                                                                                 
   LEXCH  = PE                                                                                      
   EATOM  =   104.9960 eV,    7.7170 Ry                                                             
                                                                                                    
   TITEL  = PAW_PBE Ge 05Jan2001                                                                    
   LULTRA =        F    use ultrasoft PP ?                                                          
   IUNSCR =        1    unscreen: 0-lin 1-nonlin 2-no                                               
   RPACOR =    2.170    partial core radius                                                         
   POMASS =   72.610; ZVAL   =    4.000    mass and valenz                                          
   RCORE  =    2.300    outmost cutoff radius                                                       
   RWIGS  =    2.300; RWIGS  =    1.217    wigner-seitz radius (au A)                               
   ENMAX  =  173.807; ENMIN  =  130.355 eV                                                          
   ICORE  =        3    local potential                                                             
   LCOR   =        T    correct aug charges                                                         
   LPAW   =        T    paw PP                                                                      
   EAUG   =  385.843                                                                                
   DEXC   =    0.000                                                                                
   RMAX   =    2.342    core radius for proj-oper                                                   
   RAUG   =    1.300    factor for augmentation sphere                                              
   RDEP   =    2.318    radius for radial grids                                                     
   RDEPT  =    2.103    core radius for aug-charge                                                  
                                                                                                    
   Atomic configuration                                                                             
   10 entries                                                                                       
     n  l   j            E        occ.                                                              
     1  0  0.50    -10959.8463   2.0000                                                             
     2  0  0.50     -1371.6056   2.0000                                                             
     2  1  1.50     -1198.4791   6.0000                                                             
     3  0  0.50      -168.4733   2.0000                                                             
     3  1  1.50      -115.6019   6.0000                                                             
     3  2  2.50       -29.3106  10.0000                                                             
     4  0  0.50       -11.7309   2.0000                                                             
     4  1  0.50        -3.8952   2.0000                                                             
     4  2  1.50        -4.0817   0.0000                                                             
     4  3  2.50        -4.0817   0.0000                                                             
   Description                                                                                      
     l       E           TYP  RCUT    TYP  RCUT                                                     
     0    -11.7309493     23  2.300                                                                 
     0     -7.4578696     23  2.300                                                                 
     1     -3.8952261     23  2.300                                                                 
     1      6.1178114     23  2.300                                                                 
     2     -4.0817478     23  2.300                                                                 
     3     -1.3605826      7  2.300                                                                 
  local pseudopotential read in
  partial core-charges read in
  partial kinetic energy density read in
  atomic valenz-charges read in
  non local Contribution for L=            0  read in
    real space projection operators read in
  non local Contribution for L=            0  read in
    real space projection operators read in
  non local Contribution for L=            1  read in
    real space projection operators read in
  non local Contribution for L=            1  read in
    real space projection operators read in
  non local Contribution for L=            2  read in
    real space projection operators read in
    PAW grid and wavefunctions read in
 
   number of l-projection  operators is LMAX  =            5
   number of lm-projection operators is LMMAX =           13
 
 POTCAR:    PAW_PBE Se 06Sep2000                  
   VRHFIN =Se: s2p4                                                                                 
   LEXCH  = PE                                                                                      
   EATOM  =   257.1286 eV,   18.8984 Ry                                                             
                                                                                                    
   TITEL  = PAW_PBE Se 06Sep2000                                                                    
   LULTRA =        F    use ultrasoft PP ?                                                          
   IUNSCR =        1    unscreen: 0-lin 1-nonlin 2-no                                               
   RPACOR =    1.900    partial core radius                                                         
   POMASS =   78.960; ZVAL   =    6.000    mass and valenz                                          
   RCORE  =    2.100    outmost cutoff radius                                                       
   RWIGS  =    2.200; RWIGS  =    1.164    wigner-seitz radius (au A)                               
   ENMAX  =  211.555; ENMIN  =  158.666 eV                                                          
   ICORE  =        3    local potential                                                             
   LCOR   =        T    correct aug charges                                                         
   LPAW   =        T    paw PP                                                                      
   EAUG   =  446.842                                                                                
   DEXC   =    0.000                                                                                
   RMAX   =    2.147    core radius for proj-oper                                                   
   RAUG   =    1.300    factor for augmentation sphere                                              
   RDEP   =    2.177    radius for radial grids                                                     
   RDEPT  =    1.928    core radius for aug-charge                                                  
                                                                                                    
   Atomic configuration                                                                             
   10 entries                                                                                       
     n  l   j            E        occ.                                                              
     1  0  0.50    -12503.4787   2.0000                                                             
     2  0  0.50     -1606.9547   2.0000                                                             
     2  1  1.50     -1413.3140   6.0000                                                             
     3  0  0.50      -213.4885   2.0000                                                             
     3  1  1.50      -152.9538   6.0000                                                             
     3  2  2.50       -53.1221  10.0000                                                             
     4  0  0.50       -17.2865   2.0000                                                             
     4  1  0.50        -6.5110   4.0000                                                             
     4  2  2.50        -6.8029   0.0000                                                             
     4  3  2.50        -6.8029   0.0000                                                             
   Description                                                                                      
     l       E           TYP  RCUT    TYP  RCUT                                                     
     0    -17.2865377     23  2.100                                                                 
     0    -15.3094411     23  2.100                                                                 
     1     -6.5110275     23  2.100                                                                 
     1     -0.0695192     23  2.100                                                                 
     2     -6.8029130     23  2.100                                                                 
     3     -1.3605826      7  2.100                                                                 
  local pseudopotential read in
  partial core-charges read in
  partial kinetic energy density read in
  atomic valenz-charges read in
  non local Contribution for L=            0  read in
    real space projection operators read in
  non local Contribution for L=            0  read in
    real space projection operators read in
  non local Contribution for L=            1  read in
    real space projection operators read in
  non local Contribution for L=            1  read in
    real space projection operators read in
  non local Contribution for L=            2  read in
    real space projection operators read in
    PAW grid and wavefunctions read in
 
   number of l-projection  operators is LMAX  =            5
   number of lm-projection operators is LMMAX =           13
 
  PAW_PBE Ge 05Jan2001                  :
 energy of atom  1       EATOM= -104.9960
 kinetic energy error for atom=    0.0005 (will be added to EATOM!!)
  PAW_PBE Se 06Sep2000                  :
 energy of atom  2       EATOM= -257.1286
 kinetic energy error for atom=    0.0030 (will be added to EATOM!!)
 
 
 POSCAR: Ge Se
  positions in cartesian coordinates
  No initial velocities read in
 exchange correlation table for  LEXCH =        8
   RHO(1)=    0.500       N(1)  =     2000
   RHO(2)=  100.500       N(2)  =     4000
 


--------------------------------------------------------------------------------------------------------


 ion  position               nearest neighbor table
   1  0.099  0.250  0.128-   5 2.58   6 2.63   6 2.63
   2  0.599  0.750  0.372-   6 2.58   5 2.63   5 2.63
   3  0.901  0.750  0.872-   7 2.58   8 2.63   8 2.63
   4  0.401  0.250  0.628-   8 2.58   7 2.63   7 2.63
   5  0.005  0.250  0.357-   1 2.58   2 2.63   2 2.63
   6  0.505  0.750  0.143-   2 2.58   1 2.63   1 2.63
   7  0.995  0.750  0.643-   3 2.58   4 2.63   4 2.63
   8  0.495  0.250  0.857-   4 2.58   3 2.63   3 2.63
 

IMPORTANT INFORMATION: All symmetrisations will be switched off!
NOSYMM: (Re-)initialisation of all symmetry stuff for point group C_1.


----------------------------------------------------------------------------------------

                                     Primitive cell                                     

  volume of cell :     187.1893

  direct lattice vectors                    reciprocal lattice vectors
     4.200000000  0.000000000  0.000000000     0.238095238  0.000000000  0.000000000
     0.000000000  4.000000000  0.000000000     0.000000000  0.250000000  0.000000000
     0.000000000  0.000000000 11.142221000     0.000000000  0.000000000  0.089748713

  length of vectors
     4.200000000  4.000000000 11.142221000     0.238095238  0.250000000  0.089748713

  position of ions in fractional coordinates (direct lattice)
     0.099498292  0.250000000  0.128445345
     0.599498292  0.750000000  0.371554655
     0.900501708  0.750000000  0.871554655
     0.400501708  0.250000000  0.628445345
     0.005003773  0.250000000  0.357078898
     0.505003773  0.750000000  0.142921102
     0.994996227  0.750000000  0.642921102
     0.494996227  0.250000000  0.857078898

  ion indices of the primitive-cell ions
   primitive index   ion index
                 1           1
                 2           2
                 3           3
                 4           4
                 5           5
                 6           6
                 7           7
                 8           8

----------------------------------------------------------------------------------------

 
 
 KPOINTS: KPOINTS created by Atomic Simulation Env

Automatic generation of k-mesh.
 Grid dimensions read from file:
 generate k-points for:    6    6    2

 Generating k-lattice:

  Cartesian coordinates                     Fractional coordinates (reciprocal lattice)
     0.039682540  0.000000000  0.000000000     0.166666667  0.000000000  0.000000000
     0.000000000  0.041666667  0.000000000     0.000000000  0.166666667  0.000000000
     0.000000000  0.000000000  0.044874357     0.000000000  0.000000000  0.500000000

  Length of vectors
     0.039682540  0.041666667  0.044874357

  Shift w.r.t. Gamma in fractional coordinates (k-lattice)
     0.000000000  0.000000000  0.000000000

 
 Subroutine IBZKPT returns following result:
 ===========================================
 
 Found     40 irreducible k-points:
 
 Following reciprocal coordinates:
            Coordinates               Weight
  0.000000  0.000000  0.000000      1.000000
  0.166667  0.000000  0.000000      2.000000
  0.333333  0.000000  0.000000      2.000000
  0.500000  0.000000  0.000000      1.000000
  0.000000  0.166667  0.000000      2.000000
  0.166667  0.166667  0.000000      2.000000
 -0.166667  0.166667  0.000000      2.000000
  0.333333  0.166667  0.000000      2.000000
 -0.333333  0.166667  0.000000      2.000000
  0.500000  0.166667  0.000000      2.000000
  0.000000  0.333333  0.000000      2.000000
  0.166667  0.333333  0.000000      2.000000
 -0.166667  0.333333  0.000000      2.000000
  0.333333  0.333333  0.000000      2.000000
 -0.333333  0.333333  0.000000      2.000000
  0.500000  0.333333  0.000000      2.000000
  0.000000  0.500000  0.000000      1.000000
  0.166667  0.500000  0.000000      2.000000
  0.333333  0.500000  0.000000      2.000000
  0.500000  0.500000  0.000000      1.000000
  0.000000  0.000000  0.500000      1.000000
  0.166667  0.000000  0.500000      2.000000
  0.333333  0.000000  0.500000      2.000000
  0.500000  0.000000  0.500000      1.000000
  0.000000  0.166667  0.500000      2.000000
  0.166667  0.166667  0.500000      2.000000
 -0.166667  0.166667  0.500000      2.000000
  0.333333  0.166667  0.500000      2.000000
 -0.333333  0.166667  0.500000      2.000000
  0.500000  0.166667  0.500000      2.000000
  0.000000  0.333333  0.500000      2.000000
  0.166667  0.333333  0.500000      2.000000
 -0.166667  0.333333  0.500000      2.000000
  0.333333  0.333333  0.500000      2.000000
 -0.333333  0.333333  0.500000      2.000000
  0.500000  0.333333  0.500000      2.000000
  0.000000  0.500000  0.500000      1.000000
  0.166667  0.500000  0.500000      2.000000
  0.333333  0.500000  0.500000      2.000000
  0.500000  0.500000  0.500000      1.000000
 
 Following cartesian coordinates:
            Coordinates               Weight
  0.000000  0.000000  0.000000      1.000000
  0.039683  0.000000  0.000000      2.000000
  0.079365  0.000000  0.000000      2.000000
  0.119048  0.000000  0.000000      1.000000
  0.000000  0.041667  0.000000      2.000000
  0.039683  0.041667  0.000000      2.000000
 -0.039683  0.041667  0.000000      2.000000
  0.079365  0.041667  0.000000      2.000000
 -0.079365  0.041667  0.000000      2.000000
  0.119048  0.041667  0.000000      2.000000
  0.000000  0.083333  0.000000      2.000000
  0.039683  0.083333  0.000000      2.000000
 -0.039683  0.083333  0.000000      2.000000
  0.079365  0.083333  0.000000      2.000000
 -0.079365  0.083333  0.000000      2.000000
  0.119048  0.083333  0.000000      2.000000
  0.000000  0.125000  0.000000      1.000000
  0.039683  0.125000  0.000000      2.000000
  0.079365  0.125000  0.000000      2.000000
  0.119048  0.125000  0.000000      1.000000
  0.000000  0.000000  0.044874      1.000000
  0.039683  0.000000  0.044874      2.000000
  0.079365  0.000000  0.044874      2.000000
  0.119048  0.000000  0.044874      1.000000
  0.000000  0.041667  0.044874      2.000000
  0.039683  0.041667  0.044874      2.000000
 -0.039683  0.041667  0.044874      2.000000
  0.079365  0.041667  0.044874      2.000000
 -0.079365  0.041667  0.044874      2.000000
  0.119048  0.041667  0.044874      2.000000
  0.000000  0.083333  0.044874      2.000000
  0.039683  0.083333  0.044874      2.000000
 -0.039683  0.083333  0.044874      2.000000
  0.079365  0.083333  0.044874      2.000000
 -0.079365  0.083333  0.044874      2.000000
  0.119048  0.083333  0.044874      2.000000
  0.000000  0.125000  0.044874      1.000000
  0.039683  0.125000  0.044874      2.000000
  0.079365  0.125000  0.044874      2.000000
  0.119048  0.125000  0.044874      1.000000
 


--------------------------------------------------------------------------------------------------------




 Dimension of arrays:
   k-points           NKPTS =     40   k-points in BZ     NKDIM =     40   number of bands    NBANDS=     32
   number of dos      NEDOS =    301   number of ions     NIONS =      8
   non local maximal  LDIM  =      5   non local SUM 2l+1 LMDIM =     13
   total plane-waves  NPLWV =  21600
   max r-space proj   IRMAX =      1   max aug-charges    IRDMAX=   6470
   dimension x,y,z NGX =    20 NGY =   20 NGZ =   54
   dimension x,y,z NGXF=    40 NGYF=   40 NGZF=  108
   support grid    NGXF=    40 NGYF=   40 NGZF=  108
   ions per type =               4   4
   NGX,Y,Z   is equivalent  to a cutoff of   7.92,  8.31,  8.06 a.u.
   NGXF,Y,Z  is equivalent  to a cutoff of  15.83, 16.62, 16.11 a.u.

 SYSTEM =  ./                                      
 POSCAR =  Ge Se                                   

 Startparameter for this run:
   NWRITE =      2    write-flag & timer
   PREC   = normal    normal or accurate (medium, high low for compatibility)
   ISTART =      0    job   : 0-new  1-cont  2-samecut
   ICHARG =      2    charge: 1-file 2-atom 10-const
   ISPIN  =      1    spin polarized calculation?
   LNONCOLLINEAR =      F non collinear calculations
   LSORBIT =      F    spin-orbit coupling
   INIWAV =      1    electr: 0-lowe 1-rand  2-diag
   LASPH  =      T    aspherical Exc in radial PAW
 Electronic Relaxation 1
   ENCUT  =  360.0 eV  26.46 Ry    5.14 a.u.   6.50  6.19 17.24*2*pi/ulx,y,z
   ENINI  =  360.0     initial cutoff
   ENAUG  =  446.8 eV  augmentation charge cutoff
   NELM   =    100;   NELMIN=  2; NELMDL= -5     # of ELM steps 
   EDIFF  = 0.1E-05   stopping-criterion for ELM
   LREAL  =      F    real-space projection
   NLSPLINE    = F    spline interpolate recip. space projectors
   LCOMPAT=      F    compatible to vasp.4.4
   GGA_COMPAT  = T    GGA compatible to vasp.4.4-vasp.4.6
   LMAXPAW     = -100 max onsite density
   LMAXMIX     =    4 max onsite mixed and CHGCAR
   VOSKOWN=      0    Vosko Wilk Nusair interpolation
   ROPT   =    0.00000   0.00000
 Ionic relaxation
   EDIFFG = 0.1E-04   stopping-criterion for IOM
   NSW    =      0    number of steps for IOM
   NBLOCK =      1;   KBLOCK =      1    inner block; outer block 
   IBRION =     -1    ionic relax: 0-MD 1-quasi-New 2-CG
   NFREE  =      0    steps in history (QN), initial steepest desc. (CG)
   ISIF   =      2    stress and relaxation
   IWAVPR =     10    prediction:  0-non 1-charg 2-wave 3-comb
   ISYM   =      0    0-nonsym 1-usesym 2-fastsym
   LCORR  =      T    Harris-Foulkes like correction to forces

   POTIM  = 0.5000    time-step for ionic-motion
   TEIN   =    0.0    initial temperature
   TEBEG  =    0.0;   TEEND  =   0.0 temperature during run
   SMASS  =  -3.00    Nose mass-parameter (am)
   estimated Nose-frequenzy (Omega)   =  0.10E-29 period in steps = 0.13E+47 mass=  -0.403E-27a.u.
   SCALEE = 1.0000    scale energy and forces
   NPACO  =    256;   APACO  = 10.0  distance and # of slots for P.C.
   PSTRESS=    0.0 pullay stress

  Mass of Ions in am
   POMASS =  72.61 78.96
  Ionic Valenz
   ZVAL   =   4.00  6.00
  Atomic Wigner-Seitz radii
   RWIGS  =  -1.00 -1.00
  virtual crystal weights 
   VCA    =   1.00  1.00
   NELECT =      40.0000    total number of electrons
   NUPDOWN=      -1.0000    fix difference up-down

 DOS related values:
   EMIN   =  10.00;   EMAX   =-10.00  energy-range for DOS
   EFERMI =   0.00;   METHOD = LEGACY      
   ISMEAR =     0;   SIGMA  =   0.05  broadening in eV -4-tet -1-fermi 0-gaus

 Electronic relaxation 2 (details)
   IALGO  =     38    algorithm
   LDIAG  =      T    sub-space diagonalisation (order eigenvalues)
   LSUBROT=      F    optimize rotation matrix (better conditioning)
   TURBO    =      0    0=normal 1=particle mesh
   IRESTART =      0    0=no restart 2=restart with 2 vectors
   NREBOOT  =      0    no. of reboots
   NMIN     =      0    reboot dimension
   EREF     =   0.00    reference energy to select bands
   IMIX   =      4    mixing-type and parameters
     AMIX     =   0.40;   BMIX     =  1.00
     AMIX_MAG =   1.60;   BMIX_MAG =  1.00
     AMIN     =   0.10
     WC   =   100.;   INIMIX=   1;  MIXPRE=   1;  MAXMIX= -45

 Intra band minimization:
   WEIMIN = 0.0000     energy-eigenvalue tresh-hold
   EBREAK =  0.78E-08  absolut break condition
   DEPER  =   0.30     relativ break condition  

   TIME   =   0.40     timestep for ELM

  volume/ion in A,a.u.               =      23.40       157.90
  Fermi-wavevector in a.u.,A,eV,Ry     =   0.978741  1.849552 13.033484  0.957934
  Thomas-Fermi vector in A             =   2.109540
 
 Write flags
   LWAVE        =      F    write WAVECAR
   LDOWNSAMPLE  =      F    k-point downsampling of WAVECAR
   LCHARG       =      F    write CHGCAR
   LVTOT        =      F    write LOCPOT, total local potential
   LVHAR        =      F    write LOCPOT, Hartree potential only
   LELF         =      F    write electronic localiz. function (ELF)
   LORBIT       =      0    0 simple, 1 ext, 2 COOP (PROOUT), +10 PAW based schemes


 Dipole corrections
   LMONO  =      F    monopole corrections only (constant potential shift)
   LDIPOL =      F    correct potential (dipole corrections)
   IDIPOL =      0    1-x, 2-y, 3-z, 4-all directions 
   EPSILON=  1.0000000 bulk dielectric constant

 Exchange correlation treatment:
   GGA     =    PE    GGA type
   LEXCH   =     8    internal setting for exchange type
   LIBXC   =     F    Libxc                    
   VOSKOWN =     0    Vosko Wilk Nusair interpolation
   LHFCALC =     F    Hartree Fock is set to
   LHFONE  =     F    Hartree Fock one center treatment
   AEXX    =    0.0000 exact exchange contribution

 Linear response parameters
   LEPSILON=     F    determine dielectric tensor
   LRPA    =     F    only Hartree local field effects (RPA)
   LNABLA  =     F    use nabla operator in PAW spheres
   LVEL    =     F    velocity operator in full k-point grid
   CSHIFT  =0.1000    complex shift for real part using Kramers Kronig
   OMEGAMAX=  -1.0    maximum frequency
   DEG_THRESHOLD= 0.2000000E-02 threshold for treating states as degnerate
   RTIME   =   -0.100 relaxation time in fs
  (WPLASMAI=    0.000 imaginary part of plasma frequency in eV, 0.658/RTIME)
   DFIELD  = 0.0000000 0.0000000 0.0000000 field for delta impulse in time
 
  Optional k-point grid parameters
   LKPOINTS_OPT  =     F    use optional k-point grid
   KPOINTS_OPT_MODE=     1    mode for optional k-point grid
 
 Orbital magnetization related:
   ORBITALMAG=     F  switch on orbital magnetization
   LCHIMAG   =     F  perturbation theory with respect to B field
   DQ        =  0.001000  dq finite difference perturbation B field
   LLRAUG    =     F  two centre corrections for induced B field
   LBONE     =     F  B-component reconstruction in AE one-centre
   LVGVCALC  =     T  calculate vGv susceptibility
   LVGVAPPL  =     F  apply vGv susceptibility instead of pGv for G=0

 Random number generation:
   RANDOM_GENERATOR = DEFAULT
   PCG_SEED         = not used


--------------------------------------------------------------------------------------------------------


 Static calculation
 charge density and potential will be updated during run
 non-spin polarized calculation
 Variant of blocked Davidson
 Davidson routine will perform the subspace rotation
 perform sub-space diagonalisation
    after iterative eigenvector-optimisation
 modified Broyden-mixing scheme, WC =      100.0
 initial mixing is a Kerker type mixing with AMIX =  0.4000 and BMIX =      1.0000
 Hartree-type preconditioning will be used
 using additional bands            12
 reciprocal scheme for non local part
 use partial core corrections
 calculate Harris-corrections to forces 
   (improved forces if not selfconsistent)
 use gradient corrections 
 use of overlap-Matrix (Vanderbilt PP)
 Gauss-broadening in eV      SIGMA  =   0.05


--------------------------------------------------------------------------------------------------------


  energy-cutoff  :      360.00
  volume of cell :      187.19
      direct lattice vectors                 reciprocal lattice vectors
     4.200000000  0.000000000  0.000000000     0.238095238  0.000000000  0.000000000
     0.000000000  4.000000000  0.000000000     0.000000000  0.250000000  0.000000000
     0.000000000  0.000000000 11.142221000     0.000000000  0.000000000  0.089748713

  length of vectors
     4.200000000  4.000000000 11.142221000     0.238095238  0.250000000  0.089748713


 
 k-points in units of 2pi/SCALE and weight: KPOINTS created by Atomic Simulation Env
   0.00000000  0.00000000  0.00000000       0.014
   0.03968254  0.00000000  0.00000000       0.028
   0.07936508  0.00000000  0.00000000       0.028
   0.11904762  0.00000000  0.00000000       0.014
   0.00000000  0.04166667  0.00000000       0.028
   0.03968254  0.04166667  0.00000000       0.028
  -0.03968254  0.04166667  0.00000000       0.028
   0.07936508  0.04166667  0.00000000       0.028
  -0.07936508  0.04166667  0.00000000       0.028
   0.11904762  0.04166667  0.00000000       0.028
   0.00000000  0.08333333  0.00000000       0.028
   0.03968254  0.08333333  0.00000000       0.028
  -0.03968254  0.08333333  0.00000000       0.028
   0.07936508  0.08333333  0.00000000       0.028
  -0.07936508  0.08333333  0.00000000       0.028
   0.11904762  0.08333333  0.00000000       0.028
   0.00000000  0.12500000  0.00000000       0.014
   0.03968254  0.12500000  0.00000000       0.028
   0.07936508  0.12500000  0.00000000       0.028
   0.11904762  0.12500000  0.00000000       0.014
   0.00000000  0.00000000  0.04487436       0.014
   0.03968254  0.00000000  0.04487436       0.028
   0.07936508  0.00000000  0.04487436       0.028
   0.11904762  0.00000000  0.04487436       0.014
   0.00000000  0.04166667  0.04487436       0.028
   0.03968254  0.04166667  0.04487436       0.028
  -0.03968254  0.04166667  0.04487436       0.028
   0.07936508  0.04166667  0.04487436       0.028
  -0.07936508  0.04166667  0.04487436       0.028
   0.11904762  0.04166667  0.04487436       0.028
   0.00000000  0.08333333  0.04487436       0.028
   0.03968254  0.08333333  0.04487436       0.028
  -0.03968254  0.08333333  0.04487436       0.028
   0.07936508  0.08333333  0.04487436       0.028
  -0.07936508  0.08333333  0.04487436       0.028
   0.11904762  0.08333333  0.04487436       0.028
   0.00000000  0.12500000  0.04487436       0.014
   0.03968254  0.12500000  0.04487436       0.028
   0.07936508  0.12500000  0.04487436       0.028
   0.11904762  0.12500000  0.04487436       0.014
 
 k-points in reciprocal lattice and weights: KPOINTS created by Atomic Simulation Env
   0.00000000  0.00000000  0.00000000       0.014
   0.16666667  0.00000000  0.00000000       0.028
   0.33333333  0.00000000  0.00000000       0.028
   0.50000000  0.00000000  0.00000000       0.014
   0.00000000  0.16666667  0.00000000       0.028
   0.16666667  0.16666667  0.00000000       0.028
  -0.16666667  0.16666667  0.00000000       0.028
   0.33333333  0.16666667  0.00000000       0.028
  -0.33333333  0.16666667  0.00000000       0.028
   0.50000000  0.16666667  0.00000000       0.028
   0.00000000  0.33333333  0.00000000       0.028
   0.16666667  0.33333333  0.00000000       0.028
  -0.16666667  0.33333333  0.00000000       0.028
   0.33333333  0.33333333  0.00000000       0.028
  -0.33333333  0.33333333  0.00000000       0.028
   0.50000000  0.33333333  0.00000000       0.028
   0.00000000  0.50000000  0.00000000       0.014
   0.16666667  0.50000000  0.00000000       0.028
   0.33333333  0.50000000  0.00000000       0.028
   0.50000000  0.50000000  0.00000000       0.014
   0.00000000  0.00000000  0.50000000       0.014
   0.16666667  0.00000000  0.50000000       0.028
   0.33333333  0.00000000  0.50000000       0.028
   0.50000000  0.00000000  0.50000000       0.014
   0.00000000  0.16666667  0.50000000       0.028
   0.16666667  0.16666667  0.50000000       0.028
  -0.16666667  0.16666667  0.50000000       0.028
   0.33333333  0.16666667  0.50000000       0.028
  -0.33333333  0.16666667  0.50000000       0.028
   0.50000000  0.16666667  0.50000000       0.028
   0.00000000  0.33333333  0.50000000       0.028
   0.16666667  0.33333333  0.50000000       0.028
  -0.16666667  0.33333333  0.50000000       0.028
   0.33333333  0.33333333  0.50000000       0.028
  -0.33333333  0.33333333  0.50000000       0.028
   0.50000000  0.33333333  0.50000000       0.028
   0.00000000  0.50000000  0.50000000       0.014
   0.16666667  0.50000000  0.50000000       0.028
   0.33333333  0.50000000  0.50000000       0.028
   0.50000000  0.50000000  0.50000000       0.014
 
 position of ions in fractional coordinates (direct lattice) 
   0.09949829  0.25000000  0.12844534
   0.59949829  0.75000000  0.37155466
   0.90050171  0.75000000  0.87155466
   0.40050171  0.25000000  0.62844534
   0.00500377  0.25000000  0.35707890
   0.50500377  0.75000000  0.14292110
   0.99499623  0.75000000  0.64292110
   0.49499623  0.25000000  0.85707890
 
 position of ions in cartesian coordinates  (Angst):
   0.41789283  1.00000000  1.43116642
   2.51789283  3.00000000  4.13994408
   3.78210717  3.00000000  9.71105458
   1.68210717  1.00000000  7.00227692
   0.02101585  1.00000000  3.97865199
   2.12101585  3.00000000  1.59245851
   4.17898415  3.00000000  7.16356901
   2.07898415  1.00000000  9.54976249
 


--------------------------------------------------------------------------------------------------------


 k-point   1 :   0.0000 0.0000 0.0000  plane waves:    2923
 k-point   2 :   0.1667 0.0000 0.0000  plane waves:    2899
 k-point   3 :   0.3333 0.0000 0.0000  plane waves:    2905
 k-point   4 :   0.5000 0.0000 0.0000  plane waves:    2916
 k-point   5 :   0.0000 0.1667 0.0000  plane waves:    2923
 k-point   6 :   0.1667 0.1667 0.0000  plane waves:    2896
 k-point   7 :  -0.1667 0.1667 0.0000  plane waves:    2896
 k-point   8 :   0.3333 0.1667 0.0000  plane waves:    2900
 k-point   9 :  -0.3333 0.1667 0.0000  plane waves:    2900
 k-point  10 :   0.5000 0.1667 0.0000  plane waves:    2882
 k-point  11 :   0.0000 0.3333 0.0000  plane waves:    2920
 k-point  12 :   0.1667 0.3333 0.0000  plane waves:    2914
 k-point  13 :  -0.1667 0.3333 0.0000  plane waves:    2914
 k-point  14 :   0.3333 0.3333 0.0000  plane waves:    2896
 k-point  15 :  -0.3333 0.3333 0.0000  plane waves:    2896
 k-point  16 :   0.5000 0.3333 0.0000  plane waves:    2878
 k-point  17 :   0.0000 0.5000 0.0000  plane waves:    2892
 k-point  18 :   0.1667 0.5000 0.0000  plane waves:    2932
 k-point  19 :   0.3333 0.5000 0.0000  plane waves:    2902
 k-point  20 :   0.5000 0.5000 0.0000  plane waves:    2872
 k-point  21 :   0.0000 0.0000 0.5000  plane waves:    2886
 k-point  22 :   0.1667 0.0000 0.5000  plane waves:    2898
 k-point  23 :   0.3333 0.0000 0.5000  plane waves:    2912
 k-point  24 :   0.5000 0.0000 0.5000  plane waves:    2904
 k-point  25 :   0.0000 0.1667 0.5000  plane waves:    2902
 k-point  26 :   0.1667 0.1667 0.5000  plane waves:    2902
 k-point  27 :  -0.1667 0.1667 0.5000  plane waves:    2902
 k-point  28 :   0.3333 0.1667 0.5000  plane waves:    2902
 k-point  29 :  -0.3333 0.1667 0.5000  plane waves:    2902
 k-point  30 :   0.5000 0.1667 0.5000  plane waves:    2900
 k-point  31 :   0.0000 0.3333 0.5000  plane waves:    2916
 k-point  32 :   0.1667 0.3333 0.5000  plane waves:    2914
 k-point  33 :  -0.1667 0.3333 0.5000  plane waves:    2914
 k-point  34 :   0.3333 0.3333 0.5000  plane waves:    2894
 k-point  35 :  -0.3333 0.3333 0.5000  plane waves:    2894
 k-point  36 :   0.5000 0.3333 0.5000  plane waves:    2868
 k-point  37 :   0.0000 0.5000 0.5000  plane waves:    2928
 k-point  38 :   0.1667 0.5000 0.5000  plane waves:    2904
 k-point  39 :   0.3333 0.5000 0.5000  plane waves:    2916
 k-point  40 :   0.5000 0.5000 0.5000  plane waves:    2880

 maximum and minimum number of plane-waves per node :       743      708

 maximum number of plane-waves:      2932
 maximum index in each direction: 
   IXMAX=    6   IYMAX=    6   IZMAX=   17
   IXMIN=   -6   IYMIN=   -6   IZMIN=  -17


 parallel 3D FFT for wavefunctions:
    minimum data exchange during FFTs selected (reduces bandwidth)
 parallel 3D FFT for charge:
    minimum data exchange during FFTs selected (reduces bandwidth)


 total amount of memory used by VASP MPI-rank0    38152. kBytes
=======================================================================

   base      :      30000. kBytes
   nonl-proj :       6352. kBytes
   fftplans  :        319. kBytes
   grid      :        462. kBytes
   one-center:         16. kBytes
   wavefun   :       1003. kBytes
 
     INWAV:  cpu time      0.0000: real time      0.0001
 Broyden mixing: mesh for mixing (old mesh)
   NGX = 13   NGY = 13   NGZ = 35
  (NGX  = 40   NGY  = 40   NGZ  =108)
  gives a total of   5915 points

 initial charge density was supplied:
 charge density of overlapping atoms calculated
 number of electron      40.0000000 magnetization 
 keeping initial charge density in first step


--------------------------------------------------------------------------------------------------------


 Maximum index for augmentation-charges           355 (set IRDMAX)


--------------------------------------------------------------------------------------------------------


 First call to EWALD:  gamma=   0.310
 Maximum number of real-space cells 4x 4x 2
 Maximum number of reciprocal cells 2x 2x 5

    FEWALD:  cpu time      0.0008: real time      0.0008


--------------------------------------- Ionic step        1  -------------------------------------------




--------------------------------------- Iteration      1(   1)  ---------------------------------------


    POTLOK:  cpu time      0.0058: real time      0.0062
    SETDIJ:  cpu time      0.1387: real time      0.1392
     EDDAV:  cpu time      0.2741: real time      0.2771
       DOS:  cpu time      0.0011: real time      0.0011
    --------------------------------------------
      LOOP:  cpu time      0.4196: real time      0.4236

 eigenvalue-minimisations  :  2560
 total energy-change (2. order) : 0.1301389E+03  (-0.1296574E+04)
 number of electron      40.0000000 magnetization 
 augmentation part       40.0000000 magnetization 

 Free energy of the ion-electron system (eV)
  ---------------------------------------------------
  alpha Z        PSCENC =        90.52036778
  Ewald energy   TEWEN  =     -1444.25627583
  -Hartree energ DENC   =      -117.16660605
  -exchange      EXHF   =         0.00000000
  -V(xc)+E(xc)   XCENC  =       -33.09304607
  PAW double counting   =      1193.78262552    -1080.73714043
  entropy T*S    EENTRO =        -0.00229995
  eigenvalues    EBANDS =        72.60661995
  atomic energy  EATOM  =      1448.48460880
  Solvation  Ediel_sol  =         0.00000000
  ---------------------------------------------------
  free energy    TOTEN  =       130.13885372 eV

  energy without entropy =      130.14115367  energy(sigma->0) =      130.14000370


--------------------------------------------------------------------------------------------------------




--------------------------------------- Iteration      1(   2)  ---------------------------------------


     EDDAV:  cpu time      0.3363: real time      0.3398
       DOS:  cpu time      0.0007: real time      0.0007
    --------------------------------------------
      LOOP:  cpu time      0.3370: real time      0.3406

 eigenvalue-minimisations  :  3776
 total energy-change (2. order) :-0.1558865E+03  (-0.1513783E+03)
 number of electron      40.0000000 magnetization 
 augmentation part       40.0000000 magnetization 

 Free energy of the ion-electron system (eV)
  ---------------------------------------------------
  alpha Z        PSCENC =        90.52036778
  Ewald energy   TEWEN  =     -1444.25627583
  -Hartree energ DENC   =      -117.16660605
  -exchange      EXHF   =         0.00000000
  -V(xc)+E(xc)   XCENC  =       -33.09304607
  PAW double counting   =      1193.78262552    -1080.73714043
  entropy T*S    EENTRO =        -0.00000000
  eigenvalues    EBANDS =       -83.28216964
  atomic energy  EATOM  =      1448.48460880
  Solvation  Ediel_sol  =         0.00000000
  ---------------------------------------------------
  free energy    TOTEN  =       -25.74763591 eV

  energy without entropy =      -25.74763591  energy(sigma->0) =      -25.74763591


--------------------------------------------------------------------------------------------------------




--------------------------------------- Iteration      1(   3)  ---------------------------------------


     EDDAV:  cpu time      0.2872: real time      0.2902
       DOS:  cpu time      0.0005: real time      0.0005
    --------------------------------------------
      LOOP:  cpu time      0.2878: real time      0.2908

 eigenvalue-minimisations  :  2976
 total energy-change (2. order) :-0.8353505E+01  (-0.8337679E+01)
 number of electron      40.0000000 magnetization 
 augmentation part       40.0000000 magnetization 

 Free energy of the ion-electron system (eV)
  ---------------------------------------------------
  alpha Z        PSCENC =        90.52036778
  Ewald energy   TEWEN  =     -1444.25627583
  -Hartree energ DENC   =      -117.16660605
  -exchange      EXHF   =         0.00000000
  -V(xc)+E(xc)   XCENC  =       -33.09304607
  PAW double counting   =      1193.78262552    -1080.73714043
  entropy T*S    EENTRO =        -0.00000000
  eigenvalues    EBANDS =       -91.63567471
  atomic energy  EATOM  =      1448.48460880
  Solvation  Ediel_sol  =         0.00000000
  ---------------------------------------------------
  free energy    TOTEN  =       -34.10114098 eV

  energy without entropy =      -34.10114098  energy(sigma->0) =      -34.10114098


--------------------------------------------------------------------------------------------------------




--------------------------------------- Iteration      1(   4)  ---------------------------------------


     EDDAV:  cpu time      0.3218: real time      0.3251
       DOS:  cpu time      0.0005: real time      0.0005
    --------------------------------------------
      LOOP:  cpu time      0.3223: real time      0.3256

 eigenvalue-minimisations  :  3376
 total energy-change (2. order) :-0.5631651E-01  (-0.5630341E-01)
 number of electron      40.0000000 magnetization 
 augmentation part       40.0000000 magnetization 

 Free energy of the ion-electron system (eV)
  ---------------------------------------------------
  alpha Z        PSCENC =        90.52036778
  Ewald energy   TEWEN  =     -1444.25627583
  -Hartree energ DENC   =      -117.16660605
  -exchange      EXHF   =         0.00000000
  -V(xc)+E(xc)   XCENC  =       -33.09304607
  PAW double counting   =      1193.78262552    -1080.73714043
  entropy T*S    EENTRO =        -0.00000000
  eigenvalues    EBANDS =       -91.69199121
  atomic energy  EATOM  =      1448.48460880
  Solvation  Ediel_sol  =         0.00000000
  ---------------------------------------------------
  free energy    TOTEN  =       -34.15745749 eV

  energy without entropy =      -34.15745749  energy(sigma->0) =      -34.15745749


--------------------------------------------------------------------------------------------------------




--------------------------------------- Iteration      1(   5)  ---------------------------------------


     EDDAV:  cpu time      0.2885: real time      0.2918
       DOS:  cpu time      0.0005: real time      0.0006
    CHARGE:  cpu time      0.0046: real time      0.0047
    MIXING:  cpu time      0.0008: real time      0.0008
    --------------------------------------------
      LOOP:  cpu time      0.2945: real time      0.2978

 eigenvalue-minimisations  :  3040
 total energy-change (2. order) :-0.3236974E-03  (-0.3236944E-03)
 number of electron      40.0000015 magnetization 
 augmentation part       -7.4116972 magnetization 

 Broyden mixing:
  rms(total) = 0.64526E+00    rms(broyden)= 0.64525E+00
  rms(prec ) = 0.72541E+00
  weight for this iteration     100.00

 Free energy of the ion-electron system (eV)
  ---------------------------------------------------
  alpha Z        PSCENC =        90.52036778
  Ewald energy   TEWEN  =     -1444.25627583
  -Hartree energ DENC   =      -117.16660605
  -exchange      EXHF   =         0.00000000
  -V(xc)+E(xc)   XCENC  =       -33.09304607
  PAW double counting   =      1193.78262552    -1080.73714043
  entropy T*S    EENTRO =        -0.00000000
  eigenvalues    EBANDS =       -91.69231491
  atomic energy  EATOM  =      1448.48460880
  Solvation  Ediel_sol  =         0.00000000
  ---------------------------------------------------
  free energy    TOTEN  =       -34.15778119 eV

  energy without entropy =      -34.15778119  energy(sigma->0) =      -34.15778119


--------------------------------------------------------------------------------------------------------




--------------------------------------- Iteration      1(   6)  ---------------------------------------


    POTLOK:  cpu time      0.0054: real time      0.0056
    SETDIJ:  cpu time      0.1383: real time      0.1390
     EDDAV:  cpu time      0.3081: real time      0.3128
       DOS:  cpu time      0.0009: real time      0.0009
    CHARGE:  cpu time      0.0044: real time      0.0044
    MIXING:  cpu time      0.0009: real time      0.0009
    --------------------------------------------
      LOOP:  cpu time      0.4580: real time      0.4636

 eigenvalue-minimisations  :  3184
 total energy-change (2. order) : 0.3806454E+00  (-0.7607092E-01)
 number of electron      40.0000014 magnetization 
 augmentation part       -7.3582641 magnetization 

 Broyden mixing:
  rms(total) = 0.40391E+00    rms(broyden)= 0.40391E+00
  rms(prec ) = 0.42336E+00
  weight for this iteration     100.00

 eigenvalues of (default mixing * dielectric matrix)
  average eigenvalue GAMMA=   2.2009
  2.2009

 Free energy of the ion-electron system (eV)
  ---------------------------------------------------
  alpha Z        PSCENC =        90.52036778
  Ewald energy   TEWEN  =     -1444.25627583
  -Hartree energ DENC   =      -122.66938487
  -exchange      EXHF   =         0.00000000
  -V(xc)+E(xc)   XCENC  =       -32.52028037
  PAW double counting   =      1456.30685267    -1343.57363036
  entropy T*S    EENTRO =        -0.00000000
  eigenvalues    EBANDS =       -86.06939363
  atomic energy  EATOM  =      1448.48460880
  Solvation  Ediel_sol  =         0.00000000
  ---------------------------------------------------
  free energy    TOTEN  =       -33.77713580 eV

  energy without entropy =      -33.77713580  energy(sigma->0) =      -33.77713580


--------------------------------------------------------------------------------------------------------




--------------------------------------- Iteration      1(   7)  ---------------------------------------


    POTLOK:  cpu time      0.0058: real time      0.0060
    SETDIJ:  cpu time      0.1413: real time      0.1421
     EDDAV:  cpu time      0.3128: real time      0.3165
       DOS:  cpu time      0.0006: real time      0.0006
    CHARGE:  cpu time      0.0046: real time      0.0046
    MIXING:  cpu time      0.0006: real time      0.0005
    --------------------------------------------
      LOOP:  cpu time      0.4656: real time      0.4703

 eigenvalue-minimisations  :  3216
 total energy-change (2. order) : 0.7326447E-02  (-0.2393926E-01)
 number of electron      40.0000014 magnetization 
 augmentation part       -7.3462122 magnetization 

 Broyden mixing:
  rms(total) = 0.12680E+00    rms(broyden)= 0.12680E+00
  rms(prec ) = 0.13508E+00
  weight for this iteration     100.00

 eigenvalues of (default mixing * dielectric matrix)
  average eigenvalue GAMMA=   1.8079
  1.2323  2.3835

 Free energy of the ion-electron system (eV)
  ---------------------------------------------------
  alpha Z        PSCENC =        90.52036778
  Ewald energy   TEWEN  =     -1444.25627583
  -Hartree energ DENC   =      -125.07857048
  -exchange      EXHF   =         0.00000000
  -V(xc)+E(xc)   XCENC  =       -32.07831221
  PAW double counting   =      1784.81970347    -1672.32454174
  entropy T*S    EENTRO =        -0.00000000
  eigenvalues    EBANDS =       -83.85678915
  atomic energy  EATOM  =      1448.48460880
  Solvation  Ediel_sol  =         0.00000000
  ---------------------------------------------------
  free energy    TOTEN  =       -33.76980936 eV

  energy without entropy =      -33.76980936  energy(sigma->0) =      -33.76980936


--------------------------------------------------------------------------------------------------------




--------------------------------------- Iteration      1(   8)  ---------------------------------------


    POTLOK:  cpu time      0.0052: real time      0.0054
    SETDIJ:  cpu time      0.1374: real time      0.1386
     EDDAV:  cpu time      0.2894: real time      0.2922
       DOS:  cpu time      0.0009: real time      0.0009
    CHARGE:  cpu time      0.0042: real time      0.0042
    MIXING:  cpu time      0.0005: real time      0.0005
    --------------------------------------------
      LOOP:  cpu time      0.4377: real time      0.4419

 eigenvalue-minimisations  :  3088
 total energy-change (2. order) : 0.2121950E-02  (-0.2673099E-02)
 number of electron      40.0000014 magnetization 
 augmentation part       -7.3566222 magnetization 

 Broyden mixing:
  rms(total) = 0.16988E-01    rms(broyden)= 0.16988E-01
  rms(prec ) = 0.20696E-01
  weight for this iteration     100.00

 eigenvalues of (default mixing * dielectric matrix)
  average eigenvalue GAMMA=   1.7099
  2.5175  1.3062  1.3062

 Free energy of the ion-electron system (eV)
  ---------------------------------------------------
  alpha Z        PSCENC =        90.52036778
  Ewald energy   TEWEN  =     -1444.25627583
  -Hartree energ DENC   =      -124.87146422
  -exchange      EXHF   =         0.00000000
  -V(xc)+E(xc)   XCENC  =       -31.97200002
  PAW double counting   =      1917.47429754    -1805.03362027
  entropy T*S    EENTRO =        -0.00000000
  eigenvalues    EBANDS =       -84.11360119
  atomic energy  EATOM  =      1448.48460880
  Solvation  Ediel_sol  =         0.00000000
  ---------------------------------------------------
  free energy    TOTEN  =       -33.76768741 eV

  energy without entropy =      -33.76768741  energy(sigma->0) =      -33.76768741


--------------------------------------------------------------------------------------------------------




--------------------------------------- Iteration      1(   9)  ---------------------------------------


    POTLOK:  cpu time      0.0051: real time      0.0053
    SETDIJ:  cpu time      0.1379: real time      0.1387
     EDDAV:  cpu time      0.2893: real time      0.2922
       DOS:  cpu time      0.0006: real time      0.0006
    CHARGE:  cpu time      0.0042: real time      0.0043
    MIXING:  cpu time      0.0005: real time      0.0005
    --------------------------------------------
      LOOP:  cpu time      0.4376: real time      0.4415

 eigenvalue-minimisations  :  3104
 total energy-change (2. order) :-0.1774554E-03  (-0.3355645E-03)
 number of electron      40.0000014 magnetization 
 augmentation part       -7.3546579 magnetization 

 Broyden mixing:
  rms(total) = 0.63224E-02    rms(broyden)= 0.63224E-02
  rms(prec ) = 0.70290E-02
  weight for this iteration     100.00

 eigenvalues of (default mixing * dielectric matrix)
  average eigenvalue GAMMA=   1.7551
  2.3270  2.3270  1.1832  1.1832

 Free energy of the ion-electron system (eV)
  ---------------------------------------------------
  alpha Z        PSCENC =        90.52036778
  Ewald energy   TEWEN  =     -1444.25627583
  -Hartree energ DENC   =      -125.23023766
  -exchange      EXHF   =         0.00000000
  -V(xc)+E(xc)   XCENC  =       -31.93304580
  PAW double counting   =      1931.33809860    -1818.90902526
  entropy T*S    EENTRO =        -0.00000000
  eigenvalues    EBANDS =       -83.78235550
  atomic energy  EATOM  =      1448.48460880
  Solvation  Ediel_sol  =         0.00000000
  ---------------------------------------------------
  free energy    TOTEN  =       -33.76786486 eV

  energy without entropy =      -33.76786486  energy(sigma->0) =      -33.76786486


--------------------------------------------------------------------------------------------------------




--------------------------------------- Iteration      1(  10)  ---------------------------------------


    POTLOK:  cpu time      0.0053: real time      0.0055
    SETDIJ:  cpu time      0.1375: real time      0.1383
     EDDAV:  cpu time      0.2202: real time      0.2212
       DOS:  cpu time      0.0003: real time      0.0003
    CHARGE:  cpu time      0.0034: real time      0.0034
    MIXING:  cpu time      0.0003: real time      0.0003
    --------------------------------------------
      LOOP:  cpu time      0.3669: real time      0.3691

 eigenvalue-minimisations  :  3056
 total energy-change (2. order) :-0.4284307E-04  (-0.2369030E-04)
 number of electron      40.0000014 magnetization 
 augmentation part       -7.3546666 magnetization 

 Broyden mixing:
  rms(total) = 0.23713E-02    rms(broyden)= 0.23713E-02
  rms(prec ) = 0.27889E-02
  weight for this iteration     100.00

 eigenvalues of (default mixing * dielectric matrix)
  average eigenvalue GAMMA=   1.7630
  2.7643  2.4222  1.2101  1.2093  1.2093

 Free energy of the ion-electron system (eV)
  ---------------------------------------------------
  alpha Z        PSCENC =        90.52036778
  Ewald energy   TEWEN  =     -1444.25627583
  -Hartree energ DENC   =      -125.23974794
  -exchange      EXHF   =         0.00000000
  -V(xc)+E(xc)   XCENC  =       -31.93298457
  PAW double counting   =      1924.02918320    -1811.59471903
  entropy T*S    EENTRO =        -0.00000000
  eigenvalues    EBANDS =       -83.77834012
  atomic energy  EATOM  =      1448.48460880
  Solvation  Ediel_sol  =         0.00000000
  ---------------------------------------------------
  free energy    TOTEN  =       -33.76790770 eV

  energy without entropy =      -33.76790770  energy(sigma->0) =      -33.76790770


--------------------------------------------------------------------------------------------------------




--------------------------------------- Iteration      1(  11)  ---------------------------------------


    POTLOK:  cpu time      0.0035: real time      0.0037
    SETDIJ:  cpu time      0.1375: real time      0.1379
     EDDAV:  cpu time      0.1990: real time      0.2000
       DOS:  cpu time      0.0003: real time      0.0003
    CHARGE:  cpu time      0.0034: real time      0.0034
    MIXING:  cpu time      0.0003: real time      0.0003
    --------------------------------------------
      LOOP:  cpu time      0.3441: real time      0.3457

 eigenvalue-minimisations  :  3088
 total energy-change (2. order) :-0.1893590E-04  (-0.3037314E-05)
 number of electron      40.0000014 magnetization 
 augmentation part       -7.3548740 magnetization 

 Broyden mixing:
  rms(total) = 0.11730E-02    rms(broyden)= 0.11730E-02
  rms(prec ) = 0.12864E-02
  weight for this iteration     100.00

 eigenvalues of (default mixing * dielectric matrix)
  average eigenvalue GAMMA=   1.7319
  2.5110  2.5110  2.1114  1.1709  1.1709  0.9162

 Free energy of the ion-electron system (eV)
  ---------------------------------------------------
  alpha Z        PSCENC =        90.52036778
  Ewald energy   TEWEN  =     -1444.25627583
  -Hartree energ DENC   =      -125.26067765
  -exchange      EXHF   =         0.00000000
  -V(xc)+E(xc)   XCENC  =       -31.92751368
  PAW double counting   =      1925.95565416    -1813.52176303
  entropy T*S    EENTRO =        -0.00000000
  eigenvalues    EBANDS =       -83.76232720
  atomic energy  EATOM  =      1448.48460880
  Solvation  Ediel_sol  =         0.00000000
  ---------------------------------------------------
  free energy    TOTEN  =       -33.76792664 eV

  energy without entropy =      -33.76792664  energy(sigma->0) =      -33.76792664


--------------------------------------------------------------------------------------------------------




--------------------------------------- Iteration      1(  12)  ---------------------------------------


    POTLOK:  cpu time      0.0036: real time      0.0037
    SETDIJ:  cpu time      0.1167: real time      0.1171
     EDDAV:  cpu time      0.1908: real time      0.1917
       DOS:  cpu time      0.0003: real time      0.0003
    --------------------------------------------
      LOOP:  cpu time      0.3114: real time      0.3129

 eigenvalue-minimisations  :  3152
 total energy-change (2. order) : 0.4047689E-06  (-0.4293456E-06)
 number of electron      40.0000014 magnetization 
 augmentation part       -7.3548740 magnetization 

 Free energy of the ion-electron system (eV)
  ---------------------------------------------------
  alpha Z        PSCENC =        90.52036778
  Ewald energy   TEWEN  =     -1444.25627583
  -Hartree energ DENC   =      -125.27002762
  -exchange      EXHF   =         0.00000000
  -V(xc)+E(xc)   XCENC  =       -31.92683153
  PAW double counting   =      1925.24297304    -1812.80878374
  entropy T*S    EENTRO =        -0.00000000
  eigenvalues    EBANDS =       -83.75395714
  atomic energy  EATOM  =      1448.48460880
  Solvation  Ediel_sol  =         0.00000000
  ---------------------------------------------------
  free energy    TOTEN  =       -33.76792624 eV

  energy without entropy =      -33.76792624  energy(sigma->0) =      -33.76792624


--------------------------------------------------------------------------------------------------------




 average (electrostatic) potential at core
  the test charge radii are     1.1631  1.0808
  (the norm of the test charge is              1.0000)
       1 -33.2280       2 -33.2280       3 -33.2280       4 -33.2280       5 -54.6896
       6 -54.6897       7 -54.6896       8 -54.6896
 
 
 
 E-fermi :   3.8154     XC(G=0):  -9.4759     alpha+bet : -9.0179

 Fermi energy:         3.8153909818

 k-point     1 :       0.0000    0.0000    0.0000
  band No.  band energies     occupation 
      1     -10.7677      2.00000
      2     -10.4200      2.00000
      3      -9.4521      2.00000
      4      -8.9075      2.00000
      5      -4.1810      2.00000
      6      -3.6356      2.00000
      7      -2.0208      2.00000
      8      -2.0070      2.00000
      9      -1.7824      2.00000
     10      -0.0822      2.00000
     11       0.1884      2.00000
     12       0.1891      2.00000
     13       0.3452      2.00000
     14       0.4138      2.00000
     15       1.2064      2.00000
     16       1.8774      2.00000
     17       1.9221      2.00000
     18       2.2365      2.00000
     19       2.8731      2.00000
     20       3.1727      2.00000
     21       4.2126      0.00000
     22       6.2818      0.00000
     23       6.4103      0.00000
     24       6.4138      0.00000
     25       6.7909      0.00000
     26       7.3148      0.00000
     27       7.3537      0.00000
     28       7.9329      0.00000
     29       8.5754      0.00000
     30       8.7423      0.00000
     31       9.1159      0.00000
     32       9.5244      0.00000

 k-point     2 :       0.1667    0.0000    0.0000
  band No.  band energies     occupation 
      1     -10.6235      2.00000
      2     -10.2830      2.00000
      3      -9.4205      2.00000
      4      -8.9234      2.00000
      5      -4.6059      2.00000
      6      -3.8679      2.00000
      7      -2.8945      2.00000
      8      -2.4276      2.00000
      9      -1.5524      2.00000
     10       0.1044      2.00000
     11       0.3354      2.00000
     12       0.5223      2.00000
     13       0.7163      2.00000
     14       0.9223      2.00000
     15       1.3177      2.00000
     16       1.9396      2.00000
     17       2.1811      2.00000
     18       2.6134      2.00000
     19       2.7442      2.00000
     20       3.1142      2.00000
     21       4.1798      0.00000
     22       5.7474      0.00000
     23       6.2168      0.00000
     24       6.3859      0.00000
     25       6.5053      0.00000
     26       6.7662      0.00000
     27       7.2269      0.00000
     28       7.6516      0.00000
     29       7.7968      0.00000
     30       8.3546      0.00000
     31       8.7011      0.00000
     32       8.8360      0.00000

 k-point     3 :       0.3333    0.0000    0.0000
  band No.  band energies     occupation 
      1     -10.2323      2.00000
      2      -9.9098      2.00000
      3      -9.4468      2.00000
      4      -9.0611      2.00000
      5      -5.1403      2.00000
      6      -4.2056      2.00000
      7      -4.1470      2.00000
      8      -3.3275      2.00000
      9      -0.9830      2.00000
     10       0.5805      2.00000
     11       0.6186      2.00000
     12       1.0045      2.00000
     13       1.4920      2.00000
     14       1.5054      2.00000
     15       1.5256      2.00000
     16       1.9523      2.00000
     17       2.2886      2.00000
     18       2.7555      2.00000
     19       2.9834      2.00000
     20       3.5687      2.00000
     21       4.5287      0.00000
     22       4.6780      0.00000
     23       4.9722      0.00000
     24       5.4184      0.00000
     25       5.8082      0.00000
     26       6.2781      0.00000
     27       6.3008      0.00000
     28       6.5417      0.00000
     29       7.0691      0.00000
     30       7.2890      0.00000
     31       8.5191      0.00000
     32       9.2968      0.00000

 k-point     4 :       0.5000    0.0000    0.0000
  band No.  band energies     occupation 
      1      -9.7482      2.00000
      2      -9.7482      2.00000
      3      -9.4306      2.00000
      4      -9.4306      2.00000
      5      -5.0116      2.00000
      6      -5.0116      2.00000
      7      -4.0424      2.00000
      8      -4.0424      2.00000
      9      -0.1401      2.00000
     10      -0.1401      2.00000
     11       1.2504      2.00000
     12       1.2504      2.00000
     13       1.5971      2.00000
     14       1.5971      2.00000
     15       2.0681      2.00000
     16       2.0681      2.00000
     17       2.6264      2.00000
     18       2.6264      2.00000
     19       3.0843      2.00000
     20       3.0843      2.00000
     21       4.6897      0.00000
     22       4.6897      0.00000
     23       5.2885      0.00000
     24       5.2885      0.00000
     25       5.3160      0.00000
     26       5.3160      0.00000
     27       5.8264      0.00000
     28       5.8264      0.00000
     29       6.2926      0.00000
     30       6.2926      0.00000
     31       9.1974      0.00000
     32       9.1974      0.00000

 k-point     5 :       0.0000    0.1667    0.0000
  band No.  band energies     occupation 
      1     -10.5886      2.00000
      2     -10.2573      2.00000
      3      -9.3534      2.00000
      4      -8.8825      2.00000
      5      -4.5301      2.00000
      6      -4.0715      2.00000
      7      -2.8192      2.00000
      8      -2.5116      2.00000
      9      -1.5714      2.00000
     10      -0.0143      2.00000
     11       0.3597      2.00000
     12       0.4552      2.00000
     13       0.5196      2.00000
     14       0.5868      2.00000
     15       1.5318      2.00000
     16       1.8563      2.00000
     17       2.0872      2.00000
     18       2.6335      2.00000
     19       2.8927      2.00000
     20       2.9090      2.00000
     21       4.3535      0.00000
     22       5.9972      0.00000
     23       6.3238      0.00000
     24       6.6511      0.00000
     25       6.8133      0.00000
     26       6.9416      0.00000
     27       7.1312      0.00000
     28       7.2951      0.00000
     29       7.9517      0.00000
     30       8.1761      0.00000
     31       8.7716      0.00000
     32       8.8471      0.00000

 k-point     6 :       0.1667    0.1667    0.0000
  band No.  band energies     occupation 
      1     -10.4504      2.00000
      2     -10.1272      2.00000
      3      -9.3256      2.00000
      4      -8.8950      2.00000
      5      -4.7426      2.00000
      6      -4.0975      2.00000
      7      -3.1392      2.00000
      8      -2.8640      2.00000
      9      -1.3756      2.00000
     10      -0.6560      2.00000
     11      -0.4339      2.00000
     12       0.5871      2.00000
     13       0.9492      2.00000
     14       1.4045      2.00000
     15       1.5499      2.00000
     16       1.5848      2.00000
     17       2.6933      2.00000
     18       2.7132      2.00000
     19       2.9714      2.00000
     20       2.9806      2.00000
     21       4.3730      0.00000
     22       5.2442      0.00000
     23       5.6287      0.00000
     24       5.7557      0.00000
     25       6.6181      0.00000
     26       7.0893      0.00000
     27       7.4592      0.00000
     28       7.6093      0.00000
     29       8.0699      0.00000
     30       8.2449      0.00000
     31       8.3027      0.00000
     32       9.0303      0.00000

 k-point     7 :      -0.1667    0.1667    0.0000
  band No.  band energies     occupation 
      1     -10.4504      2.00000
      2     -10.1272      2.00000
      3      -9.3256      2.00000
      4      -8.8950      2.00000
      5      -4.7426      2.00000
      6      -4.0975      2.00000
      7      -3.1392      2.00000
      8      -2.8640      2.00000
      9      -1.3756      2.00000
     10      -0.6560      2.00000
     11      -0.4339      2.00000
     12       0.5871      2.00000
     13       0.9492      2.00000
     14       1.4045      2.00000
     15       1.5499      2.00000
     16       1.5848      2.00000
     17       2.6933      2.00000
     18       2.7132      2.00000
     19       2.9714      2.00000
     20       2.9806      2.00000
     21       4.3730      0.00000
     22       5.2442      0.00000
     23       5.6287      0.00000
     24       5.7557      0.00000
     25       6.6181      0.00000
     26       7.0893      0.00000
     27       7.4592      0.00000
     28       7.6093      0.00000
     29       8.0699      0.00000
     30       8.2449      0.00000
     31       8.3027      0.00000
     32       9.0303      0.00000

 k-point     8 :       0.3333    0.1667    0.0000
  band No.  band energies     occupation 
      1     -10.0790      2.00000
      2      -9.7770      2.00000
      3      -9.3521      2.00000
      4      -9.0119      2.00000
      5      -5.0466      2.00000
      6      -4.1630      2.00000
      7      -4.0900      2.00000
      8      -3.4205      2.00000
      9      -0.8338      2.00000
     10      -0.7362      2.00000
     11      -0.5012      2.00000
     12       0.5037      2.00000
     13       0.6355      2.00000
     14       1.2229      2.00000
     15       1.5328      2.00000
     16       2.1225      2.00000
     17       2.3919      2.00000
     18       2.7358      2.00000
     19       2.9316      2.00000
     20       3.0051      2.00000
     21       4.5218      0.00000
     22       4.9446      0.00000
     23       5.5949      0.00000
     24       5.8350      0.00000
     25       5.8595      0.00000
     26       6.6042      0.00000
     27       7.0650      0.00000
     28       7.7902      0.00000
     29       8.0520      0.00000
     30       8.3685      0.00000
     31       8.5635      0.00000
     32       8.9672      0.00000

 k-point     9 :      -0.3333    0.1667    0.0000
  band No.  band energies     occupation 
      1     -10.0790      2.00000
      2      -9.7770      2.00000
      3      -9.3521      2.00000
      4      -9.0119      2.00000
      5      -5.0466      2.00000
      6      -4.1630      2.00000
      7      -4.0900      2.00000
      8      -3.4205      2.00000
      9      -0.8338      2.00000
     10      -0.7362      2.00000
     11      -0.5012      2.00000
     12       0.5037      2.00000
     13       0.6355      2.00000
     14       1.2229      2.00000
     15       1.5328      2.00000
     16       2.1225      2.00000
     17       2.3919      2.00000
     18       2.7358      2.00000
     19       2.9316      2.00000
     20       3.0051      2.00000
     21       4.5218      0.00000
     22       4.9446      0.00000
     23       5.5949      0.00000
     24       5.8350      0.00000
     25       5.8595      0.00000
     26       6.6042      0.00000
     27       7.0650      0.00000
     28       7.7902      0.00000
     29       8.0520      0.00000
     30       8.3685      0.00000
     31       8.5635      0.00000
     32       8.9672      0.00000

 k-point    10 :       0.5000    0.1667    0.0000
  band No.  band energies     occupation 
      1      -9.6282      2.00000
      2      -9.6282      2.00000
      3      -9.3381      2.00000
      4      -9.3381      2.00000
      5      -4.8668      2.00000
      6      -4.8668      2.00000
      7      -3.9650      2.00000
      8      -3.9650      2.00000
      9      -0.3132      2.00000
     10      -0.3132      2.00000
     11      -0.0567      2.00000
     12      -0.0567      2.00000
     13       0.4901      2.00000
     14       0.4901      2.00000
     15       1.7513      2.00000
     16       1.7513      2.00000
     17       2.4643      2.00000
     18       2.4643      2.00000
     19       2.9601      2.00000
     20       2.9601      2.00000
     21       4.9317      0.00000
     22       4.9317      0.00000
     23       5.5515      0.00000
     24       5.5515      0.00000
     25       6.4091      0.00000
     26       6.4091      0.00000
     27       7.2673      0.00000
     28       7.2673      0.00000
     29       7.7933      0.00000
     30       7.7933      0.00000
     31       8.8982      0.00000
     32       8.8982      0.00000

 k-point    11 :       0.0000    0.3333    0.0000
  band No.  band energies     occupation 
      1     -10.0920      2.00000
      2      -9.8252      2.00000
      3      -9.1961      2.00000
      4      -8.9730      2.00000
      5      -5.1261      2.00000
      6      -4.6536      2.00000
      7      -4.1648      2.00000
      8      -3.5855      2.00000
      9      -0.9656      2.00000
     10       0.3564      2.00000
     11       0.7613      2.00000
     12       0.8619      2.00000
     13       1.0305      2.00000
     14       1.0724      2.00000
     15       1.8483      2.00000
     16       1.9094      2.00000
     17       2.4259      2.00000
     18       2.4714      2.00000
     19       2.7589      2.00000
     20       3.1925      2.00000
     21       4.5893      0.00000
     22       4.7199      0.00000
     23       5.3256      0.00000
     24       5.5844      0.00000
     25       5.8937      0.00000
     26       5.9588      0.00000
     27       6.1967      0.00000
     28       6.9673      0.00000
     29       7.3049      0.00000
     30       7.3345      0.00000
     31       8.0061      0.00000
     32       8.9326      0.00000

 k-point    12 :       0.1667    0.3333    0.0000
  band No.  band energies     occupation 
      1      -9.9755      2.00000
      2      -9.7199      2.00000
      3      -9.1698      2.00000
      4      -8.9597      2.00000
      5      -5.0453      2.00000
      6      -4.5169      2.00000
      7      -4.1032      2.00000
      8      -3.6530      2.00000
      9      -0.8297      2.00000
     10      -0.7457      2.00000
     11      -0.4749      2.00000
     12       0.4332      2.00000
     13       1.0101      2.00000
     14       1.3109      2.00000
     15       1.3940      2.00000
     16       1.9302      2.00000
     17       2.0232      2.00000
     18       2.4357      2.00000
     19       2.6352      2.00000
     20       2.9323      2.00000
     21       4.4598      0.00000
     22       5.1315      0.00000
     23       5.7171      0.00000
     24       5.7518      0.00000
     25       6.0083      0.00000
     26       6.7520      0.00000
     27       7.2603      0.00000
     28       7.7101      0.00000
     29       7.8082      0.00000
     30       8.1606      0.00000
     31       8.5803      0.00000
     32       8.9056      0.00000

 k-point    13 :      -0.1667    0.3333    0.0000
  band No.  band energies     occupation 
      1      -9.9755      2.00000
      2      -9.7199      2.00000
      3      -9.1698      2.00000
      4      -8.9597      2.00000
      5      -5.0453      2.00000
      6      -4.5169      2.00000
      7      -4.1032      2.00000
      8      -3.6530      2.00000
      9      -0.8297      2.00000
     10      -0.7457      2.00000
     11      -0.4749      2.00000
     12       0.4332      2.00000
     13       1.0101      2.00000
     14       1.3109      2.00000
     15       1.3940      2.00000
     16       1.9302      2.00000
     17       2.0232      2.00000
     18       2.4357      2.00000
     19       2.6352      2.00000
     20       2.9323      2.00000
     21       4.4598      0.00000
     22       5.1315      0.00000
     23       5.7171      0.00000
     24       5.7518      0.00000
     25       6.0083      0.00000
     26       6.7520      0.00000
     27       7.2603      0.00000
     28       7.7101      0.00000
     29       7.8082      0.00000
     30       8.1606      0.00000
     31       8.5803      0.00000
     32       8.9056      0.00000

 k-point    14 :       0.3333    0.3333    0.0000
  band No.  band energies     occupation 
      1      -9.6748      2.00000
      2      -9.4504      2.00000
      3      -9.1690      2.00000
      4      -8.9823      2.00000
      5      -4.8469      2.00000
      6      -4.1928      2.00000
      7      -4.1363      2.00000
      8      -3.8204      2.00000
      9      -1.5348      2.00000
     10      -1.2282      2.00000
     11      -0.6736      2.00000
     12      -0.3872      2.00000
     13       0.0238      2.00000
     14       0.5209      2.00000
     15       0.8728      2.00000
     16       1.1678      2.00000
     17       1.6441      2.00000
     18       1.9795      2.00000
     19       2.2030      2.00000
     20       2.5836      2.00000
     21       4.7954      0.00000
     22       6.4020      0.00000
     23       6.7432      0.00000
     24       6.8806      0.00000
     25       7.2752      0.00000
     26       7.6162      0.00000
     27       7.9260      0.00000
     28       8.0849      0.00000
     29       8.7330      0.00000
     30       8.8779      0.00000
     31       8.9745      0.00000
     32       9.6501      0.00000

 k-point    15 :      -0.3333    0.3333    0.0000
  band No.  band energies     occupation 
      1      -9.6748      2.00000
      2      -9.4504      2.00000
      3      -9.1690      2.00000
      4      -8.9823      2.00000
      5      -4.8469      2.00000
      6      -4.1928      2.00000
      7      -4.1363      2.00000
      8      -3.8204      2.00000
      9      -1.5348      2.00000
     10      -1.2282      2.00000
     11      -0.6736      2.00000
     12      -0.3872      2.00000
     13       0.0238      2.00000
     14       0.5209      2.00000
     15       0.8728      2.00000
     16       1.1678      2.00000
     17       1.6441      2.00000
     18       1.9795      2.00000
     19       2.2030      2.00000
     20       2.5836      2.00000
     21       4.7954      0.00000
     22       6.4020      0.00000
     23       6.7432      0.00000
     24       6.8806      0.00000
     25       7.2752      0.00000
     26       7.6162      0.00000
     27       7.9260      0.00000
     28       8.0849      0.00000
     29       8.7330      0.00000
     30       8.8779      0.00000
     31       8.9745      0.00000
     32       9.6480      0.00000

 k-point    16 :       0.5000    0.3333    0.0000
  band No.  band energies     occupation 
      1      -9.3425      2.00000
      2      -9.3425      2.00000
      3      -9.1523      2.00000
      4      -9.1523      2.00000
      5      -4.5314      2.00000
      6      -4.5314      2.00000
      7      -3.9232      2.00000
      8      -3.9232      2.00000
      9      -1.4109      2.00000
     10      -1.4109      2.00000
     11      -0.9969      2.00000
     12      -0.9969      2.00000
     13       0.0543      2.00000
     14       0.0543      2.00000
     15       0.8283      2.00000
     16       0.8283      2.00000
     17       1.3319      2.00000
     18       1.3319      2.00000
     19       2.2692      2.00000
     20       2.2692      2.00000
     21       5.7725      0.00000
     22       5.7725      0.00000
     23       7.5090      0.00000
     24       7.5090      0.00000
     25       8.1930      0.00000
     26       8.1930      0.00000
     27       8.2861      0.00000
     28       8.2861      0.00000
     29       8.7962      0.00000
     30       8.7962      0.00000
     31       9.4462      0.00000
     32       9.4462      0.00000

 k-point    17 :       0.0000    0.5000    0.0000
  band No.  band energies     occupation 
      1      -9.4398      2.00000
      2      -9.4398      2.00000
      3      -9.3457      2.00000
      4      -9.3457      2.00000
      5      -5.0922      2.00000
      6      -5.0922      2.00000
      7      -4.4838      2.00000
      8      -4.4838      2.00000
      9      -0.0957      2.00000
     10      -0.0957      2.00000
     11       1.2521      2.00000
     12       1.2521      2.00000
     13       1.3690      2.00000
     14       1.3690      2.00000
     15       1.8933      2.00000
     16       1.8933      2.00000
     17       2.5543      2.00000
     18       2.5543      2.00000
     19       2.6564      2.00000
     20       2.6564      2.00000
     21       4.8819      0.00000
     22       4.8819      0.00000
     23       4.9035      0.00000
     24       4.9035      0.00000
     25       5.3637      0.00000
     26       5.3637      0.00000
     27       5.9246      0.00000
     28       5.9246      0.00000
     29       6.4999      0.00000
     30       6.4999      0.00000
     31       8.5533      0.00000
     32       8.5533      0.00000

 k-point    18 :       0.1667    0.5000    0.0000
  band No.  band energies     occupation 
      1      -9.3696      2.00000
      2      -9.3696      2.00000
      3      -9.2859      2.00000
      4      -9.2859      2.00000
      5      -4.9372      2.00000
      6      -4.9372      2.00000
      7      -4.3853      2.00000
      8      -4.3853      2.00000
      9      -0.2699      2.00000
     10      -0.2699      2.00000
     11       0.1083      2.00000
     12       0.1083      2.00000
     13       0.6957      2.00000
     14       0.6957      2.00000
     15       1.4454      2.00000
     16       1.4454      2.00000
     17       2.0042      2.00000
     18       2.0042      2.00000
     19       2.7284      2.00000
     20       2.7284      2.00000
     21       4.7977      0.00000
     22       4.7977      0.00000
     23       5.9032      0.00000
     24       5.9032      0.00000
     25       6.6781      0.00000
     26       6.6781      0.00000
     27       6.9008      0.00000
     28       6.9008      0.00000
     29       7.7887      0.00000
     30       7.7887      0.00000
     31       8.2161      0.00000
     32       8.2161      0.00000

 k-point    19 :       0.3333    0.5000    0.0000
  band No.  band energies     occupation 
      1      -9.2161      2.00000
      2      -9.2161      2.00000
      3      -9.1623      2.00000
      4      -9.1623      2.00000
      5      -4.5483      2.00000
      6      -4.5483      2.00000
      7      -4.1837      2.00000
      8      -4.1837      2.00000
      9      -1.2012      2.00000
     10      -1.2012      2.00000
     11      -0.8689      2.00000
     12      -0.8689      2.00000
     13      -0.0204      2.00000
     14      -0.0204      2.00000
     15       0.6832      2.00000
     16       0.6832      2.00000
     17       1.2386      2.00000
     18       1.2386      2.00000
     19       2.2300      2.00000
     20       2.2300      2.00000
     21       5.8447      0.00000
     22       5.8447      0.00000
     23       7.3425      0.00000
     24       7.3425      0.00000
     25       8.0367      0.00000
     26       8.0367      0.00000
     27       8.1573      0.00000
     28       8.1573      0.00000
     29       8.7566      0.00000
     30       8.7566      0.00000
     31       9.5604      0.00000
     32       9.5604      0.00000

 k-point    20 :       0.5000    0.5000    0.0000
  band No.  band energies     occupation 
      1      -9.1268      2.00000
      2      -9.1268      2.00000
      3      -9.1031      2.00000
      4      -9.1031      2.00000
      5      -4.2693      2.00000
      6      -4.2693      2.00000
      7      -4.1036      2.00000
      8      -4.1036      2.00000
      9      -1.6166      2.00000
     10      -1.6166      2.00000
     11      -1.3258      2.00000
     12      -1.3258      2.00000
     13      -0.3248      2.00000
     14      -0.3248      2.00000
     15       0.1134      2.00000
     16       0.1134      2.00000
     17       1.3779      2.00000
     18       1.3779      2.00000
[...]
     32       7.8101      0.00000

 k-point    32 :       0.1667    0.3333    0.5000
  band No.  band energies     occupation 
      1      -9.8678      2.00000
      2      -9.8678      2.00000
      3      -9.0434      2.00000
      4      -9.0434      2.00000
      5      -4.8195      2.00000
      6      -4.8195      2.00000
      7      -3.8850      2.00000
      8      -3.8850      2.00000
      9      -0.6583      2.00000
     10      -0.6583      2.00000
     11       0.1139      2.00000
     12       0.1139      2.00000
     13       0.8109      2.00000
     14       0.8109      2.00000
     15       1.6555      2.00000
     16       1.6555      2.00000
     17       2.0783      2.00000
     18       2.0783      2.00000
     19       2.8514      2.00000
     20       2.8514      2.00000
     21       5.3121      0.00000
     22       5.3121      0.00000
     23       5.7303      0.00000
     24       5.7303      0.00000
     25       6.7202      0.00000
     26       6.7202      0.00000
     27       6.9438      0.00000
     28       6.9438      0.00000
     29       7.5889      0.00000
     30       7.5889      0.00000
     31       8.6414      0.00000
     32       8.6414      0.00000

 k-point    33 :      -0.1667    0.3333    0.5000
  band No.  band energies     occupation 
      1      -9.8678      2.00000
      2      -9.8678      2.00000
      3      -9.0434      2.00000
      4      -9.0434      2.00000
      5      -4.8195      2.00000
      6      -4.8195      2.00000
      7      -3.8850      2.00000
      8      -3.8850      2.00000
      9      -0.6583      2.00000
     10      -0.6583      2.00000
     11       0.1139      2.00000
     12       0.1139      2.00000
     13       0.8109      2.00000
     14       0.8109      2.00000
     15       1.6555      2.00000
     16       1.6555      2.00000
     17       2.0783      2.00000
     18       2.0783      2.00000
     19       2.8514      2.00000
     20       2.8514      2.00000
     21       5.3121      0.00000
     22       5.3121      0.00000
     23       5.7303      0.00000
     24       5.7303      0.00000
     25       6.7202      0.00000
     26       6.7202      0.00000
     27       6.9438      0.00000
     28       6.9438      0.00000
     29       7.5889      0.00000
     30       7.5889      0.00000
     31       8.6414      0.00000
     32       8.6414      0.00000

 k-point    34 :       0.3333    0.3333    0.5000
  band No.  band energies     occupation 
      1      -9.5847      2.00000
      2      -9.5847      2.00000
      3      -9.0537      2.00000
      4      -9.0537      2.00000
      5      -4.5892      2.00000
      6      -4.5892      2.00000
      7      -3.9386      2.00000
      8      -3.9386      2.00000
      9      -1.3611      2.00000
     10      -1.3611      2.00000
     11      -0.3917      2.00000
     12      -0.3917      2.00000
     13       0.1869      2.00000
     14       0.1869      2.00000
     15       0.9193      2.00000
     16       0.9193      2.00000
     17       1.6849      2.00000
     18       1.6849      2.00000
     19       2.5129      2.00000
     20       2.5129      2.00000
     21       6.0586      0.00000
     22       6.0586      0.00000
     23       6.5564      0.00000
     24       6.5564      0.00000
     25       6.9083      0.00000
     26       6.9083      0.00000
     27       7.9944      0.00000
     28       7.9944      0.00000
     29       8.4867      0.00000
     30       8.4867      0.00000
     31       9.8012      0.00000
     32       9.8012      0.00000

 k-point    35 :      -0.3333    0.3333    0.5000
  band No.  band energies     occupation 
      1      -9.5847      2.00000
      2      -9.5847      2.00000
      3      -9.0537      2.00000
      4      -9.0537      2.00000
      5      -4.5892      2.00000
      6      -4.5892      2.00000
      7      -3.9386      2.00000
      8      -3.9386      2.00000
      9      -1.3611      2.00000
     10      -1.3611      2.00000
     11      -0.3917      2.00000
     12      -0.3917      2.00000
     13       0.1869      2.00000
     14       0.1869      2.00000
     15       0.9193      2.00000
     16       0.9193      2.00000
     17       1.6849      2.00000
     18       1.6849      2.00000
     19       2.5129      2.00000
     20       2.5129      2.00000
     21       6.0586      0.00000
     22       6.0586      0.00000
     23       6.5564      0.00000
     24       6.5564      0.00000
     25       6.9083      0.00000
     26       6.9083      0.00000
     27       7.9944      0.00000
     28       7.9944      0.00000
     29       8.4867      0.00000
     30       8.4867      0.00000
     31       9.8012      0.00000
     32       9.8012      0.00000

 k-point    36 :       0.5000    0.3333    0.5000
  band No.  band energies     occupation 
      1      -9.3390      2.00000
      2      -9.3390      2.00000
      3      -9.1565      2.00000
      4      -9.1565      2.00000
      5      -4.4785      2.00000
      6      -4.4785      2.00000
      7      -3.9972      2.00000
      8      -3.9972      2.00000
      9      -1.2112      2.00000
     10      -1.2112      2.00000
     11      -1.1906      2.00000
     12      -1.1906      2.00000
     13       0.3332      2.00000
     14       0.3332      2.00000
     15       0.3517      2.00000
     16       0.3517      2.00000
     17       1.7070      2.00000
     18       1.7070      2.00000
     19       2.1147      2.00000
     20       2.1147      2.00000
     21       6.1169      0.00000
     22       6.1169      0.00000
     23       6.8626      0.00000
     24       6.8626      0.00000
     25       7.8831      0.00000
     26       7.8831      0.00000
     27       7.9685      0.00000
     28       7.9685      0.00000
     29       9.3263      0.00000
     30       9.3263      0.00000
     31       9.5727      0.00000
     32       9.5727      0.00000

 k-point    37 :       0.0000    0.5000    0.5000
  band No.  band energies     occupation 
      1      -9.3940      2.00000
      2      -9.3940      2.00000
      3      -9.3940      2.00000
      4      -9.3940      2.00000
      5      -4.8117      2.00000
      6      -4.8117      2.00000
      7      -4.8117      2.00000
      8      -4.8117      2.00000
      9       0.6573      2.00000
     10       0.6573      2.00000
     11       0.6573      2.00000
     12       0.6573      2.00000
     13       1.4936      2.00000
     14       1.4936      2.00000
     15       1.4936      2.00000
     16       1.4936      2.00000
     17       2.5066      2.00000
     18       2.5066      2.00000
     19       2.5066      2.00000
     20       2.5066      2.00000
     21       5.2070      0.00000
     22       5.2070      0.00000
     23       5.2070      0.00000
     24       5.2070      0.00000
     25       5.6264      0.00000
     26       5.6264      0.00000
     27       5.6264      0.00000
     28       5.6264      0.00000
     29       7.2279      0.00000
     30       7.2279      0.00000
     31       7.2279      0.00000
     32       7.2279      0.00000

 k-point    38 :       0.1667    0.5000    0.5000
  band No.  band energies     occupation 
      1      -9.3287      2.00000
      2      -9.3287      2.00000
      3      -9.3287      2.00000
      4      -9.3287      2.00000
      5      -4.6813      2.00000
      6      -4.6813      2.00000
      7      -4.6813      2.00000
      8      -4.6813      2.00000
      9       0.0493      2.00000
     10       0.0493      2.00000
     11       0.0493      2.00000
     12       0.0493      2.00000
     13       0.9349      2.00000
     14       0.9349      2.00000
     15       0.9349      2.00000
     16       0.9349      2.00000
     17       2.2389      2.00000
     18       2.2389      2.00000
     19       2.2389      2.00000
     20       2.2389      2.00000
     21       5.6760      0.00000
     22       5.6760      0.00000
     23       5.6760      0.00000
     24       5.6760      0.00000
     25       6.8582      0.00000
     26       6.8582      0.00000
     27       6.8582      0.00000
     28       6.8582      0.00000
     29       7.5704      0.00000
     30       7.5704      0.00000
     31       7.5704      0.00000
     32       7.5704      0.00000

 k-point    39 :       0.3333    0.5000    0.5000
  band No.  band energies     occupation 
      1      -9.1896      2.00000
      2      -9.1896      2.00000
      3      -9.1896      2.00000
      4      -9.1896      2.00000
      5      -4.3767      2.00000
      6      -4.3767      2.00000
      7      -4.3767      2.00000
      8      -4.3767      2.00000
      9      -0.9778      2.00000
     10      -0.9778      2.00000
     11      -0.9778      2.00000
     12      -0.9778      2.00000
     13       0.1198      2.00000
     14       0.1198      2.00000
     15       0.1198      2.00000
     16       0.1198      2.00000
     17       1.9197      2.00000
     18       1.9197      2.00000
     19       1.9197      2.00000
     20       1.9197      2.00000
     21       6.4057      0.00000
     22       6.4057      0.00000
     23       6.4057      0.00000
     24       6.4057      0.00000
     25       7.8278      0.00000
     26       7.8278      0.00000
     27       7.8278      0.00000
     28       7.8278      0.00000
     29       9.4620      0.00000
     30       9.4620      0.00000
     31       9.4620      0.00000
     32       9.4620      0.00000

 k-point    40 :       0.5000    0.5000    0.5000
  band No.  band energies     occupation 
      1      -9.1150      2.00000
      2      -9.1150      2.00000
      3      -9.1150      2.00000
      4      -9.1150      2.00000
      5      -4.1941      2.00000
      6      -4.1941      2.00000
      7      -4.1941      2.00000
      8      -4.1941      2.00000
      9      -1.3488      2.00000
     10      -1.3488      2.00000
     11      -1.3488      2.00000
     12      -1.3488      2.00000
     13      -0.4051      2.00000
     14      -0.4051      2.00000
     15      -0.4051      2.00000
     16      -0.4051      2.00000
     17       1.9555      2.00000
     18       1.9555      2.00000
     19       1.9555      2.00000
     20       1.9555      2.00000
     21       6.2025      0.00000
     22       6.2025      0.00000
     23       6.2025      0.00000
     24       6.2025      0.00000
     25       8.9036      0.00000
     26       8.9036      0.00000
     27       8.9036      0.00000
     28       8.9036      0.00000
     29      10.3398      0.00000
     30      10.3398      0.00000
     31      10.3398      0.00000
     32      10.3398      0.00000


--------------------------------------------------------------------------------------------------------


 soft charge-density along one line, spin component            1
         0         1         2         3         4         5         6         7         8         9
 total charge-density along one line
 
 pseudopotential strength for first ion, spin component:            1
 14.436  18.008  -0.000   0.045   0.035  -0.000   0.080   0.063
 18.008  22.478  -0.000   0.056   0.044  -0.000   0.102   0.080
 -0.000  -0.000   3.212  -0.000  -0.000   5.466  -0.000  -0.000
  0.045   0.056  -0.000   3.208  -0.002  -0.000   5.460  -0.004
  0.035   0.044  -0.000  -0.002   3.211  -0.000  -0.004   5.465
 -0.000  -0.000   5.466  -0.000  -0.000   9.359  -0.000  -0.000
  0.080   0.102  -0.000   5.460  -0.004  -0.000   9.350  -0.007
  0.063   0.080  -0.000  -0.004   5.465  -0.000  -0.007   9.357
 -0.000  -0.000   0.006   0.000  -0.000   0.011   0.000  -0.000
 -0.000  -0.000   0.012  -0.000   0.000   0.021  -0.000   0.000
 -0.004  -0.004   0.000   0.011  -0.003   0.000   0.020  -0.006
 -0.005  -0.006   0.000   0.011   0.012   0.000   0.019   0.022
 -0.001  -0.001   0.000   0.000   0.011   0.000   0.000   0.019
 total augmentation occupancy for first ion, spin component:            1
  2.706  -0.700  -0.000   0.370   0.279   0.000  -0.068  -0.049  -0.000  -0.000  -0.002  -0.011  -0.012
 -0.700   0.688   0.000  -0.476  -0.364  -0.000   0.074   0.056   0.000   0.000   0.006   0.009   0.010
 -0.000   0.000   1.217  -0.000  -0.000  -0.210   0.000  -0.000   0.121   0.030   0.000  -0.000   0.000
  0.370  -0.476  -0.000   1.306   0.045   0.000  -0.214   0.004  -0.000  -0.000   0.116  -0.014   0.001
  0.279  -0.364  -0.000   0.045   1.181   0.000   0.004  -0.192  -0.000   0.000  -0.078   0.033  -0.007
  0.000  -0.000  -0.210   0.000   0.000   0.040   0.000  -0.000  -0.021  -0.005  -0.000   0.000  -0.000
 -0.068   0.074   0.000  -0.214   0.004   0.000   0.040  -0.002   0.000   0.000  -0.020   0.002  -0.000
 -0.049   0.056  -0.000   0.004  -0.192  -0.000  -0.002   0.035  -0.000  -0.000   0.013  -0.005   0.001
 -0.000   0.000   0.121  -0.000  -0.000  -0.021   0.000  -0.000   0.032   0.002   0.000  -0.000   0.000
 -0.000   0.000   0.030  -0.000   0.000  -0.005   0.000  -0.000   0.002   0.010  -0.000  -0.000  -0.000
 -0.002   0.006   0.000   0.116  -0.078  -0.000  -0.020   0.013   0.000  -0.000   0.033  -0.006   0.003
 -0.011   0.009  -0.000  -0.014   0.033   0.000   0.002  -0.005  -0.000  -0.000  -0.006   0.011  -0.001
 -0.012   0.010   0.000   0.001  -0.007  -0.000  -0.000   0.001   0.000  -0.000   0.003  -0.001   0.009


------------------------ aborting loop because EDIFF is reached ----------------------------------------


    CHARGE:  cpu time      0.0034: real time      0.0034
    FORLOC:  cpu time      0.0002: real time      0.0002
    FORNL :  cpu time      0.0204: real time      0.0207
    STRESS:  cpu time      0.1828: real time      0.1835
    FORCOR:  cpu time      0.0033: real time      0.0034
    FORHAR:  cpu time      0.0009: real time      0.0009
    MIXING:  cpu time      0.0013: real time      0.0013
    OFIELD:  cpu time      0.0000: real time      0.0000

  FORCE on cell =-STRESS in cart. coord.  units (eV):
  Direction    XX          YY          ZZ          XY          YZ          ZX
  --------------------------------------------------------------------------------------
  Alpha Z    90.52037    90.52037    90.52037
  Ewald    -489.98302  -447.08505  -507.18999    -0.00000     0.00000    -0.00000
  Hartree    41.65900    56.63532    26.98109    -0.00000     0.00000     0.00000
  E(xc)    -141.12881  -141.04514  -141.66125     0.00000    -0.00000    -0.00000
  Local    -125.17100  -177.50293   -96.50023    -0.00000    -0.00000     0.00000
  n-local   239.26809   239.99662   242.47748     0.00000     0.00000    -0.00000
  augment   -11.76328   -11.34888   -12.12016    -0.00000    -0.00000     0.00000
  Kinetic   398.77225   390.29037   398.58476    -0.00000     0.00000     0.00000
  Fock        0.00000     0.00000     0.00000     0.00000     0.00000     0.00000
  -------------------------------------------------------------------------------------
  Total       2.17359     0.46068     1.09207    -0.00000    -0.00000     0.00000
  in kB      18.60408     3.94304     9.34716    -0.00000    -0.00000     0.00000
  external pressure =       10.63 kB  Pullay stress =        0.00 kB


 VOLUME and BASIS-vectors are now :
 -----------------------------------------------------------------------------
  energy-cutoff  :      360.00
  volume of cell :      187.19
      direct lattice vectors                 reciprocal lattice vectors
     4.200000000  0.000000000  0.000000000     0.238095238  0.000000000  0.000000000
     0.000000000  4.000000000  0.000000000     0.000000000  0.250000000  0.000000000
     0.000000000  0.000000000 11.142221000     0.000000000  0.000000000  0.089748713

  length of vectors
     4.200000000  4.000000000 11.142221000     0.238095238  0.250000000  0.089748713


 FORCES acting on ions
    electron-ion (+dipol)            ewald-force                    non-local-force                 convergence-correction
 -----------------------------------------------------------------------------------------------
   0.107E+02 -.291E-05 0.258E+02   -.130E+02 0.329E-15 -.286E+02   0.223E+01 0.115E-05 0.280E+01   -.127E-03 0.179E-05 -.130E-02
   0.107E+02 -.320E-06 -.258E+02   -.130E+02 0.181E-14 0.286E+02   0.223E+01 -.133E-07 -.280E+01   -.126E-03 0.366E-06 0.130E-02
   -.107E+02 0.225E-05 -.258E+02   0.130E+02 0.158E-14 0.286E+02   -.223E+01 -.838E-06 -.280E+01   0.126E-03 -.141E-05 0.130E-02
   -.107E+02 0.659E-06 0.258E+02   0.130E+02 0.298E-15 -.286E+02   -.223E+01 -.102E-06 0.280E+01   0.126E-03 -.621E-06 -.130E-02
   -.993E+01 0.457E-05 -.273E+02   0.110E+02 -.342E-14 0.290E+02   -.107E+01 -.158E-05 -.171E+01   0.297E-03 -.309E-05 0.230E-02
   -.993E+01 0.798E-05 0.273E+02   0.110E+02 0.101E-14 -.290E+02   -.107E+01 -.246E-05 0.171E+01   0.299E-03 -.556E-05 -.230E-02
   0.993E+01 -.575E-05 0.273E+02   -.110E+02 0.114E-14 -.290E+02   0.107E+01 0.212E-05 0.171E+01   -.298E-03 0.379E-05 -.229E-02
   0.993E+01 -.695E-05 -.273E+02   -.110E+02 -.346E-14 0.290E+02   0.107E+01 0.219E-05 -.171E+01   -.298E-03 0.474E-05 0.230E-02
 -----------------------------------------------------------------------------------------------
   -.964E-06 -.470E-06 -.168E-06   0.178E-14 -.709E-15 0.000E+00   0.127E-05 0.474E-06 -.450E-06   -.162E-06 0.484E-08 0.428E-06
 
 
 POSITION                                       TOTAL-FORCE (eV/Angst)
 -----------------------------------------------------------------------------------
      0.41789      1.00000      1.43117        -0.038200      0.000000      0.023290
      2.51789      3.00000      4.13994        -0.038200      0.000000     -0.023289
      3.78211      3.00000      9.71105         0.038200     -0.000000     -0.023290
      1.68211      1.00000      7.00228         0.038200     -0.000000      0.023290
      0.02102      1.00000      3.97865         0.054379     -0.000000     -0.008206
      2.12102      3.00000      1.59246         0.054379     -0.000000      0.008207
      4.17898      3.00000      7.16357        -0.054379      0.000000      0.008206
      2.07898      1.00000      9.54976        -0.054379     -0.000000     -0.008207
 -----------------------------------------------------------------------------------
    total drift:                                0.000000      0.000000     -0.000000


--------------------------------------------------------------------------------------------------------



  FREE ENERGIE OF THE ION-ELECTRON SYSTEM (eV)
  ---------------------------------------------------
  free  energy   TOTEN  =       -33.76792624 eV

  energy  without entropy=      -33.76792624  energy(sigma->0) =      -33.76792624
 


--------------------------------------------------------------------------------------------------------


    POTLOK:  cpu time      0.1134: real time      0.1137


--------------------------------------------------------------------------------------------------------


     LOOP+:  cpu time      4.9193: real time      4.9635
    4ORBIT:  cpu time      0.0000: real time      0.0000

 total amount of memory used by VASP MPI-rank0    38152. kBytes
=======================================================================

   base      :      30000. kBytes
   nonl-proj :       6352. kBytes
   fftplans  :        319. kBytes
   grid      :        462. kBytes
   one-center:         16. kBytes
   wavefun   :       1003. kBytes
 
  
  
 General timing and accounting informations for this job:
 ========================================================
  
                  Total CPU time used (sec):        5.712
                            User time (sec):        5.427
                          System time (sec):        0.285
                         Elapsed time (sec):        7.153
  
                   Maximum memory used (kb):      189208.
                   Average memory used (kb):          N/A
  
                          Minor page faults:        24777
                          Major page faults:           43
                 Voluntary context switches:         2159
