 vasp.6.4.2 20Jul23 (build Oct 12 2023 10:31:02) complex                         
 executed on              LinuxNV date 2025.05.17  15:47:29
 running  160 mpi-ranks, with    1 threads/rank, on   10 nodes
 distrk:  each k-point on   80 cores,    2 groups
 distr:  one band on NCORE=   5 cores,   16 groups


--------------------------------------------------------------------------------------------------------


 INCAR:
   ENCUT = 360.000000
   SIGMA = 0.050000
   EDIFF = 1.00e-06
   ALGO = Normal
   GGA = PE
   PREC = Normal
   SYSTEM = ./
   ICHARG = 2
   ISMEAR = 0
   ISPIN = 1
   ISTART = 0
   ISYM = 0
   KPAR = 2
   LMAXMIX = 4
   NELM = 100
   NPAR = 16
   LASPH = .TRUE.
   LCHARG = .FALSE.
   LWAVE = .FALSE.

 POTCAR:    PAW_PBE Ge 05Jan2001                  
 POTCAR:    PAW_PBE Se 06Sep2000                  
 POTCAR:    PAW_PBE Ge 05Jan2001                  
   VRHFIN =Ge: s2p2                                                                                 
   LEXCH  = PE                                                                                      
   EATOM  =   104.9960 eV,    7.7170 Ry                                                             
                                                                                                    
   TITEL  = PAW_PBE Ge 05Jan2001                                                                    
   LULTRA =        F    use ultrasoft PP ?                                                          
   IUNSCR =        1    unscreen: 0-lin 1-nonlin 2-no                                               
   RPACOR =    2.170    partial core radius                                                         
   POMASS =   72.610; ZVAL   =    4.000    mass and valenz                                          
   RCORE  =    2.300    outmost cutoff radius                                                       
   RWIGS  =    2.300; RWIGS  =    1.217    wigner-seitz radius (au A)                               
   ENMAX  =  173.807; ENMIN  =  130.355 eV                                                          
   ICORE  =        3    local potential                                                             
   LCOR   =        T    correct aug charges                                                         
   LPAW   =        T    paw PP                                                                      
   EAUG   =  385.843                                                                                
   DEXC   =    0.000                                                                                
   RMAX   =    2.342    core radius for proj-oper                                                   
   RAUG   =    1.300    factor for augmentation sphere                                              
   RDEP   =    2.318    radius for radial grids                                                     
   RDEPT  =    2.103    core radius for aug-charge                                                  
                                                                                                    
   Atomic configuration                                                                             
   10 entries                                                                                       
     n  l   j            E        occ.                                                              
     1  0  0.50    -10959.8463   2.0000                                                             
     2  0  0.50     -1371.6056   2.0000                                                             
     2  1  1.50     -1198.4791   6.0000                                                             
     3  0  0.50      -168.4733   2.0000                                                             
     3  1  1.50      -115.6019   6.0000                                                             
     3  2  2.50       -29.3106  10.0000                                                             
     4  0  0.50       -11.7309   2.0000                                                             
     4  1  0.50        -3.8952   2.0000                                                             
     4  2  1.50        -4.0817   0.0000                                                             
     4  3  2.50        -4.0817   0.0000                                                             
   Description                                                                                      
     l       E           TYP  RCUT    TYP  RCUT                                                     
     0    -11.7309493     23  2.300                                                                 
     0     -7.4578696     23  2.300                                                                 
     1     -3.8952261     23  2.300                                                                 
     1      6.1178114     23  2.300                                                                 
     2     -4.0817478     23  2.300                                                                 
     3     -1.3605826      7  2.300                                                                 
  local pseudopotential read in
  partial core-charges read in
  partial kinetic energy density read in
  atomic valenz-charges read in
  non local Contribution for L=            0  read in
    real space projection operators read in
  non local Contribution for L=            0  read in
    real space projection operators read in
  non local Contribution for L=            1  read in
    real space projection operators read in
  non local Contribution for L=            1  read in
    real space projection operators read in
  non local Contribution for L=            2  read in
    real space projection operators read in
    PAW grid and wavefunctions read in
 
   number of l-projection  operators is LMAX  =            5
   number of lm-projection operators is LMMAX =           13
 
 POTCAR:    PAW_PBE Se 06Sep2000                  
   VRHFIN =Se: s2p4                                                                                 
   LEXCH  = PE                                                                                      
   EATOM  =   257.1286 eV,   18.8984 Ry                                                             
                                                                                                    
   TITEL  = PAW_PBE Se 06Sep2000                                                                    
   LULTRA =        F    use ultrasoft PP ?                                                          
   IUNSCR =        1    unscreen: 0-lin 1-nonlin 2-no                                               
   RPACOR =    1.900    partial core radius                                                         
   POMASS =   78.960; ZVAL   =    6.000    mass and valenz                                          
   RCORE  =    2.100    outmost cutoff radius                                                       
   RWIGS  =    2.200; RWIGS  =    1.164    wigner-seitz radius (au A)                               
   ENMAX  =  211.555; ENMIN  =  158.666 eV                                                          
   ICORE  =        3    local potential                                                             
   LCOR   =        T    correct aug charges                                                         
   LPAW   =        T    paw PP                                                                      
   EAUG   =  446.842                                                                                
   DEXC   =    0.000                                                                                
   RMAX   =    2.147    core radius for proj-oper                                                   
   RAUG   =    1.300    factor for augmentation sphere                                              
   RDEP   =    2.177    radius for radial grids                                                     
   RDEPT  =    1.928    core radius for aug-charge                                                  
                                                                                                    
   Atomic configuration                                                                             
   10 entries                                                                                       
     n  l   j            E        occ.                                                              
     1  0  0.50    -12503.4787   2.0000                                                             
     2  0  0.50     -1606.9547   2.0000                                                             
     2  1  1.50     -1413.3140   6.0000                                                             
     3  0  0.50      -213.4885   2.0000                                                             
     3  1  1.50      -152.9538   6.0000                                                             
     3  2  2.50       -53.1221  10.0000                                                             
     4  0  0.50       -17.2865   2.0000                                                             
     4  1  0.50        -6.5110   4.0000                                                             
     4  2  2.50        -6.8029   0.0000                                                             
     4  3  2.50        -6.8029   0.0000                                                             
   Description                                                                                      
     l       E           TYP  RCUT    TYP  RCUT                                                     
     0    -17.2865377     23  2.100                                                                 
     0    -15.3094411     23  2.100                                                                 
     1     -6.5110275     23  2.100                                                                 
     1     -0.0695192     23  2.100                                                                 
     2     -6.8029130     23  2.100                                                                 
     3     -1.3605826      7  2.100                                                                 
  local pseudopotential read in
  partial core-charges read in
  partial kinetic energy density read in
  atomic valenz-charges read in
  non local Contribution for L=            0  read in
    real space projection operators read in
  non local Contribution for L=            0  read in
    real space projection operators read in
  non local Contribution for L=            1  read in
    real space projection operators read in
  non local Contribution for L=            1  read in
    real space projection operators read in
  non local Contribution for L=            2  read in
    real space projection operators read in
    PAW grid and wavefunctions read in
 
   number of l-projection  operators is LMAX  =            5
   number of lm-projection operators is LMMAX =           13
 
  PAW_PBE Ge 05Jan2001                  :
 energy of atom  1       EATOM= -104.9960
 kinetic energy error for atom=    0.0005 (will be added to EATOM!!)
  PAW_PBE Se 06Sep2000                  :
 energy of atom  2       EATOM= -257.1286
 kinetic energy error for atom=    0.0030 (will be added to EATOM!!)
 
 
 POSCAR: Ge Se
  positions in cartesian coordinates
  No initial velocities read in
 exchange correlation table for  LEXCH =        8
   RHO(1)=    0.500       N(1)  =     2000
   RHO(2)=  100.500       N(2)  =     4000
 


--------------------------------------------------------------------------------------------------------


 ion  position               nearest neighbor table
   1  0.902  0.743  0.116-   5 2.58   6 2.59   6 2.59   3 2.61
   2  0.402  0.243  0.384-   6 2.58   5 2.59   5 2.59   4 2.61
   3  0.750  0.881  0.884-   7 2.58   8 2.59   8 2.59   1 2.61
   4  0.250  0.381  0.616-   8 2.58   7 2.59   7 2.59   2 2.61
   5  0.902  0.619  0.355-   1 2.58   2 2.59   2 2.59
   6  0.402  0.119  0.145-   2 2.58   1 2.59   1 2.59
   7  0.750  0.005  0.645-   3 2.58   4 2.59   4 2.59
   8  0.250  0.505  0.855-   4 2.58   3 2.59   3 2.59
 

IMPORTANT INFORMATION: All symmetrisations will be switched off!
NOSYMM: (Re-)initialisation of all symmetry stuff for point group C_1.


----------------------------------------------------------------------------------------

                                     Primitive cell                                     

  volume of cell :     184.8593

  direct lattice vectors                    reciprocal lattice vectors
     3.858100176  0.000000000  0.000000000     0.259194929  0.000000000  0.000000000
     0.000000000  4.526575088  0.000000000     0.000000000  0.220917577  0.000000000
     0.000000000  0.000000000 10.585176468     0.000000000  0.000000000  0.094471736

  length of vectors
     3.858100176  4.526575088 10.585176468     0.259194929  0.220917577  0.094471736

  position of ions in fractional coordinates (direct lattice)
     0.902173622  0.743451061  0.116293234
     0.402173670  0.243451086  0.383706663
     0.749999529  0.880803548  0.883706698
     0.249998913  0.380803590  0.616293301
     0.902173694  0.619196148  0.354521754
     0.402173573  0.119196249  0.145478256
     0.749999119  0.005058363  0.645478205
     0.249999423  0.505058446  0.854521738

  ion indices of the primitive-cell ions
   primitive index   ion index
                 1           1
                 2           2
                 3           3
                 4           4
                 5           5
                 6           6
                 7           7
                 8           8

----------------------------------------------------------------------------------------

 
 
 KPOINTS: KPOINTS created by Atomic Simulation Env

Automatic generation of k-mesh.
 Grid dimensions read from file:
 generate k-points for:    6    6    2

 Generating k-lattice:

  Cartesian coordinates                     Fractional coordinates (reciprocal lattice)
     0.043199155  0.000000000  0.000000000     0.166666667  0.000000000  0.000000000
     0.000000000  0.036819596  0.000000000     0.000000000  0.166666667  0.000000000
     0.000000000  0.000000000  0.047235868     0.000000000  0.000000000  0.500000000

  Length of vectors
     0.043199155  0.036819596  0.047235868

  Shift w.r.t. Gamma in fractional coordinates (k-lattice)
     0.000000000  0.000000000  0.000000000

 
 Subroutine IBZKPT returns following result:
 ===========================================
 
 Found     40 irreducible k-points:
 
 Following reciprocal coordinates:
            Coordinates               Weight
  0.000000  0.000000  0.000000      1.000000
  0.166667  0.000000  0.000000      2.000000
  0.333333  0.000000  0.000000      2.000000
  0.500000  0.000000  0.000000      1.000000
  0.000000  0.166667  0.000000      2.000000
  0.166667  0.166667  0.000000      2.000000
  0.166667 -0.166667  0.000000      2.000000
  0.333333  0.166667  0.000000      2.000000
  0.333333 -0.166667  0.000000      2.000000
  0.500000  0.166667  0.000000      2.000000
  0.000000  0.333333  0.000000      2.000000
  0.166667  0.333333  0.000000      2.000000
  0.166667 -0.333333  0.000000      2.000000
  0.333333  0.333333  0.000000      2.000000
  0.333333 -0.333333  0.000000      2.000000
  0.500000  0.333333  0.000000      2.000000
  0.000000  0.500000  0.000000      1.000000
  0.166667  0.500000  0.000000      2.000000
  0.333333  0.500000  0.000000      2.000000
  0.500000  0.500000  0.000000      1.000000
  0.000000  0.000000  0.500000      1.000000
  0.166667  0.000000  0.500000      2.000000
  0.333333  0.000000  0.500000      2.000000
  0.500000  0.000000  0.500000      1.000000
  0.000000  0.166667  0.500000      2.000000
  0.166667  0.166667  0.500000      2.000000
  0.166667 -0.166667  0.500000      2.000000
  0.333333  0.166667  0.500000      2.000000
  0.333333 -0.166667  0.500000      2.000000
  0.500000  0.166667  0.500000      2.000000
  0.000000  0.333333  0.500000      2.000000
  0.166667  0.333333  0.500000      2.000000
  0.166667 -0.333333  0.500000      2.000000
  0.333333  0.333333  0.500000      2.000000
  0.333333 -0.333333  0.500000      2.000000
  0.500000  0.333333  0.500000      2.000000
  0.000000  0.500000  0.500000      1.000000
  0.166667  0.500000  0.500000      2.000000
  0.333333  0.500000  0.500000      2.000000
  0.500000  0.500000  0.500000      1.000000
 
 Following cartesian coordinates:
            Coordinates               Weight
  0.000000  0.000000  0.000000      1.000000
  0.043199  0.000000  0.000000      2.000000
  0.086398  0.000000  0.000000      2.000000
  0.129597  0.000000  0.000000      1.000000
  0.000000  0.036820  0.000000      2.000000
  0.043199  0.036820  0.000000      2.000000
  0.043199 -0.036820  0.000000      2.000000
  0.086398  0.036820  0.000000      2.000000
  0.086398 -0.036820  0.000000      2.000000
  0.129597  0.036820  0.000000      2.000000
  0.000000  0.073639  0.000000      2.000000
  0.043199  0.073639  0.000000      2.000000
  0.043199 -0.073639  0.000000      2.000000
  0.086398  0.073639  0.000000      2.000000
  0.086398 -0.073639  0.000000      2.000000
  0.129597  0.073639  0.000000      2.000000
  0.000000  0.110459  0.000000      1.000000
  0.043199  0.110459  0.000000      2.000000
  0.086398  0.110459  0.000000      2.000000
  0.129597  0.110459  0.000000      1.000000
  0.000000  0.000000  0.047236      1.000000
  0.043199  0.000000  0.047236      2.000000
  0.086398  0.000000  0.047236      2.000000
  0.129597  0.000000  0.047236      1.000000
  0.000000  0.036820  0.047236      2.000000
  0.043199  0.036820  0.047236      2.000000
  0.043199 -0.036820  0.047236      2.000000
  0.086398  0.036820  0.047236      2.000000
  0.086398 -0.036820  0.047236      2.000000
  0.129597  0.036820  0.047236      2.000000
  0.000000  0.073639  0.047236      2.000000
  0.043199  0.073639  0.047236      2.000000
  0.043199 -0.073639  0.047236      2.000000
  0.086398  0.073639  0.047236      2.000000
  0.086398 -0.073639  0.047236      2.000000
  0.129597  0.073639  0.047236      2.000000
  0.000000  0.110459  0.047236      1.000000
  0.043199  0.110459  0.047236      2.000000
  0.086398  0.110459  0.047236      2.000000
  0.129597  0.110459  0.047236      1.000000
 


--------------------------------------------------------------------------------------------------------




 Dimension of arrays:
   k-points           NKPTS =     40   k-points in BZ     NKDIM =     40   number of bands    NBANDS=     32
   number of dos      NEDOS =    301   number of ions     NIONS =      8
   non local maximal  LDIM  =      5   non local SUM 2l+1 LMDIM =     13
   total plane-waves  NPLWV =  21600
   max r-space proj   IRMAX =      1   max aug-charges    IRDMAX=   6549
   dimension x,y,z NGX =    18 NGY =   24 NGZ =   50
   dimension x,y,z NGXF=    36 NGYF=   48 NGZF=  100
   support grid    NGXF=    36 NGYF=   48 NGZF=  100
   ions per type =               4   4
   NGX,Y,Z   is equivalent  to a cutoff of   7.76,  8.81,  7.85 a.u.
   NGXF,Y,Z  is equivalent  to a cutoff of  15.51, 17.63, 15.71 a.u.

 SYSTEM =  ./                                      
 POSCAR =  Ge Se                                   

 Startparameter for this run:
   NWRITE =      2    write-flag & timer
   PREC   = normal    normal or accurate (medium, high low for compatibility)
   ISTART =      0    job   : 0-new  1-cont  2-samecut
   ICHARG =      2    charge: 1-file 2-atom 10-const
   ISPIN  =      1    spin polarized calculation?
   LNONCOLLINEAR =      F non collinear calculations
   LSORBIT =      F    spin-orbit coupling
   INIWAV =      1    electr: 0-lowe 1-rand  2-diag
   LASPH  =      T    aspherical Exc in radial PAW
 Electronic Relaxation 1
   ENCUT  =  360.0 eV  26.46 Ry    5.14 a.u.   5.97  7.00 16.38*2*pi/ulx,y,z
   ENINI  =  360.0     initial cutoff
   ENAUG  =  446.8 eV  augmentation charge cutoff
   NELM   =    100;   NELMIN=  2; NELMDL= -5     # of ELM steps 
   EDIFF  = 0.1E-05   stopping-criterion for ELM
   LREAL  =      F    real-space projection
   NLSPLINE    = F    spline interpolate recip. space projectors
   LCOMPAT=      F    compatible to vasp.4.4
   GGA_COMPAT  = T    GGA compatible to vasp.4.4-vasp.4.6
   LMAXPAW     = -100 max onsite density
   LMAXMIX     =    4 max onsite mixed and CHGCAR
   VOSKOWN=      0    Vosko Wilk Nusair interpolation
   ROPT   =    0.00000   0.00000
 Ionic relaxation
   EDIFFG = 0.1E-04   stopping-criterion for IOM
   NSW    =      0    number of steps for IOM
   NBLOCK =      1;   KBLOCK =      1    inner block; outer block 
   IBRION =     -1    ionic relax: 0-MD 1-quasi-New 2-CG
   NFREE  =      0    steps in history (QN), initial steepest desc. (CG)
   ISIF   =      2    stress and relaxation
   IWAVPR =     10    prediction:  0-non 1-charg 2-wave 3-comb
   ISYM   =      0    0-nonsym 1-usesym 2-fastsym
   LCORR  =      T    Harris-Foulkes like correction to forces

   POTIM  = 0.5000    time-step for ionic-motion
   TEIN   =    0.0    initial temperature
   TEBEG  =    0.0;   TEEND  =   0.0 temperature during run
   SMASS  =  -3.00    Nose mass-parameter (am)
   estimated Nose-frequenzy (Omega)   =  0.10E-29 period in steps = 0.13E+47 mass=  -0.340E-27a.u.
   SCALEE = 1.0000    scale energy and forces
   NPACO  =    256;   APACO  = 10.0  distance and # of slots for P.C.
   PSTRESS=    0.0 pullay stress

  Mass of Ions in am
   POMASS =  72.61 78.96
  Ionic Valenz
   ZVAL   =   4.00  6.00
  Atomic Wigner-Seitz radii
   RWIGS  =  -1.00 -1.00
  virtual crystal weights 
   VCA    =   1.00  1.00
   NELECT =      40.0000    total number of electrons
   NUPDOWN=      -1.0000    fix difference up-down

 DOS related values:
   EMIN   =  10.00;   EMAX   =-10.00  energy-range for DOS
   EFERMI =   0.00;   METHOD = LEGACY      
   ISMEAR =     0;   SIGMA  =   0.05  broadening in eV -4-tet -1-fermi 0-gaus

 Electronic relaxation 2 (details)
   IALGO  =     38    algorithm
   LDIAG  =      T    sub-space diagonalisation (order eigenvalues)
   LSUBROT=      F    optimize rotation matrix (better conditioning)
   TURBO    =      0    0=normal 1=particle mesh
   IRESTART =      0    0=no restart 2=restart with 2 vectors
   NREBOOT  =      0    no. of reboots
   NMIN     =      0    reboot dimension
   EREF     =   0.00    reference energy to select bands
   IMIX   =      4    mixing-type and parameters
     AMIX     =   0.40;   BMIX     =  1.00
     AMIX_MAG =   1.60;   BMIX_MAG =  1.00
     AMIN     =   0.10
     WC   =   100.;   INIMIX=   1;  MIXPRE=   1;  MAXMIX= -45

 Intra band minimization:
   WEIMIN = 0.0000     energy-eigenvalue tresh-hold
   EBREAK =  0.78E-08  absolut break condition
   DEPER  =   0.30     relativ break condition  

   TIME   =   0.40     timestep for ELM

  volume/ion in A,a.u.               =      23.11       155.94
  Fermi-wavevector in a.u.,A,eV,Ry     =   0.982836  1.857291 13.142773  0.965967
  Thomas-Fermi vector in A             =   2.113949
 
 Write flags
   LWAVE        =      F    write WAVECAR
   LDOWNSAMPLE  =      F    k-point downsampling of WAVECAR
   LCHARG       =      F    write CHGCAR
   LVTOT        =      F    write LOCPOT, total local potential
   LVHAR        =      F    write LOCPOT, Hartree potential only
   LELF         =      F    write electronic localiz. function (ELF)
   LORBIT       =      0    0 simple, 1 ext, 2 COOP (PROOUT), +10 PAW based schemes


 Dipole corrections
   LMONO  =      F    monopole corrections only (constant potential shift)
   LDIPOL =      F    correct potential (dipole corrections)
   IDIPOL =      0    1-x, 2-y, 3-z, 4-all directions 
   EPSILON=  1.0000000 bulk dielectric constant

 Exchange correlation treatment:
   GGA     =    PE    GGA type
   LEXCH   =     8    internal setting for exchange type
   LIBXC   =     F    Libxc                    
   VOSKOWN =     0    Vosko Wilk Nusair interpolation
   LHFCALC =     F    Hartree Fock is set to
   LHFONE  =     F    Hartree Fock one center treatment
   AEXX    =    0.0000 exact exchange contribution

 Linear response parameters
   LEPSILON=     F    determine dielectric tensor
   LRPA    =     F    only Hartree local field effects (RPA)
   LNABLA  =     F    use nabla operator in PAW spheres
   LVEL    =     F    velocity operator in full k-point grid
   CSHIFT  =0.1000    complex shift for real part using Kramers Kronig
   OMEGAMAX=  -1.0    maximum frequency
   DEG_THRESHOLD= 0.2000000E-02 threshold for treating states as degnerate
   RTIME   =   -0.100 relaxation time in fs
  (WPLASMAI=    0.000 imaginary part of plasma frequency in eV, 0.658/RTIME)
   DFIELD  = 0.0000000 0.0000000 0.0000000 field for delta impulse in time
 
  Optional k-point grid parameters
   LKPOINTS_OPT  =     F    use optional k-point grid
   KPOINTS_OPT_MODE=     1    mode for optional k-point grid
 
 Orbital magnetization related:
   ORBITALMAG=     F  switch on orbital magnetization
   LCHIMAG   =     F  perturbation theory with respect to B field
   DQ        =  0.001000  dq finite difference perturbation B field
   LLRAUG    =     F  two centre corrections for induced B field
   LBONE     =     F  B-component reconstruction in AE one-centre
   LVGVCALC  =     T  calculate vGv susceptibility
   LVGVAPPL  =     F  apply vGv susceptibility instead of pGv for G=0

 Random number generation:
   RANDOM_GENERATOR = DEFAULT
   PCG_SEED         = not used


--------------------------------------------------------------------------------------------------------


 Static calculation
 charge density and potential will be updated during run
 non-spin polarized calculation
 Variant of blocked Davidson
 Davidson routine will perform the subspace rotation
 perform sub-space diagonalisation
    after iterative eigenvector-optimisation
 modified Broyden-mixing scheme, WC =      100.0
 initial mixing is a Kerker type mixing with AMIX =  0.4000 and BMIX =      1.0000
 Hartree-type preconditioning will be used
 using additional bands            12
 reciprocal scheme for non local part
 use partial core corrections
 calculate Harris-corrections to forces 
   (improved forces if not selfconsistent)
 use gradient corrections 
 use of overlap-Matrix (Vanderbilt PP)
 Gauss-broadening in eV      SIGMA  =   0.05


--------------------------------------------------------------------------------------------------------


  energy-cutoff  :      360.00
  volume of cell :      184.86
      direct lattice vectors                 reciprocal lattice vectors
     3.858100176  0.000000000  0.000000000     0.259194929  0.000000000  0.000000000
     0.000000000  4.526575088  0.000000000     0.000000000  0.220917577  0.000000000
     0.000000000  0.000000000 10.585176468     0.000000000  0.000000000  0.094471736

  length of vectors
     3.858100176  4.526575088 10.585176468     0.259194929  0.220917577  0.094471736


 
 k-points in units of 2pi/SCALE and weight: KPOINTS created by Atomic Simulation Env
   0.00000000  0.00000000  0.00000000       0.014
   0.04319915  0.00000000  0.00000000       0.028
   0.08639831  0.00000000  0.00000000       0.028
   0.12959746  0.00000000  0.00000000       0.014
   0.00000000  0.03681960  0.00000000       0.028
   0.04319915  0.03681960  0.00000000       0.028
   0.04319915 -0.03681960  0.00000000       0.028
   0.08639831  0.03681960  0.00000000       0.028
   0.08639831 -0.03681960  0.00000000       0.028
   0.12959746  0.03681960  0.00000000       0.028
   0.00000000  0.07363919  0.00000000       0.028
   0.04319915  0.07363919  0.00000000       0.028
   0.04319915 -0.07363919  0.00000000       0.028
   0.08639831  0.07363919  0.00000000       0.028
   0.08639831 -0.07363919  0.00000000       0.028
   0.12959746  0.07363919  0.00000000       0.028
   0.00000000  0.11045879  0.00000000       0.014
   0.04319915  0.11045879  0.00000000       0.028
   0.08639831  0.11045879  0.00000000       0.028
   0.12959746  0.11045879  0.00000000       0.014
   0.00000000  0.00000000  0.04723587       0.014
   0.04319915  0.00000000  0.04723587       0.028
   0.08639831  0.00000000  0.04723587       0.028
   0.12959746  0.00000000  0.04723587       0.014
   0.00000000  0.03681960  0.04723587       0.028
   0.04319915  0.03681960  0.04723587       0.028
   0.04319915 -0.03681960  0.04723587       0.028
   0.08639831  0.03681960  0.04723587       0.028
   0.08639831 -0.03681960  0.04723587       0.028
   0.12959746  0.03681960  0.04723587       0.028
   0.00000000  0.07363919  0.04723587       0.028
   0.04319915  0.07363919  0.04723587       0.028
   0.04319915 -0.07363919  0.04723587       0.028
   0.08639831  0.07363919  0.04723587       0.028
   0.08639831 -0.07363919  0.04723587       0.028
   0.12959746  0.07363919  0.04723587       0.028
   0.00000000  0.11045879  0.04723587       0.014
   0.04319915  0.11045879  0.04723587       0.028
   0.08639831  0.11045879  0.04723587       0.028
   0.12959746  0.11045879  0.04723587       0.014
 
 k-points in reciprocal lattice and weights: KPOINTS created by Atomic Simulation Env
   0.00000000  0.00000000  0.00000000       0.014
   0.16666667  0.00000000  0.00000000       0.028
   0.33333333  0.00000000  0.00000000       0.028
   0.50000000  0.00000000  0.00000000       0.014
   0.00000000  0.16666667  0.00000000       0.028
   0.16666667  0.16666667  0.00000000       0.028
   0.16666667 -0.16666667  0.00000000       0.028
   0.33333333  0.16666667  0.00000000       0.028
   0.33333333 -0.16666667  0.00000000       0.028
   0.50000000  0.16666667  0.00000000       0.028
   0.00000000  0.33333333  0.00000000       0.028
   0.16666667  0.33333333  0.00000000       0.028
   0.16666667 -0.33333333  0.00000000       0.028
   0.33333333  0.33333333  0.00000000       0.028
   0.33333333 -0.33333333  0.00000000       0.028
   0.50000000  0.33333333  0.00000000       0.028
   0.00000000  0.50000000  0.00000000       0.014
   0.16666667  0.50000000  0.00000000       0.028
   0.33333333  0.50000000  0.00000000       0.028
   0.50000000  0.50000000  0.00000000       0.014
   0.00000000  0.00000000  0.50000000       0.014
   0.16666667  0.00000000  0.50000000       0.028
   0.33333333  0.00000000  0.50000000       0.028
   0.50000000  0.00000000  0.50000000       0.014
   0.00000000  0.16666667  0.50000000       0.028
   0.16666667  0.16666667  0.50000000       0.028
   0.16666667 -0.16666667  0.50000000       0.028
   0.33333333  0.16666667  0.50000000       0.028
   0.33333333 -0.16666667  0.50000000       0.028
   0.50000000  0.16666667  0.50000000       0.028
   0.00000000  0.33333333  0.50000000       0.028
   0.16666667  0.33333333  0.50000000       0.028
   0.16666667 -0.33333333  0.50000000       0.028
   0.33333333  0.33333333  0.50000000       0.028
   0.33333333 -0.33333333  0.50000000       0.028
   0.50000000  0.33333333  0.50000000       0.028
   0.00000000  0.50000000  0.50000000       0.014
   0.16666667  0.50000000  0.50000000       0.028
   0.33333333  0.50000000  0.50000000       0.028
   0.50000000  0.50000000  0.50000000       0.014
 
 position of ions in fractional coordinates (direct lattice) 
   0.90217362  0.74345106  0.11629323
   0.40217367  0.24345109  0.38370666
   0.74999953  0.88080355  0.88370670
   0.24999891  0.38080359  0.61629330
   0.90217369  0.61919615  0.35452175
   0.40217357  0.11919625  0.14547826
   0.74999912  0.00505836  0.64547820
   0.24999942  0.50505845  0.85452174
 
 position of ions in cartesian coordinates  (Angst):
   3.48067621  3.36528705  1.23098441
   1.55162631  1.10199962  4.06160274
   2.89357331  3.98702340  9.35419135
   0.96452085  1.72373604  6.52357335
   3.48067649  2.80283786  3.75267533
   1.55162593  0.53955077  1.53991301
   2.89357173  0.02289706  6.83250071
   0.96452282  2.28618498  9.04526339
 


--------------------------------------------------------------------------------------------------------


 k-point   1 :   0.0000 0.0000 0.0000  plane waves:    2825
 k-point   2 :   0.1667 0.0000 0.0000  plane waves:    2856
 k-point   3 :   0.3333 0.0000 0.0000  plane waves:    2864
 k-point   4 :   0.5000 0.0000 0.0000  plane waves:    2880
 k-point   5 :   0.0000 0.1667 0.0000  plane waves:    2850
 k-point   6 :   0.1667 0.1667 0.0000  plane waves:    2853
 k-point   7 :   0.1667-0.1667 0.0000  plane waves:    2853
 k-point   8 :   0.3333 0.1667 0.0000  plane waves:    2873
 k-point   9 :   0.3333-0.1667 0.0000  plane waves:    2873
 k-point  10 :   0.5000 0.1667 0.0000  plane waves:    2866
 k-point  11 :   0.0000 0.3333 0.0000  plane waves:    2864
 k-point  12 :   0.1667 0.3333 0.0000  plane waves:    2871
 k-point  13 :   0.1667-0.3333 0.0000  plane waves:    2871
 k-point  14 :   0.3333 0.3333 0.0000  plane waves:    2883
 k-point  15 :   0.3333-0.3333 0.0000  plane waves:    2883
 k-point  16 :   0.5000 0.3333 0.0000  plane waves:    2880
 k-point  17 :   0.0000 0.5000 0.0000  plane waves:    2874
 k-point  18 :   0.1667 0.5000 0.0000  plane waves:    2880
 k-point  19 :   0.3333 0.5000 0.0000  plane waves:    2888
 k-point  20 :   0.5000 0.5000 0.0000  plane waves:    2896
 k-point  21 :   0.0000 0.0000 0.5000  plane waves:    2828
 k-point  22 :   0.1667 0.0000 0.5000  plane waves:    2838
 k-point  23 :   0.3333 0.0000 0.5000  plane waves:    2868
 k-point  24 :   0.5000 0.0000 0.5000  plane waves:    2852
 k-point  25 :   0.0000 0.1667 0.5000  plane waves:    2846
 k-point  26 :   0.1667 0.1667 0.5000  plane waves:    2868
 k-point  27 :   0.1667-0.1667 0.5000  plane waves:    2868
 k-point  28 :   0.3333 0.1667 0.5000  plane waves:    2866
 k-point  29 :   0.3333-0.1667 0.5000  plane waves:    2866
 k-point  30 :   0.5000 0.1667 0.5000  plane waves:    2884
 k-point  31 :   0.0000 0.3333 0.5000  plane waves:    2852
 k-point  32 :   0.1667 0.3333 0.5000  plane waves:    2862
 k-point  33 :   0.1667-0.3333 0.5000  plane waves:    2862
 k-point  34 :   0.3333 0.3333 0.5000  plane waves:    2874
 k-point  35 :   0.3333-0.3333 0.5000  plane waves:    2874
 k-point  36 :   0.5000 0.3333 0.5000  plane waves:    2892
 k-point  37 :   0.0000 0.5000 0.5000  plane waves:    2872
 k-point  38 :   0.1667 0.5000 0.5000  plane waves:    2856
 k-point  39 :   0.3333 0.5000 0.5000  plane waves:    2876
 k-point  40 :   0.5000 0.5000 0.5000  plane waves:    2872

 maximum and minimum number of plane-waves per node :       592      553

 maximum number of plane-waves:      2896
 maximum index in each direction: 
   IXMAX=    5   IYMAX=    7   IZMAX=   16
   IXMIN=   -6   IYMIN=   -7   IZMIN=  -16


 parallel 3D FFT for wavefunctions:
    minimum data exchange during FFTs selected (reduces bandwidth)
 parallel 3D FFT for charge:
    minimum data exchange during FFTs selected (reduces bandwidth)


 total amount of memory used by VASP MPI-rank0    36587. kBytes
=======================================================================

   base      :      30000. kBytes
   nonl-proj :       5001. kBytes
   fftplans  :        306. kBytes
   grid      :        466. kBytes
   one-center:         16. kBytes
   wavefun   :        798. kBytes
 
     INWAV:  cpu time      0.0000: real time      0.0001
 Broyden mixing: mesh for mixing (old mesh)
   NGX = 11   NGY = 15   NGZ = 33
  (NGX  = 36   NGY  = 48   NGZ  =100)
  gives a total of   5445 points

 initial charge density was supplied:
 charge density of overlapping atoms calculated
 number of electron      40.0000000 magnetization 
 keeping initial charge density in first step


--------------------------------------------------------------------------------------------------------


 Maximum index for augmentation-charges           379 (set IRDMAX)


--------------------------------------------------------------------------------------------------------


 First call to EWALD:  gamma=   0.311
 Maximum number of real-space cells 4x 3x 2
 Maximum number of reciprocal cells 2x 2x 5

    FEWALD:  cpu time      0.0011: real time      0.0011


--------------------------------------- Ionic step        1  -------------------------------------------




--------------------------------------- Iteration      1(   1)  ---------------------------------------


    POTLOK:  cpu time      0.0080: real time      0.0081
    SETDIJ:  cpu time      0.2205: real time      0.2210
     EDDAV:  cpu time      0.3057: real time      0.3073
       DOS:  cpu time      0.0011: real time      0.0011
    --------------------------------------------
      LOOP:  cpu time      0.5353: real time      0.5375

 eigenvalue-minimisations  :  2560
 total energy-change (2. order) : 0.1304809E+03  (-0.1300951E+04)
 number of electron      40.0000000 magnetization 
 augmentation part       40.0000000 magnetization 

 Free energy of the ion-electron system (eV)
  ---------------------------------------------------
  alpha Z        PSCENC =        91.66130333
  Ewald energy   TEWEN  =     -1444.63827861
  -Hartree energ DENC   =      -117.40489717
  -exchange      EXHF   =         0.00000000
  -V(xc)+E(xc)   XCENC  =       -32.64023007
  PAW double counting   =      1193.78262552    -1080.73714043
  entropy T*S    EENTRO =        -0.00277932
  eigenvalues    EBANDS =        71.97566357
  atomic energy  EATOM  =      1448.48460880
  Solvation  Ediel_sol  =         0.00000000
  ---------------------------------------------------
  free energy    TOTEN  =       130.48087562 eV

  energy without entropy =      130.48365494  energy(sigma->0) =      130.48226528


--------------------------------------------------------------------------------------------------------




--------------------------------------- Iteration      1(   2)  ---------------------------------------


     EDDAV:  cpu time      0.4435: real time      0.4471
       DOS:  cpu time      0.0006: real time      0.0006
    --------------------------------------------
      LOOP:  cpu time      0.4441: real time      0.4477

 eigenvalue-minimisations  :  3728
 total energy-change (2. order) :-0.1557026E+03  (-0.1514460E+03)
 number of electron      40.0000000 magnetization 
 augmentation part       40.0000000 magnetization 

 Free energy of the ion-electron system (eV)
  ---------------------------------------------------
  alpha Z        PSCENC =        91.66130333
  Ewald energy   TEWEN  =     -1444.63827861
  -Hartree energ DENC   =      -117.40489717
  -exchange      EXHF   =         0.00000000
  -V(xc)+E(xc)   XCENC  =       -32.64023007
  PAW double counting   =      1193.78262552    -1080.73714043
  entropy T*S    EENTRO =        -0.00000000
  eigenvalues    EBANDS =       -83.72974513
  atomic energy  EATOM  =      1448.48460880
  Solvation  Ediel_sol  =         0.00000000
  ---------------------------------------------------
  free energy    TOTEN  =       -25.22175376 eV

  energy without entropy =      -25.22175376  energy(sigma->0) =      -25.22175376


--------------------------------------------------------------------------------------------------------




--------------------------------------- Iteration      1(   3)  ---------------------------------------


     EDDAV:  cpu time      0.3666: real time      0.3685
       DOS:  cpu time      0.0005: real time      0.0005
    --------------------------------------------
      LOOP:  cpu time      0.3671: real time      0.3691

 eigenvalue-minimisations  :  3200
 total energy-change (2. order) :-0.8181560E+01  (-0.8166521E+01)
 number of electron      40.0000000 magnetization 
 augmentation part       40.0000000 magnetization 

 Free energy of the ion-electron system (eV)
  ---------------------------------------------------
  alpha Z        PSCENC =        91.66130333
  Ewald energy   TEWEN  =     -1444.63827861
  -Hartree energ DENC   =      -117.40489717
  -exchange      EXHF   =         0.00000000
  -V(xc)+E(xc)   XCENC  =       -32.64023007
  PAW double counting   =      1193.78262552    -1080.73714043
  entropy T*S    EENTRO =        -0.00000000
  eigenvalues    EBANDS =       -91.91130541
  atomic energy  EATOM  =      1448.48460880
  Solvation  Ediel_sol  =         0.00000000
  ---------------------------------------------------
  free energy    TOTEN  =       -33.40331404 eV

  energy without entropy =      -33.40331404  energy(sigma->0) =      -33.40331404


--------------------------------------------------------------------------------------------------------




--------------------------------------- Iteration      1(   4)  ---------------------------------------


     EDDAV:  cpu time      0.4110: real time      0.4131
       DOS:  cpu time      0.0006: real time      0.0006
    --------------------------------------------
      LOOP:  cpu time      0.4116: real time      0.4136

 eigenvalue-minimisations  :  3552
 total energy-change (2. order) :-0.5332495E-01  (-0.5331665E-01)
 number of electron      40.0000000 magnetization 
 augmentation part       40.0000000 magnetization 

 Free energy of the ion-electron system (eV)
  ---------------------------------------------------
  alpha Z        PSCENC =        91.66130333
  Ewald energy   TEWEN  =     -1444.63827861
  -Hartree energ DENC   =      -117.40489717
  -exchange      EXHF   =         0.00000000
  -V(xc)+E(xc)   XCENC  =       -32.64023007
  PAW double counting   =      1193.78262552    -1080.73714043
  entropy T*S    EENTRO =        -0.00000000
  eigenvalues    EBANDS =       -91.96463036
  atomic energy  EATOM  =      1448.48460880
  Solvation  Ediel_sol  =         0.00000000
  ---------------------------------------------------
  free energy    TOTEN  =       -33.45663899 eV

  energy without entropy =      -33.45663899  energy(sigma->0) =      -33.45663899


--------------------------------------------------------------------------------------------------------




--------------------------------------- Iteration      1(   5)  ---------------------------------------


     EDDAV:  cpu time      0.4081: real time      0.4107
       DOS:  cpu time      0.0096: real time      0.0097
    CHARGE:  cpu time      0.0061: real time      0.0061
    MIXING:  cpu time      0.0004: real time      0.0004
    --------------------------------------------
      LOOP:  cpu time      0.4242: real time      0.4269

 eigenvalue-minimisations  :  3120
 total energy-change (2. order) :-0.3485938E-03  (-0.3485882E-03)
 number of electron      40.0000026 magnetization 
 augmentation part       -7.3878501 magnetization 

 Broyden mixing:
  rms(total) = 0.67329E+00    rms(broyden)= 0.67328E+00
  rms(prec ) = 0.74842E+00
  weight for this iteration     100.00

 Free energy of the ion-electron system (eV)
  ---------------------------------------------------
  alpha Z        PSCENC =        91.66130333
  Ewald energy   TEWEN  =     -1444.63827861
  -Hartree energ DENC   =      -117.40489717
  -exchange      EXHF   =         0.00000000
  -V(xc)+E(xc)   XCENC  =       -32.64023007
  PAW double counting   =      1193.78262552    -1080.73714043
  entropy T*S    EENTRO =        -0.00000000
  eigenvalues    EBANDS =       -91.96497895
  atomic energy  EATOM  =      1448.48460880
  Solvation  Ediel_sol  =         0.00000000
  ---------------------------------------------------
  free energy    TOTEN  =       -33.45698758 eV

  energy without entropy =      -33.45698758  energy(sigma->0) =      -33.45698758


--------------------------------------------------------------------------------------------------------




--------------------------------------- Iteration      1(   6)  ---------------------------------------


    POTLOK:  cpu time      0.0074: real time      0.0075
    SETDIJ:  cpu time      0.2190: real time      0.2194
     EDDAV:  cpu time      0.3994: real time      0.4014
       DOS:  cpu time      0.0005: real time      0.0005
    CHARGE:  cpu time      0.0051: real time      0.0052
    MIXING:  cpu time      0.0005: real time      0.0005
    --------------------------------------------
      LOOP:  cpu time      0.6319: real time      0.6345

 eigenvalue-minimisations  :  3456
 total energy-change (2. order) : 0.3119389E+00  (-0.5579829E-01)
 number of electron      40.0000026 magnetization 
 augmentation part       -7.3444268 magnetization 

 Broyden mixing:
  rms(total) = 0.42539E+00    rms(broyden)= 0.42538E+00
  rms(prec ) = 0.44812E+00
  weight for this iteration     100.00

 eigenvalues of (default mixing * dielectric matrix)
  average eigenvalue GAMMA=   2.3581
  2.3581

 Free energy of the ion-electron system (eV)
  ---------------------------------------------------
  alpha Z        PSCENC =        91.66130333
  Ewald energy   TEWEN  =     -1444.63827861
  -Hartree energ DENC   =      -122.60772377
  -exchange      EXHF   =         0.00000000
  -V(xc)+E(xc)   XCENC  =       -32.05507548
  PAW double counting   =      1483.68713943    -1370.99440881
  entropy T*S    EENTRO =        -0.00000000
  eigenvalues    EBANDS =       -86.68261356
  atomic energy  EATOM  =      1448.48460880
  Solvation  Ediel_sol  =         0.00000000
  ---------------------------------------------------
  free energy    TOTEN  =       -33.14504867 eV

  energy without entropy =      -33.14504867  energy(sigma->0) =      -33.14504867


--------------------------------------------------------------------------------------------------------




--------------------------------------- Iteration      1(   7)  ---------------------------------------


    POTLOK:  cpu time      0.0073: real time      0.0074
    SETDIJ:  cpu time      0.2179: real time      0.2187
     EDDAV:  cpu time      0.3453: real time      0.3469
       DOS:  cpu time      0.0006: real time      0.0006
    CHARGE:  cpu time      0.0051: real time      0.0051
    MIXING:  cpu time      0.0004: real time      0.0004
    --------------------------------------------
      LOOP:  cpu time      0.5766: real time      0.5791

 eigenvalue-minimisations  :  2944
 total energy-change (2. order) : 0.2414447E-01  (-0.2160398E-01)
 number of electron      40.0000025 magnetization 
 augmentation part       -7.3259805 magnetization 

 Broyden mixing:
  rms(total) = 0.10654E+00    rms(broyden)= 0.10654E+00
  rms(prec ) = 0.11484E+00
  weight for this iteration     100.00

 eigenvalues of (default mixing * dielectric matrix)
  average eigenvalue GAMMA=   1.8003
  1.1996  2.4010

 Free energy of the ion-electron system (eV)
  ---------------------------------------------------
  alpha Z        PSCENC =        91.66130333
  Ewald energy   TEWEN  =     -1444.63827861
  -Hartree energ DENC   =      -125.81625971
  -exchange      EXHF   =         0.00000000
  -V(xc)+E(xc)   XCENC  =       -31.51536675
  PAW double counting   =      1883.88756758    -1771.51516455
  entropy T*S    EENTRO =        -0.00000000
  eigenvalues    EBANDS =       -83.66931429
  atomic energy  EATOM  =      1448.48460880
  Solvation  Ediel_sol  =         0.00000000
  ---------------------------------------------------
  free energy    TOTEN  =       -33.12090420 eV

  energy without entropy =      -33.12090420  energy(sigma->0) =      -33.12090420


--------------------------------------------------------------------------------------------------------




--------------------------------------- Iteration      1(   8)  ---------------------------------------


    POTLOK:  cpu time      0.0072: real time      0.0073
    SETDIJ:  cpu time      0.2182: real time      0.2187
     EDDAV:  cpu time      0.4110: real time      0.4130
       DOS:  cpu time      0.0006: real time      0.0006
    CHARGE:  cpu time      0.0053: real time      0.0054
    MIXING:  cpu time      0.0005: real time      0.0005
    --------------------------------------------
      LOOP:  cpu time      0.6428: real time      0.6455

 eigenvalue-minimisations  :  3280
 total energy-change (2. order) : 0.1554347E-02  (-0.1883291E-02)
 number of electron      40.0000026 magnetization 
 augmentation part       -7.3324417 magnetization 

 Broyden mixing:
  rms(total) = 0.18311E-01    rms(broyden)= 0.18311E-01
  rms(prec ) = 0.21627E-01
  weight for this iteration     100.00

 eigenvalues of (default mixing * dielectric matrix)
  average eigenvalue GAMMA=   1.7323
  2.5174  1.3397  1.3397

 Free energy of the ion-electron system (eV)
  ---------------------------------------------------
  alpha Z        PSCENC =        91.66130333
  Ewald energy   TEWEN  =     -1444.63827861
  -Hartree energ DENC   =      -125.86778313
  -exchange      EXHF   =         0.00000000
  -V(xc)+E(xc)   XCENC  =       -31.40744267
  PAW double counting   =      2001.89853333    -1889.58309354
  entropy T*S    EENTRO =        -0.00000000
  eigenvalues    EBANDS =       -83.66719735
  atomic energy  EATOM  =      1448.48460880
  Solvation  Ediel_sol  =         0.00000000
  ---------------------------------------------------
  free energy    TOTEN  =       -33.11934985 eV

  energy without entropy =      -33.11934985  energy(sigma->0) =      -33.11934985


--------------------------------------------------------------------------------------------------------




--------------------------------------- Iteration      1(   9)  ---------------------------------------


    POTLOK:  cpu time      0.0073: real time      0.0074
    SETDIJ:  cpu time      0.2182: real time      0.2187
     EDDAV:  cpu time      0.3914: real time      0.3933
       DOS:  cpu time      0.0005: real time      0.0005
    CHARGE:  cpu time      0.0052: real time      0.0052
    MIXING:  cpu time      0.0005: real time      0.0005
    --------------------------------------------
      LOOP:  cpu time      0.6232: real time      0.6257

 eigenvalue-minimisations  :  3376
 total energy-change (2. order) :-0.3360257E-03  (-0.2828628E-03)
 number of electron      40.0000026 magnetization 
 augmentation part       -7.3327416 magnetization 

 Broyden mixing:
  rms(total) = 0.62905E-02    rms(broyden)= 0.62905E-02
  rms(prec ) = 0.69581E-02
  weight for this iteration     100.00

 eigenvalues of (default mixing * dielectric matrix)
  average eigenvalue GAMMA=   1.6926
  2.1802  2.1802  1.2050  1.2050

 Free energy of the ion-electron system (eV)
  ---------------------------------------------------
  alpha Z        PSCENC =        91.66130333
  Ewald energy   TEWEN  =     -1444.63827861
  -Hartree energ DENC   =      -126.05969508
  -exchange      EXHF   =         0.00000000
  -V(xc)+E(xc)   XCENC  =       -31.37338069
  PAW double counting   =      2016.76921903    -1904.46138200
  entropy T*S    EENTRO =        -0.00000000
  eigenvalues    EBANDS =       -83.50208067
  atomic energy  EATOM  =      1448.48460880
  Solvation  Ediel_sol  =         0.00000000
  ---------------------------------------------------
  free energy    TOTEN  =       -33.11968588 eV

  energy without entropy =      -33.11968588  energy(sigma->0) =      -33.11968588


--------------------------------------------------------------------------------------------------------




--------------------------------------- Iteration      1(  10)  ---------------------------------------


    POTLOK:  cpu time      0.0073: real time      0.0075
    SETDIJ:  cpu time      0.2157: real time      0.2163
     EDDAV:  cpu time      0.3767: real time      0.3785
       DOS:  cpu time      0.0006: real time      0.0006
    CHARGE:  cpu time      0.0051: real time      0.0051
    MIXING:  cpu time      0.0005: real time      0.0005
    --------------------------------------------
      LOOP:  cpu time      0.6058: real time      0.6084

 eigenvalue-minimisations  :  3360
 total energy-change (2. order) :-0.7534862E-04  (-0.1968482E-04)
 number of electron      40.0000026 magnetization 
 augmentation part       -7.3327892 magnetization 

 Broyden mixing:
  rms(total) = 0.23289E-02    rms(broyden)= 0.23289E-02
  rms(prec ) = 0.29141E-02
  weight for this iteration     100.00

 eigenvalues of (default mixing * dielectric matrix)
  average eigenvalue GAMMA=   1.7407
  2.6076  2.3140  1.1165  1.3326  1.3326

 Free energy of the ion-electron system (eV)
  ---------------------------------------------------
  alpha Z        PSCENC =        91.66130333
  Ewald energy   TEWEN  =     -1444.63827861
  -Hartree energ DENC   =      -126.09043698
  -exchange      EXHF   =         0.00000000
  -V(xc)+E(xc)   XCENC  =       -31.37036287
  PAW double counting   =      2010.82483393    -1898.51251861
  entropy T*S    EENTRO =        -0.00000000
  eigenvalues    EBANDS =       -83.47891021
  atomic energy  EATOM  =      1448.48460880
  Solvation  Ediel_sol  =         0.00000000
  ---------------------------------------------------
  free energy    TOTEN  =       -33.11976123 eV

  energy without entropy =      -33.11976123  energy(sigma->0) =      -33.11976123


--------------------------------------------------------------------------------------------------------




--------------------------------------- Iteration      1(  11)  ---------------------------------------


    POTLOK:  cpu time      0.0073: real time      0.0074
    SETDIJ:  cpu time      0.2153: real time      0.2159
     EDDAV:  cpu time      0.3737: real time      0.3752
       DOS:  cpu time      0.0006: real time      0.0006
    CHARGE:  cpu time      0.0057: real time      0.0057
    MIXING:  cpu time      0.0005: real time      0.0005
    --------------------------------------------
      LOOP:  cpu time      0.6031: real time      0.6053

 eigenvalue-minimisations  :  3120
 total energy-change (2. order) :-0.2982305E-04  (-0.3808478E-05)
 number of electron      40.0000026 magnetization 
 augmentation part       -7.3328377 magnetization 

 Broyden mixing:
  rms(total) = 0.10465E-02    rms(broyden)= 0.10465E-02
  rms(prec ) = 0.11623E-02
  weight for this iteration     100.00

 eigenvalues of (default mixing * dielectric matrix)
  average eigenvalue GAMMA=   1.7172
  2.6579  2.3308  1.9159  1.2480  1.2480  0.9025

 Free energy of the ion-electron system (eV)
  ---------------------------------------------------
  alpha Z        PSCENC =        91.66130333
  Ewald energy   TEWEN  =     -1444.63827861
  -Hartree energ DENC   =      -126.12506163
  -exchange      EXHF   =         0.00000000
  -V(xc)+E(xc)   XCENC  =       -31.36384692
  PAW double counting   =      2012.05305549    -1899.74099508
  entropy T*S    EENTRO =        -0.00000000
  eigenvalues    EBANDS =       -83.45057643
  atomic energy  EATOM  =      1448.48460880
  Solvation  Ediel_sol  =         0.00000000
  ---------------------------------------------------
  free energy    TOTEN  =       -33.11979105 eV

  energy without entropy =      -33.11979105  energy(sigma->0) =      -33.11979105


--------------------------------------------------------------------------------------------------------




--------------------------------------- Iteration      1(  12)  ---------------------------------------


    POTLOK:  cpu time      0.0073: real time      0.0074
    SETDIJ:  cpu time      0.2190: real time      0.2197
     EDDAV:  cpu time      0.4294: real time      0.4312
       DOS:  cpu time      0.0005: real time      0.0005
    CHARGE:  cpu time      0.0052: real time      0.0053
    MIXING:  cpu time      0.0005: real time      0.0005
    --------------------------------------------
      LOOP:  cpu time      0.6620: real time      0.6645

 eigenvalue-minimisations  :  3520
 total energy-change (2. order) :-0.1354442E-05  (-0.4405066E-06)
 number of electron      40.0000026 magnetization 
 augmentation part       -7.3327259 magnetization 

 Broyden mixing:
  rms(total) = 0.33908E-03    rms(broyden)= 0.33908E-03
  rms(prec ) = 0.37594E-03
  weight for this iteration     100.00

 eigenvalues of (default mixing * dielectric matrix)
  average eigenvalue GAMMA=   1.7310
  2.9394  2.4829  1.7322  0.9939  1.5144  1.2272  1.2272

 Free energy of the ion-electron system (eV)
  ---------------------------------------------------
  alpha Z        PSCENC =        91.66130333
  Ewald energy   TEWEN  =     -1444.63827861
  -Hartree energ DENC   =      -126.14049603
  -exchange      EXHF   =         0.00000000
  -V(xc)+E(xc)   XCENC  =       -31.36268812
  PAW double counting   =      2011.41780564    -1899.10552771
  entropy T*S    EENTRO =        -0.00000000
  eigenvalues    EBANDS =       -83.43651971
  atomic energy  EATOM  =      1448.48460880
  Solvation  Ediel_sol  =         0.00000000
  ---------------------------------------------------
  free energy    TOTEN  =       -33.11979240 eV

  energy without entropy =      -33.11979240  energy(sigma->0) =      -33.11979240


--------------------------------------------------------------------------------------------------------




--------------------------------------- Iteration      1(  13)  ---------------------------------------


    POTLOK:  cpu time      0.0073: real time      0.0075
    SETDIJ:  cpu time      0.2184: real time      0.2188
     EDDAV:  cpu time      0.2985: real time      0.3001
       DOS:  cpu time      0.0005: real time      0.0005
    --------------------------------------------
      LOOP:  cpu time      0.5247: real time      0.5268

 eigenvalue-minimisations  :  2176
 total energy-change (2. order) :-0.9018669E-07  (-0.7530443E-07)
 number of electron      40.0000026 magnetization 
 augmentation part       -7.3327259 magnetization 

 Free energy of the ion-electron system (eV)
  ---------------------------------------------------
  alpha Z        PSCENC =        91.66130333
  Ewald energy   TEWEN  =     -1444.63827861
  -Hartree energ DENC   =      -126.14414688
  -exchange      EXHF   =         0.00000000
  -V(xc)+E(xc)   XCENC  =       -31.36232103
  PAW double counting   =      2011.12664967    -1898.81414554
  entropy T*S    EENTRO =        -0.00000000
  eigenvalues    EBANDS =       -83.43346223
  atomic energy  EATOM  =      1448.48460880
  Solvation  Ediel_sol  =         0.00000000
  ---------------------------------------------------
  free energy    TOTEN  =       -33.11979249 eV

  energy without entropy =      -33.11979249  energy(sigma->0) =      -33.11979249


--------------------------------------------------------------------------------------------------------




 average (electrostatic) potential at core
  the test charge radii are     1.1631  1.0808
  (the norm of the test charge is              1.0000)
       1 -33.1002       2 -33.1002       3 -33.1002       4 -33.1002       5 -54.6319
       6 -54.6319       7 -54.6319       8 -54.6319
 
 
 
 E-fermi :   4.0140     XC(G=0):  -9.4737     alpha+bet : -9.1315

 Fermi energy:         4.0139774273

 k-point     1 :       0.0000    0.0000    0.0000
  band No.  band energies     occupation 
      1     -10.7932      2.00000
      2     -10.3006      2.00000
      3      -9.5157      2.00000
      4      -8.8408      2.00000
      5      -5.0465      2.00000
      6      -3.4794      2.00000
      7      -3.4241      2.00000
      8      -1.8238      2.00000
      9      -1.3335      2.00000
     10      -0.1618      2.00000
     11       0.3142      2.00000
     12       0.4943      2.00000
     13       0.7004      2.00000
     14       0.7648      2.00000
     15       1.6601      2.00000
     16       1.6835      2.00000
     17       2.1955      2.00000
     18       2.6067      2.00000
     19       3.0255      2.00000
     20       3.1362      2.00000
     21       4.2482      0.00000
     22       5.8894      0.00000
     23       5.9118      0.00000
     24       6.2103      0.00000
     25       6.2757      0.00000
     26       7.0442      0.00000
     27       7.6840      0.00000
     28       8.3723      0.00000
     29       8.4583      0.00000
     30       9.1846      0.00000
     31       9.9274      0.00000
     32       9.9944      0.00000

 k-point     2 :       0.1667    0.0000    0.0000
  band No.  band energies     occupation 
      1     -10.5966      2.00000
      2     -10.1237      2.00000
      3      -9.3837      2.00000
      4      -8.7867      2.00000
      5      -5.3076      2.00000
      6      -3.7115      2.00000
      7      -3.6805      2.00000
      8      -2.1453      2.00000
      9      -1.4484      2.00000
     10      -0.1576      2.00000
     11       0.2089      2.00000
     12       0.4001      2.00000
     13       0.7101      2.00000
     14       0.7499      2.00000
     15       1.2123      2.00000
     16       1.8713      2.00000
     17       2.2581      2.00000
     18       2.3343      2.00000
     19       3.1469      2.00000
     20       3.2380      2.00000
     21       4.4532      0.00000
     22       5.3271      0.00000
     23       6.2699      0.00000
     24       6.5906      0.00000
     25       6.6024      0.00000
     26       6.9883      0.00000
     27       7.0042      0.00000
     28       7.9791      0.00000
     29       8.1965      0.00000
     30       8.3087      0.00000
     31       9.5558      0.00000
     32       9.7391      0.00000

 k-point     3 :       0.3333    0.0000    0.0000
  band No.  band energies     occupation 
      1     -10.0570      2.00000
      2      -9.6503      2.00000
      3      -9.1616      2.00000
      4      -8.7817      2.00000
      5      -5.8153      2.00000
      6      -4.7107      2.00000
      7      -4.0426      2.00000
      8      -2.9975      2.00000
      9      -1.2403      2.00000
     10      -0.2195      2.00000
     11       0.3555      2.00000
     12       0.7033      2.00000
     13       0.8873      2.00000
     14       1.2016      2.00000
     15       1.2046      2.00000
     16       1.5632      2.00000
     17       1.7666      2.00000
     18       2.4939      2.00000
     19       3.1394      2.00000
     20       3.2501      2.00000
     21       4.3743      0.00000
     22       4.8129      0.00000
     23       5.2258      0.00000
     24       5.7251      0.00000
     25       5.8501      0.00000
     26       6.1645      0.00000
     27       6.2476      0.00000
     28       7.0938      0.00000
     29       7.5017      0.00000
     30       7.6427      0.00000
     31       9.4420      0.00000
     32      10.2802      0.00000

 k-point     4 :       0.5000    0.0000    0.0000
  band No.  band energies     occupation 
      1      -9.3972      2.00000
      2      -9.3972      2.00000
      3      -9.0951      2.00000
      4      -9.0951      2.00000
      5      -5.6856      2.00000
      6      -5.6856      2.00000
      7      -3.8617      2.00000
      8      -3.8617      2.00000
      9      -0.5229      2.00000
     10      -0.5229      2.00000
     11       0.7873      2.00000
     12       0.7873      2.00000
     13       1.0367      2.00000
     14       1.0367      2.00000
     15       1.6235      2.00000
     16       1.6235      2.00000
     17       1.8355      2.00000
     18       1.8355      2.00000
     19       3.0370      2.00000
     20       3.0370      2.00000
     21       4.5415      0.00000
     22       4.5415      0.00000
     23       5.2714      0.00000
     24       5.2714      0.00000
     25       5.5438      0.00000
     26       5.5438      0.00000
     27       6.1025      0.00000
     28       6.1025      0.00000
     29       6.7746      0.00000
     30       6.7746      0.00000
     31       9.7428      0.00000
     32       9.7428      0.00000

 k-point     5 :       0.0000    0.1667    0.0000
  band No.  band energies     occupation 
      1     -10.6693      2.00000
      2     -10.2024      2.00000
      3      -9.4989      2.00000
      4      -8.9476      2.00000
      5      -5.2037      2.00000
      6      -3.8264      2.00000
      7      -3.7198      2.00000
      8      -2.1059      2.00000
      9      -1.4654      2.00000
     10       0.2552      2.00000
     11       0.4805      2.00000
     12       0.7290      2.00000
     13       0.9603      2.00000
     14       1.0647      2.00000
     15       1.6380      2.00000
     16       1.8356      2.00000
     17       2.0848      2.00000
     18       2.5374      2.00000
     19       3.3339      2.00000
     20       3.4579      2.00000
     21       4.4805      0.00000
     22       5.2284      0.00000
     23       5.8941      0.00000
     24       6.0707      0.00000
     25       6.4023      0.00000
     26       6.6558      0.00000
     27       7.2120      0.00000
     28       7.9563      0.00000
     29       8.1277      0.00000
     30       8.6978      0.00000
     31       9.5601      0.00000
     32      10.0673      0.00000

 k-point     6 :       0.1667    0.1667    0.0000
  band No.  band energies     occupation 
      1     -10.4811      2.00000
      2     -10.0287      2.00000
      3      -9.3750      2.00000
      4      -8.8739      2.00000
      5      -5.3996      2.00000
      6      -3.8895      2.00000
      7      -3.7428      2.00000
      8      -2.5930      2.00000
      9      -1.3636      2.00000
     10      -0.4421      2.00000
     11      -0.3564      2.00000
     12       0.6910      2.00000
     13       1.1982      2.00000
     14       1.2436      2.00000
     15       1.5459      2.00000
     16       1.6714      2.00000
     17       1.9926      2.00000
     18       2.6244      2.00000
     19       2.9597      2.00000
     20       3.4379      2.00000
     21       4.7332      0.00000
     22       5.3175      0.00000
     23       5.7496      0.00000
     24       6.0033      0.00000
     25       6.7793      0.00000
     26       7.0263      0.00000
     27       7.0451      0.00000
     28       7.7591      0.00000
     29       8.2340      0.00000
     30       8.2986      0.00000
     31       9.7156      0.00000
     32      10.0275      0.00000

 k-point     7 :       0.1667   -0.1667    0.0000
  band No.  band energies     occupation 
      1     -10.4743      2.00000
      2     -10.0342      2.00000
      3      -9.3630      2.00000
      4      -8.8935      2.00000
      5      -5.3367      2.00000
      6      -4.0809      2.00000
      7      -3.8169      2.00000
      8      -2.2028      2.00000
      9      -1.3936      2.00000
     10      -0.5800      2.00000
     11      -0.0688      2.00000
     12       0.4442      2.00000
     13       1.0292      2.00000
     14       1.3122      2.00000
     15       1.4184      2.00000
     16       1.5752      2.00000
     17       1.8106      2.00000
     18       2.8618      2.00000
     19       3.2387      2.00000
     20       3.5435      2.00000
     21       4.6471      0.00000
     22       5.2192      0.00000
     23       5.7326      0.00000
     24       6.2050      0.00000
     25       6.6465      0.00000
     26       6.9129      0.00000
     27       7.4181      0.00000
     28       7.7106      0.00000
     29       8.0059      0.00000
     30       8.1333      0.00000
     31       9.2207      0.00000
     32       9.9094      0.00000

 k-point     8 :       0.3333    0.1667    0.0000
  band No.  band energies     occupation 
      1      -9.9652      2.00000
      2      -9.5738      2.00000
      3      -9.1567      2.00000
      4      -8.8158      2.00000
      5      -5.7941      2.00000
      6      -4.6447      2.00000
      7      -3.9126      2.00000
      8      -3.2564      2.00000
      9      -1.1045      2.00000
     10      -0.7586      2.00000
     11      -0.5810      2.00000
     12       0.3294      2.00000
     13       0.9250      2.00000
     14       1.1929      2.00000
     15       1.2841      2.00000
     16       1.5460      2.00000
     17       2.0235      2.00000
     18       2.1294      2.00000
     19       2.6762      2.00000
     20       3.3109      2.00000
     21       4.6420      0.00000
     22       5.2749      0.00000
     23       5.5259      0.00000
     24       5.8350      0.00000
     25       5.9431      0.00000
     26       6.4960      0.00000
     27       6.8372      0.00000
     28       7.8506      0.00000
     29       7.9510      0.00000
     30       8.7932      0.00000
     31       9.2751      0.00000
     32      10.0797      0.00000

 k-point     9 :       0.3333   -0.1667    0.0000
  band No.  band energies     occupation 
      1      -9.9499      2.00000
      2      -9.5857      2.00000
      3      -9.1340      2.00000
      4      -8.8539      2.00000
      5      -5.6844      2.00000
      6      -4.8321      2.00000
      7      -4.0412      2.00000
      8      -2.9612      2.00000
      9      -1.0915      2.00000
     10      -0.7497      2.00000
     11      -0.4080      2.00000
     12       0.2710      2.00000
     13       0.6200      2.00000
     14       1.1164      2.00000
     15       1.1563      2.00000
     16       1.5199      2.00000
     17       1.9902      2.00000
     18       2.2132      2.00000
     19       2.9025      2.00000
     20       3.4902      2.00000
     21       4.5676      0.00000
     22       5.1586      0.00000
     23       5.4260      0.00000
     24       5.7861      0.00000
     25       6.5222      0.00000
     26       6.8359      0.00000
     27       6.9492      0.00000
     28       7.1881      0.00000
     29       7.4277      0.00000
     30       8.5778      0.00000
     31       9.1384      0.00000
     32      10.3687      0.00000

 k-point    10 :       0.5000    0.1667    0.0000
  band No.  band energies     occupation 
      1      -9.3484      2.00000
      2      -9.3378      2.00000
      3      -9.0736      2.00000
      4      -9.0726      2.00000
      5      -5.6705      2.00000
      6      -5.5442      2.00000
      7      -3.9020      2.00000
      8      -3.7482      2.00000
      9      -0.6284      2.00000
     10      -0.5336      2.00000
     11       0.1204      2.00000
     12       0.1256      2.00000
     13       0.2500      2.00000
     14       0.7130      2.00000
     15       0.9302      2.00000
     16       0.9600      2.00000
     17       2.0083      2.00000
     18       2.2303      2.00000
     19       2.8759      2.00000
     20       3.4950      2.00000
     21       4.5887      0.00000
     22       4.6909      0.00000
     23       5.5137      0.00000
     24       5.7011      0.00000
     25       6.3368      0.00000
     26       6.4845      0.00000
     27       6.7002      0.00000
     28       7.0864      0.00000
     29       7.4507      0.00000
     30       7.7212      0.00000
     31       8.7893      0.00000
     32       9.9036      0.00000

 k-point    11 :       0.0000    0.3333    0.0000
  band No.  band energies     occupation 
      1     -10.3214      2.00000
      2      -9.9442      2.00000
      3      -9.5265      2.00000
      4      -9.2720      2.00000
      5      -5.4057      2.00000
      6      -4.6313      2.00000
      7      -3.9249      2.00000
      8      -2.9162      2.00000
      9      -1.1860      2.00000
     10       0.3894      2.00000
     11       0.8878      2.00000
     12       1.0440      2.00000
     13       1.4830      2.00000
     14       1.6355      2.00000
     15       1.7629      2.00000
     16       2.0148      2.00000
     17       2.0469      2.00000
     18       3.2472      2.00000
     19       3.3272      2.00000
     20       3.7852      2.00000
     21       4.4438      0.00000
     22       5.1617      0.00000
     23       5.3748      0.00000
     24       5.6077      0.00000
     25       6.0892      0.00000
     26       6.2543      0.00000
     27       6.6072      0.00000
     28       7.2305      0.00000
     29       7.4460      0.00000
     30       7.7917      0.00000
     31       9.5619      0.00000
     32      10.2965      0.00000

 k-point    12 :       0.1667    0.3333    0.0000
  band No.  band energies     occupation 
      1     -10.1525      2.00000
      2      -9.7852      2.00000
      3      -9.4034      2.00000
      4      -9.1673      2.00000
      5      -5.4652      2.00000
      6      -4.5392      2.00000
      7      -3.8024      2.00000
      8      -3.1392      2.00000
      9      -1.0609      2.00000
     10      -0.4507      2.00000
     11      -0.3523      2.00000
     12       0.5572      2.00000
     13       0.6382      2.00000
     14       0.9794      2.00000
     15       1.7456      2.00000
     16       2.0312      2.00000
     17       2.3360      2.00000
     18       2.8579      2.00000
     19       3.3421      2.00000
     20       3.4876      2.00000
     21       4.8721      0.00000
     22       5.5165      0.00000
     23       5.8208      0.00000
     24       6.0054      0.00000
     25       6.3764      0.00000
     26       6.6806      0.00000
     27       6.9125      0.00000
     28       7.7756      0.00000
     29       7.8694      0.00000
     30       8.3482      0.00000
     31       9.7268      0.00000
     32       9.9019      0.00000

 k-point    13 :       0.1667   -0.3333    0.0000
  band No.  band energies     occupation 
      1     -10.1386      2.00000
      2      -9.7964      2.00000
      3      -9.3857      2.00000
      4      -9.1933      2.00000
      5      -5.3686      2.00000
      6      -4.7161      2.00000
      7      -3.9065      2.00000
      8      -2.8763      2.00000
      9      -0.9624      2.00000
     10      -0.6238      2.00000
     11      -0.0551      2.00000
     12       0.2927      2.00000
     13       0.5550      2.00000
     14       0.8376      2.00000
     15       1.8964      2.00000
     16       1.9955      2.00000
     17       2.5651      2.00000
     18       2.5757      2.00000
     19       3.3133      2.00000
     20       3.6553      2.00000
     21       4.9415      0.00000
     22       5.5830      0.00000
     23       5.6147      0.00000
     24       6.0273      0.00000
     25       6.5847      0.00000
     26       6.6552      0.00000
     27       7.2086      0.00000
     28       7.3264      0.00000
     29       7.6782      0.00000
     30       8.5798      0.00000
     31       9.1414      0.00000
     32      10.0568      0.00000

 k-point    14 :       0.3333    0.3333    0.0000
  band No.  band energies     occupation 
      1      -9.7032      2.00000
      2      -9.3924      2.00000
      3      -9.1600      2.00000
      4      -8.9872      2.00000
      5      -5.6266      2.00000
      6      -4.7425      2.00000
      7      -3.6976      2.00000
      8      -3.5805      2.00000
      9      -1.2088      2.00000
     10      -1.0872      2.00000
     11      -0.8635      2.00000
     12      -0.3772      2.00000
     13       0.1395      2.00000
     14       0.5199      2.00000
     15       0.8795      2.00000
     16       1.2623      2.00000
     17       1.5816      2.00000
     18       2.1866      2.00000
     19       2.6680      2.00000
     20       3.4440      2.00000
     21       4.8050      0.00000
     22       6.3648      0.00000
     23       6.3888      0.00000
     24       6.4180      0.00000
     25       6.7870      0.00000
     26       7.4396      0.00000
     27       7.9983      0.00000
     28       8.3843      0.00000
     29       8.9417      0.00000
     30       8.9892      0.00000
     31       9.4138      0.00000
     32      10.2565      0.00000

 k-point    15 :       0.3333   -0.3333    0.0000
  band No.  band energies     occupation 
      1      -9.6716      2.00000
      2      -9.4167      2.00000
      3      -9.1210      2.00000
      4      -9.0452      2.00000
      5      -5.4237      2.00000
      6      -5.0430      2.00000
      7      -3.9451      2.00000
      8      -3.1613      2.00000
      9      -1.3126      2.00000
     10      -0.8093      2.00000
     11      -0.7149      2.00000
     12      -0.4214      2.00000
     13       0.0067      2.00000
     14       0.2469      2.00000
     15       0.8172      2.00000
     16       1.0728      2.00000
     17       1.4569      2.00000
     18       2.4713      2.00000
     19       2.8012      2.00000
     20       3.7256      2.00000
     21       4.7882      0.00000
     22       5.9500      0.00000
     23       6.0564      0.00000
     24       7.1660      0.00000
     25       7.1752      0.00000
     26       7.2543      0.00000
     27       7.2755      0.00000
     28       8.3174      0.00000
     29       8.4397      0.00000
     30       9.4117      0.00000
     31       9.6946      0.00000
     32       9.9396      0.00000

 k-point    16 :       0.5000    0.3333    0.0000
  band No.  band energies     occupation 
      1      -9.2311      2.00000
      2      -9.2041      2.00000
      3      -9.0454      2.00000
      4      -9.0358      2.00000
      5      -5.5634      2.00000
      6      -5.3030      2.00000
      7      -3.9265      2.00000
      8      -3.6057      2.00000
      9      -0.9136      2.00000
     10      -0.7848      2.00000
     11      -0.6337      2.00000
     12      -0.5982      2.00000
     13      -0.4434      2.00000
     14      -0.2107      2.00000
     15       0.3701      2.00000
     16       0.6675      2.00000
     17       1.5046      2.00000
     18       1.5266      2.00000
     19       2.4872      2.00000
     20       3.6464      2.00000
     21       5.3467      0.00000
     22       5.4692      0.00000
     23       6.8088      0.00000
     24       7.0778      0.00000
     25       7.2798      0.00000
     26       7.3585      0.00000
     27       7.8511      0.00000
     28       8.3860      0.00000
     29       8.9533      0.00000
     30       9.0485      0.00000
     31       9.4551      0.00000
     32      10.0360      0.00000

 k-point    17 :       0.0000    0.5000    0.0000
  band No.  band energies     occupation 
      1      -9.8384      2.00000
      2      -9.8384      2.00000
      3      -9.6331      2.00000
      4      -9.6331      2.00000
      5      -5.2477      2.00000
      6      -5.2477      2.00000
      7      -3.6394      2.00000
      8      -3.6394      2.00000
      9      -0.4887      2.00000
     10      -0.4887      2.00000
     11       1.3655      2.00000
     12       1.3655      2.00000
     13       1.5758      2.00000
     14       1.5758      2.00000
     15       2.3006      2.00000
     16       2.3006      2.00000
     17       2.6472      2.00000
     18       2.6472      2.00000
     19       3.4078      2.00000
     20       3.4078      2.00000
     21       4.8661      0.00000
     22       4.8661      0.00000
     23       5.5784      0.00000
     24       5.5784      0.00000
     25       5.9077      0.00000
     26       5.9077      0.00000
     27       6.5865      0.00000
     28       6.5865      0.00000
     29       7.0852      0.00000
     30       7.0852      0.00000
     31      10.0316      0.00000
     32      10.0316      0.00000

 k-point    18 :       0.1667    0.5000    0.0000
  band No.  band energies     occupation 
      1      -9.6956      2.00000
      2      -9.6797      2.00000
      3      -9.5130      2.00000
      4      -9.5020      2.00000
      5      -5.2558      2.00000
      6      -5.1311      2.00000
      7      -3.6615      2.00000
      8      -3.5168      2.00000
      9      -0.5063      2.00000
     10      -0.3848      2.00000
     11      -0.0876      2.00000
     12       0.0205      2.00000
     13       0.3754      2.00000
     14       0.4919      2.00000
     15       1.7789      2.00000
     16       2.1176      2.00000
     17       2.4509      2.00000
     18       3.0148      2.00000
     19       3.4986      2.00000
     20       3.7064      2.00000
     21       5.0078      0.00000
     22       5.1281      0.00000
     23       5.9392      0.00000
     24       6.3003      0.00000
     25       6.5265      0.00000
     26       6.6859      0.00000
     27       7.1920      0.00000
     28       7.1932      0.00000
     29       7.9456      0.00000
     30       8.0940      0.00000
     31       9.3106      0.00000
[...]
     32       9.7025      0.00000

 k-point    32 :       0.1667    0.3333    0.5000
  band No.  band energies     occupation 
      1     -10.0085      2.00000
      2     -10.0085      2.00000
      3      -9.2444      2.00000
      4      -9.2444      2.00000
      5      -5.0906      2.00000
      6      -5.0906      2.00000
      7      -3.4519      2.00000
      8      -3.4519      2.00000
      9      -0.6043      2.00000
     10      -0.6043      2.00000
     11       0.1141      2.00000
     12       0.1141      2.00000
     13       0.7512      2.00000
     14       0.7512      2.00000
     15       1.9290      2.00000
     16       1.9290      2.00000
     17       2.5274      2.00000
     18       2.5274      2.00000
     19       3.0900      2.00000
     20       3.0900      2.00000
     21       5.3551      0.00000
     22       5.3551      0.00000
     23       6.1957      0.00000
     24       6.1957      0.00000
     25       6.6609      0.00000
     26       6.6609      0.00000
     27       7.1580      0.00000
     28       7.1580      0.00000
     29       8.1160      0.00000
     30       8.1160      0.00000
     31       9.6668      0.00000
     32       9.6668      0.00000

 k-point    33 :       0.1667   -0.3333    0.5000
  band No.  band energies     occupation 
      1     -10.0012      2.00000
      2     -10.0012      2.00000
      3      -9.2545      2.00000
      4      -9.2544      2.00000
      5      -5.0869      2.00000
      6      -5.0869      2.00000
      7      -3.4639      2.00000
      8      -3.4639      2.00000
      9      -0.6532      2.00000
     10      -0.6532      2.00000
     11       0.3304      2.00000
     12       0.3304      2.00000
     13       0.7390      2.00000
     14       0.7390      2.00000
     15       1.7282      2.00000
     16       1.7282      2.00000
     17       2.6733      2.00000
     18       2.6733      2.00000
     19       2.9493      2.00000
     20       2.9493      2.00000
     21       5.3435      0.00000
     22       5.3435      0.00000
     23       6.1413      0.00000
     24       6.1413      0.00000
     25       6.4616      0.00000
     26       6.4616      0.00000
     27       7.4709      0.00000
     28       7.4709      0.00000
     29       8.3311      0.00000
     30       8.3311      0.00000
     31       9.8344      0.00000
     32       9.8344      0.00000

 k-point    34 :       0.3333    0.3333    0.5000
  band No.  band energies     occupation 
      1      -9.5813      2.00000
      2      -9.5813      2.00000
      3      -9.0418      2.00000
      4      -9.0418      2.00000
      5      -5.2562      2.00000
      6      -5.2562      2.00000
      7      -3.5519      2.00000
      8      -3.5519      2.00000
      9      -1.2481      2.00000
     10      -1.2481      2.00000
     11      -0.6476      2.00000
     12      -0.6476      2.00000
     13       0.4939      2.00000
     14       0.4939      2.00000
     15       1.1713      2.00000
     16       1.1713      2.00000
     17       1.8492      2.00000
     18       1.8492      2.00000
     19       2.7629      2.00000
     20       2.7629      2.00000
     21       5.5791      0.00000
     22       5.5791      0.00000
     23       6.2808      0.00000
     24       6.2808      0.00000
     25       7.4314      0.00000
     26       7.4314      0.00000
     27       8.1795      0.00000
     28       8.1795      0.00000
     29       9.0221      0.00000
     30       9.0221      0.00000
     31      10.0933      0.00000
     32      10.0933      0.00000

 k-point    35 :       0.3333   -0.3333    0.5000
  band No.  band energies     occupation 
      1      -9.5645      2.00000
      2      -9.5645      2.00000
      3      -9.0638      2.00000
      4      -9.0638      2.00000
      5      -5.2409      2.00000
      6      -5.2409      2.00000
      7      -3.5784      2.00000
      8      -3.5784      2.00000
      9      -1.3323      2.00000
     10      -1.3323      2.00000
     11      -0.4386      2.00000
     12      -0.4386      2.00000
     13       0.4914      2.00000
     14       0.4914      2.00000
     15       1.0974      2.00000
     16       1.0974      2.00000
     17       1.9871      2.00000
     18       1.9871      2.00000
     19       2.4721      2.00000
     20       2.4721      2.00000
     21       5.7259      0.00000
     22       5.7259      0.00000
     23       6.2749      0.00000
     24       6.2749      0.00000
     25       7.6168      0.00000
     26       7.6169      0.00000
     27       7.9242      0.00000
     28       7.9242      0.00000
     29       9.2133      0.00000
     30       9.2133      0.00000
     31       9.9656      0.00000
     32       9.9656      0.00000

 k-point    36 :       0.5000    0.3333    0.5000
  band No.  band energies     occupation 
      1      -9.2022      2.00000
      2      -9.2022      2.00000
      3      -9.0590      2.00000
      4      -9.0590      2.00000
      5      -5.4245      2.00000
      6      -5.4245      2.00000
      7      -3.7643      2.00000
      8      -3.7643      2.00000
      9      -1.0823      2.00000
     10      -1.0823      2.00000
     11      -0.7863      2.00000
     12      -0.7863      2.00000
     13       0.0750      2.00000
     14       0.0750      2.00000
     15       0.6118      2.00000
     16       0.6118      2.00000
     17       1.9500      2.00000
     18       1.9500      2.00000
     19       2.2972      2.00000
     20       2.2972      2.00000
     21       5.5257      0.00000
     22       5.5257      0.00000
     23       7.0451      0.00000
     24       7.0451      0.00000
     25       7.2433      0.00000
     26       7.2433      0.00000
     27       8.5297      0.00000
     28       8.5297      0.00000
     29       8.8358      0.00000
     30       8.8358      0.00000
     31       9.8292      0.00000
     32       9.8292      0.00000

 k-point    37 :       0.0000    0.5000    0.5000
  band No.  band energies     occupation 
      1      -9.8139      2.00000
      2      -9.8139      2.00000
      3      -9.6627      2.00000
      4      -9.6627      2.00000
      5      -5.1139      2.00000
      6      -5.1139      2.00000
      7      -3.9249      2.00000
      8      -3.9249      2.00000
      9       0.3698      2.00000
     10       0.3698      2.00000
     11       1.0370      2.00000
     12       1.0370      2.00000
     13       1.3859      2.00000
     14       1.3859      2.00000
     15       1.6312      2.00000
     16       1.6312      2.00000
     17       2.9256      2.00000
     18       2.9256      2.00000
     19       3.4760      2.00000
     20       3.4760      2.00000
     21       4.8537      0.00000
     22       4.8537      0.00000
     23       5.1027      0.00000
     24       5.1027      0.00000
     25       6.3863      0.00000
     26       6.3863      0.00000
     27       6.7253      0.00000
     28       6.7253      0.00000
     29       7.5809      0.00000
     30       7.5809      0.00000
     31       9.6424      0.00000
     32       9.6424      0.00000

 k-point    38 :       0.1667    0.5000    0.5000
  band No.  band energies     occupation 
      1      -9.6616      2.00000
      2      -9.6616      2.00000
      3      -9.5380      2.00000
      4      -9.5380      2.00000
      5      -5.0942      2.00000
      6      -5.0942      2.00000
      7      -3.7982      2.00000
      8      -3.7982      2.00000
      9      -0.3338      2.00000
     10      -0.3338      2.00000
     11       0.0383      2.00000
     12       0.0383      2.00000
     13       0.9704      2.00000
     14       0.9704      2.00000
     15       1.4468      2.00000
     16       1.4468      2.00000
     17       2.6323      2.00000
     18       2.6323      2.00000
     19       3.0572      2.00000
     20       3.0572      2.00000
     21       5.6839      0.00000
     22       5.6839      0.00000
     23       5.9998      0.00000
     24       5.9998      0.00000
     25       6.5090      0.00000
     26       6.5090      0.00000
     27       7.6779      0.00000
     28       7.6779      0.00000
     29       7.9767      0.00000
     30       7.9767      0.00000
     31       9.7872      0.00000
     32       9.7872      0.00000

 k-point    39 :       0.3333    0.5000    0.5000
  band No.  band energies     occupation 
      1      -9.3065      2.00000
      2      -9.3065      2.00000
      3      -9.2531      2.00000
      4      -9.2531      2.00000
      5      -5.1940      2.00000
      6      -5.1940      2.00000
      7      -3.6263      2.00000
      8      -3.6263      2.00000
      9      -1.2162      2.00000
     10      -1.2162      2.00000
     11      -1.0868      2.00000
     12      -1.0868      2.00000
     13       0.5217      2.00000
     14       0.5217      2.00000
     15       0.9163      2.00000
     16       0.9163      2.00000
     17       1.8658      2.00000
     18       1.8658      2.00000
     19       2.3807      2.00000
     20       2.3807      2.00000
     21       5.7025      0.00000
     22       5.7025      0.00000
     23       7.3491      0.00000
     24       7.3491      0.00000
     25       7.6111      0.00000
     26       7.6111      0.00000
     27       8.9466      0.00000
     28       8.9466      0.00000
     29       9.1007      0.00000
     30       9.1007      0.00000
     31       9.8099      0.00000
     32       9.8099      0.00000

 k-point    40 :       0.5000    0.5000    0.5000
  band No.  band energies     occupation 
      1      -9.1120      2.00000
      2      -9.1120      2.00000
      3      -9.0654      2.00000
      4      -9.0654      2.00000
      5      -5.3586      2.00000
      6      -5.3586      2.00000
      7      -3.6676      2.00000
      8      -3.6676      2.00000
      9      -1.2468      2.00000
     10      -1.2468      2.00000
     11      -1.1414      2.00000
     12      -1.1414      2.00000
     13      -0.2142      2.00000
     14      -0.2142      2.00000
     15       0.1901      2.00000
     16       0.1901      2.00000
     17       1.9583      2.00000
     18       1.9583      2.00000
     19       2.4130      2.00000
     20       2.4130      2.00000
     21       5.2907      0.00000
     22       5.2907      0.00000
     23       7.5803      0.00000
     24       7.5803      0.00000
     25       8.2565      0.00000
     26       8.2565      0.00000
     27       9.0997      0.00000
     28       9.0997      0.00000
     29       9.5326      0.00000
     30       9.5326      0.00000
     31      10.3503      0.00000
     32      10.3503      0.00000


--------------------------------------------------------------------------------------------------------


 soft charge-density along one line, spin component            1
         0         1         2         3         4         5         6         7         8         9
 total charge-density along one line
 
 pseudopotential strength for first ion, spin component:            1
 14.428  17.998   0.040   0.029   0.001   0.072   0.053   0.002
 17.998  22.466   0.051   0.037   0.001   0.091   0.067   0.002
  0.040   0.051   3.212  -0.002  -0.000   5.468  -0.003  -0.000
  0.029   0.037  -0.002   3.210  -0.000  -0.003   5.464  -0.000
  0.001   0.001  -0.000  -0.000   3.214  -0.000  -0.000   5.470
  0.072   0.091   5.468  -0.003  -0.000   9.364  -0.005  -0.001
  0.053   0.067  -0.003   5.464  -0.000  -0.005   9.358  -0.001
  0.002   0.002  -0.000  -0.000   5.470  -0.001  -0.001   9.367
 -0.001  -0.001   0.000  -0.000   0.007   0.000  -0.000   0.013
 -0.004  -0.005   0.007   0.013  -0.000   0.012   0.023  -0.000
 -0.003  -0.004  -0.004   0.007   0.000  -0.007   0.013   0.000
 -0.000  -0.000  -0.000   0.000   0.007  -0.000   0.001   0.012
  0.001   0.002  -0.012  -0.000   0.000  -0.022  -0.000   0.000
 total augmentation occupancy for first ion, spin component:            1
  3.004  -0.893   0.392   0.129  -0.040  -0.081  -0.007   0.015  -0.005  -0.030   0.042   0.014   0.009
 -0.893   0.775  -0.459  -0.271   0.018   0.076   0.031  -0.006   0.007   0.022  -0.027  -0.005  -0.004
  0.392  -0.459   1.286  -0.017  -0.006  -0.214   0.017   0.003  -0.000   0.031  -0.092   0.005  -0.001
  0.129  -0.271  -0.017   1.637   0.056   0.016  -0.294  -0.014   0.002   0.012   0.026  -0.025  -0.001
 -0.040   0.018  -0.006   0.056   1.315   0.003  -0.014  -0.232   0.149   0.007  -0.009   0.027  -0.001
 -0.081   0.076  -0.214   0.016   0.003   0.040  -0.005  -0.001   0.000  -0.005   0.016  -0.001   0.000
 -0.007   0.031   0.017  -0.294  -0.014  -0.005   0.060   0.004  -0.001  -0.003  -0.004   0.005   0.000
  0.015  -0.006   0.003  -0.014  -0.232  -0.001   0.004   0.045  -0.027  -0.002   0.002  -0.004   0.000
 -0.005   0.007  -0.000   0.002   0.149   0.000  -0.001  -0.027   0.031  -0.001   0.000   0.003  -0.000
 -0.030   0.022   0.031   0.012   0.007  -0.005  -0.003  -0.002  -0.001   0.018  -0.014  -0.004   0.002
  0.042  -0.027  -0.092   0.026  -0.009   0.016  -0.004   0.002   0.000  -0.014   0.043   0.004  -0.003
  0.014  -0.005   0.005  -0.025   0.027  -0.001   0.005  -0.004   0.003  -0.004   0.004   0.014  -0.000
  0.009  -0.004  -0.001  -0.001  -0.001   0.000   0.000   0.000  -0.000   0.002  -0.003  -0.000   0.009


------------------------ aborting loop because EDIFF is reached ----------------------------------------


    CHARGE:  cpu time      0.0051: real time      0.0052
    FORLOC:  cpu time      0.0002: real time      0.0002
    FORNL :  cpu time      0.0244: real time      0.0245
    STRESS:  cpu time      0.2499: real time      0.2507
    FORCOR:  cpu time      0.0065: real time      0.0065
    FORHAR:  cpu time      0.0016: real time      0.0016
    MIXING:  cpu time      0.0005: real time      0.0005
    OFIELD:  cpu time      0.0000: real time      0.0000

  FORCE on cell =-STRESS in cart. coord.  units (eV):
  Direction    XX          YY          ZZ          XY          YZ          ZX
  --------------------------------------------------------------------------------------
  Alpha Z    91.66130    91.66130    91.66130
  Ewald    -465.00143  -524.51920  -455.11962   -12.29380     0.00005     0.00005
  Hartree    51.62615    31.38698    43.13242    -4.53019     0.00001     0.00001
  E(xc)    -142.12941  -142.18660  -142.48306    -0.02663     0.00000     0.00000
  Local    -157.81873   -85.24278  -164.70576    17.57580    -0.00006    -0.00004
  n-local   242.02564   241.16932   246.05432    -0.33780     0.00000     0.00000
  augment   -11.36560   -11.82409   -12.08175     0.11885     0.00000     0.00000
  Kinetic   392.08645   400.78587   404.35945    -2.46724    -0.00002    -0.00002
  Fock        0.00000     0.00000     0.00000     0.00000     0.00000     0.00000
  -------------------------------------------------------------------------------------
  Total       1.08437     1.23080    10.81730    -1.96099    -0.00001    -0.00001
  in kB       9.39826    10.66735    93.75368   -16.99595    -0.00005    -0.00005
  external pressure =       37.94 kB  Pullay stress =        0.00 kB


 VOLUME and BASIS-vectors are now :
 -----------------------------------------------------------------------------
  energy-cutoff  :      360.00
  volume of cell :      184.86
      direct lattice vectors                 reciprocal lattice vectors
     3.858100176  0.000000000  0.000000000     0.259194929  0.000000000  0.000000000
     0.000000000  4.526575088  0.000000000     0.000000000  0.220917577  0.000000000
     0.000000000  0.000000000 10.585176468     0.000000000  0.000000000  0.094471736

  length of vectors
     3.858100176  4.526575088 10.585176468     0.259194929  0.220917577  0.094471736


 FORCES acting on ions
    electron-ion (+dipol)            ewald-force                    non-local-force                 convergence-correction
 -----------------------------------------------------------------------------------------------
   -.129E+01 0.166E+02 0.112E+02   0.102E+01 -.189E+02 -.133E+02   0.352E+00 0.215E+01 0.297E+01   -.898E-04 0.994E-04 -.363E-03
   -.129E+01 0.166E+02 -.112E+02   0.102E+01 -.189E+02 0.133E+02   0.352E+00 0.215E+01 -.297E+01   -.897E-04 0.991E-04 0.361E-03
   0.129E+01 -.166E+02 -.112E+02   -.102E+01 0.189E+02 0.133E+02   -.352E+00 -.215E+01 -.297E+01   0.896E-04 -.993E-04 0.361E-03
   0.129E+01 -.166E+02 0.112E+02   -.102E+01 0.189E+02 -.133E+02   -.352E+00 -.215E+01 0.297E+01   0.898E-04 -.998E-04 -.360E-03
   0.903E+00 -.181E+02 -.190E+02   -.719E+00 0.198E+02 0.204E+02   -.411E+00 -.177E+01 -.130E+01   0.179E-03 -.278E-03 0.394E-03
   0.903E+00 -.181E+02 0.190E+02   -.719E+00 0.198E+02 -.204E+02   -.411E+00 -.177E+01 0.130E+01   0.180E-03 -.278E-03 -.395E-03
   -.903E+00 0.181E+02 0.190E+02   0.719E+00 -.198E+02 -.204E+02   0.411E+00 0.177E+01 0.130E+01   -.179E-03 0.278E-03 -.392E-03
   -.903E+00 0.181E+02 -.190E+02   0.719E+00 -.198E+02 0.204E+02   0.411E+00 0.177E+01 -.130E+01   -.179E-03 0.278E-03 0.394E-03
 -----------------------------------------------------------------------------------------------
   0.679E-04 0.440E-05 0.144E-05   0.344E-14 0.000E+00 -.213E-13   -.909E-04 0.546E-03 -.129E-05   0.395E-06 -.461E-06 -.345E-06
 
 
 POSITION                                       TOTAL-FORCE (eV/Angst)
 -----------------------------------------------------------------------------------
      3.48068      3.36529      1.23098         0.083913     -0.093312      0.826388
      1.55163      1.10200      4.06160         0.083913     -0.093315     -0.826376
      2.89357      3.98702      9.35419        -0.083927      0.093296     -0.826351
      0.96452      1.72374      6.52357        -0.083922      0.093293      0.826340
      3.48068      2.80284      3.75268        -0.226857     -0.036518      0.119041
      1.55163      0.53955      1.53991        -0.226855     -0.036523     -0.119047
      2.89357      0.02290      6.83250         0.226868      0.036540     -0.119218
      0.96452      2.28618      9.04526         0.226869      0.036538      0.119222
 -----------------------------------------------------------------------------------
    total drift:                               -0.000023      0.000550     -0.000000


--------------------------------------------------------------------------------------------------------



  FREE ENERGIE OF THE ION-ELECTRON SYSTEM (eV)
  ---------------------------------------------------
  free  energy   TOTEN  =       -33.11979249 eV

  energy  without entropy=      -33.11979249  energy(sigma->0) =      -33.11979249
 


--------------------------------------------------------------------------------------------------------


    POTLOK:  cpu time      0.2262: real time      0.2269


--------------------------------------------------------------------------------------------------------


     LOOP+:  cpu time      7.7801: real time      7.8169
    4ORBIT:  cpu time      0.0000: real time      0.0000

 total amount of memory used by VASP MPI-rank0    36587. kBytes
=======================================================================

   base      :      30000. kBytes
   nonl-proj :       5001. kBytes
   fftplans  :        306. kBytes
   grid      :        466. kBytes
   one-center:         16. kBytes
   wavefun   :        798. kBytes
 
  
  
 General timing and accounting informations for this job:
 ========================================================
  
                  Total CPU time used (sec):        9.379
                            User time (sec):        9.115
                          System time (sec):        0.264
                         Elapsed time (sec):        9.681
  
                   Maximum memory used (kb):      174536.
                   Average memory used (kb):          N/A
  
                          Minor page faults:        19162
                          Major page faults:           36
                 Voluntary context switches:         1872
