 running  128 mpi-ranks, with    1 threads/rank, on    2 nodes
 distrk:  each k-point on   64 cores,    2 groups
 distr:  one band on    8 cores,    8 groups
 vasp.6.4.2 20Jul23 (build Oct 12 2023 10:31:02) complex                         
 POSCAR found type information on POSCAR GeSe
 POSCAR found :  2 types and      72 ions
 Reading from existing POTCAR
 -----------------------------------------------------------------------------
|                                                                             |
|           W    W    AA    RRRRR   N    N  II  N    N   GGGG   !!!           |
|           W    W   A  A   R    R  NN   N  II  NN   N  G    G  !!!           |
|           W    W  A    A  R    R  N N  N  II  N N  N  G       !!!           |
|           W WW W  AAAAAA  RRRRR   N  N N  II  N  N N  G  GGG   !            |
|           WW  WW  A    A  R   R   N   NN  II  N   NN  G    G                |
|           W    W  A    A  R    R  N    N  II  N    N   GGGG   !!!           |
|                                                                             |
|     You use a magnetic or noncollinear calculation, but did not specify     |
|     the initial magnetic moment with the MAGMOM tag. Note that a            |
|     default of 1 will be used for all atoms. This ferromagnetic setup       |
|     may break the symmetry of the crystal, in particular it may rule        |
|     out finding an antiferromagnetic solution. Thence, we recommend         |
|     setting the initial magnetic moment manually or verifying carefully     |
|     that this magnetic setup is desired.                                    |
|                                                                             |
 -----------------------------------------------------------------------------

 scaLAPACK will be used
 Reading from existing POTCAR
 -----------------------------------------------------------------------------
|                                                                             |
|               ----> ADVICE to this user running VASP <----                  |
|                                                                             |
|     You have a (more or less) 'large supercell' and for larger cells it     |
|     might be more efficient to use real-space projection operators.         |
|     Therefore, try LREAL= Auto in the INCAR file.                           |
|     Mind: For very accurate calculation, you might also keep the            |
|     reciprocal projection scheme (i.e. LREAL=.FALSE.).                      |
|                                                                             |
 -----------------------------------------------------------------------------

 LDA part: xc-table for Pade appr. of Perdew
 -----------------------------------------------------------------------------
|                                                                             |
|           W    W    AA    RRRRR   N    N  II  N    N   GGGG   !!!           |
|           W    W   A  A   R    R  NN   N  II  NN   N  G    G  !!!           |
|           W    W  A    A  R    R  N N  N  II  N N  N  G       !!!           |
|           W WW W  AAAAAA  RRRRR   N  N N  II  N  N N  G  GGG   !            |
|           WW  WW  A    A  R   R   N   NN  II  N   NN  G    G                |
|           W    W  A    A  R    R  N    N  II  N    N   GGGG   !!!           |
|                                                                             |
|     The number of bands has been changed from the values supplied in        |
|     the INCAR file. This is a result of running the parallel version.       |
|     The orbitals not found in the WAVECAR file will be initialized with     |
|     random numbers, which is usually adequate. For correlated               |
|     calculations, however, you should redo the groundstate calculation.     |
|     I found NBANDS = 220. Now, NBANDS = 224.                                |
|                                                                             |
 -----------------------------------------------------------------------------

 POSCAR, INCAR and KPOINTS ok, starting setup
 FFT: planning ... GRIDC
 FFT: planning ... GRID_SOFT
 FFT: planning ... GRID
 WAVECAR not read
 WARNING: random wavefunctions but no delay for mixing, default for NELMDL
 entering main loop
       N       E                     dE             d eps       ncg     rms          rms(c)
DAV:   1     0.181559393399E+04    0.18156E+04   -0.14190E+05  7168   0.135E+03
DAV:   2    -0.632563151598E+02   -0.18789E+04   -0.18029E+04  8472   0.204E+02
DAV:   3    -0.281802279051E+03   -0.21855E+03   -0.21219E+03  8560   0.692E+01
DAV:   4    -0.289837800356E+03   -0.80355E+01   -0.79496E+01  8760   0.131E+01
DAV:   5    -0.290137946574E+03   -0.30015E+00   -0.29936E+00  9080   0.214E+00    0.291E+01
DAV:   6    -0.289752862780E+03    0.38508E+00   -0.26980E+01  7952   0.765E+00    0.172E+01
DAV:   7    -0.297031611682E+03   -0.72787E+01   -0.86956E+00  8000   0.448E+00    0.907E+00
DAV:   8    -0.300252689506E+03   -0.32211E+01   -0.17316E+00  8168   0.225E+00    0.329E+00
DAV:   9    -0.300632666845E+03   -0.37998E+00   -0.42720E-01  9080   0.101E+00    0.147E+00
DAV:  10    -0.300735424738E+03   -0.10276E+00   -0.94084E-02  8208   0.463E-01    0.723E-01
DAV:  11    -0.300765951231E+03   -0.30526E-01   -0.35803E-02  8928   0.278E-01    0.281E-01
DAV:  12    -0.300769020367E+03   -0.30691E-02   -0.42997E-03  8560   0.116E-01    0.109E-01
DAV:  13    -0.300769145520E+03   -0.12515E-03   -0.62853E-04  9864   0.385E-02    0.460E-02
DAV:  14    -0.300769164967E+03   -0.19447E-04   -0.91076E-05  8296   0.187E-02    0.171E-02
DAV:  15    -0.300769168397E+03   -0.34301E-05   -0.16388E-05  8568   0.855E-03    0.788E-03
DAV:  16    -0.300769169003E+03   -0.60620E-06   -0.14934E-06  4872   0.275E-03
   1 F= -.30076917E+03 E0= -.30076917E+03  d E =-.941609E-15  mag=     0.0004
