 running  160 mpi-ranks, with    1 threads/rank, on   10 nodes
 distrk:  each k-point on   80 cores,    2 groups
 distr:  one band on    5 cores,   16 groups
 vasp.6.4.2 20Jul23 (build Oct 12 2023 10:31:02) complex                         
 POSCAR found type information on POSCAR GeSe
 POSCAR found :  2 types and       8 ions
 Reading from existing POTCAR
 scaLAPACK will be used
 Reading from existing POTCAR
 LDA part: xc-table for Pade appr. of Perdew
 POSCAR, INCAR and KPOINTS ok, starting setup
 FFT: planning ... GRIDC
 FFT: planning ... GRID_SOFT
 FFT: planning ... GRID
 WAVECAR not read
 entering main loop
       N       E                     dE             d eps       ncg     rms          rms(c)
DAV:   1     0.129171816334E+03    0.12917E+03   -0.12968E+04  2560   0.778E+02
DAV:   2    -0.250649877171E+02   -0.15424E+03   -0.15021E+03  3728   0.141E+02
DAV:   3    -0.332213664767E+02   -0.81564E+01   -0.81417E+01  3184   0.371E+01
DAV:   4    -0.332747812247E+02   -0.53415E-01   -0.53409E-01  3440   0.343E+00
DAV:   5    -0.332751058983E+02   -0.32467E-03   -0.32467E-03  3200   0.259E-01    0.685E+00
DAV:   6    -0.329674784370E+02    0.30763E+00   -0.57303E-01  3232   0.257E+00    0.433E+00
DAV:   7    -0.329418276206E+02    0.25651E-01   -0.20608E-01  2896   0.167E+00    0.108E+00
DAV:   8    -0.329408967508E+02    0.93087E-03   -0.16308E-02  3248   0.506E-01    0.182E-01
DAV:   9    -0.329411980654E+02   -0.30131E-03   -0.28517E-03  3280   0.230E-01    0.614E-02
DAV:  10    -0.329412800093E+02   -0.81944E-04   -0.21411E-04  3456   0.584E-02    0.233E-02
DAV:  11    -0.329413115381E+02   -0.31529E-04   -0.38387E-05  2960   0.284E-02    0.106E-02
DAV:  12    -0.329413130034E+02   -0.14654E-05   -0.49293E-06  3664   0.102E-02    0.286E-03
DAV:  13    -0.329413131915E+02   -0.18804E-06   -0.72798E-07  1920   0.399E-03
   1 F= -.32941313E+02 E0= -.32941234E+02  d E =-.158423E-03
