 vasp.6.4.2 20Jul23 (build Oct 12 2023 10:31:02) complex                         
 executed on              LinuxNV date 2024.11.02  01:26:47
 running  128 mpi-ranks, with    1 threads/rank, on    2 nodes
 distrk:  each k-point on   64 cores,    2 groups
 distr:  one band on NCORE=   8 cores,    8 groups


--------------------------------------------------------------------------------------------------------


 INCAR:
   ENCUT = 520.000000
   SIGMA = 0.050000
   EDIFF = 1.00e-06
   ALGO = N
   GGA = PE
   PREC = Accurate
   SYSTEM = 01_AOPT
   ICHARG = 0
   ISMEAR = 0
   ISPIN = 2
   ISTART = 1
   ISYM = -1
   KPAR = 2
   LORBIT = 11
   NBANDS = 220
   NELM = 100
   NELMIN = 5
   NPAR = 8
   LASPH = .TRUE.
   LCHARG = .FALSE.
   LWAVE = .FALSE.
   LREAL = .FALSE.

 POTCAR:    PAW_PBE Ge 05Jan2001                  
 POTCAR:    PAW_PBE Se 06Sep2000                  
 -----------------------------------------------------------------------------
|                                                                             |
|           W    W    AA    RRRRR   N    N  II  N    N   GGGG   !!!           |
|           W    W   A  A   R    R  NN   N  II  NN   N  G    G  !!!           |
|           W    W  A    A  R    R  N N  N  II  N N  N  G       !!!           |
|           W WW W  AAAAAA  RRRRR   N  N N  II  N  N N  G  GGG   !            |
|           WW  WW  A    A  R   R   N   NN  II  N   NN  G    G                |
|           W    W  A    A  R    R  N    N  II  N    N   GGGG   !!!           |
|                                                                             |
|     You use a magnetic or noncollinear calculation, but did not specify     |
|     the initial magnetic moment with the MAGMOM tag. Note that a            |
|     default of 1 will be used for all atoms. This ferromagnetic setup       |
|     may break the symmetry of the crystal, in particular it may rule        |
|     out finding an antiferromagnetic solution. Thence, we recommend         |
|     setting the initial magnetic moment manually or verifying carefully     |
|     that this magnetic setup is desired.                                    |
|                                                                             |
 -----------------------------------------------------------------------------

 POTCAR:    PAW_PBE Ge 05Jan2001                  
   VRHFIN =Ge: s2p2                                                                                 
   LEXCH  = PE                                                                                      
   EATOM  =   104.9960 eV,    7.7170 Ry                                                             
                                                                                                    
   TITEL  = PAW_PBE Ge 05Jan2001                                                                    
   LULTRA =        F    use ultrasoft PP ?                                                          
   IUNSCR =        1    unscreen: 0-lin 1-nonlin 2-no                                               
   RPACOR =    2.170    partial core radius                                                         
   POMASS =   72.610; ZVAL   =    4.000    mass and valenz                                          
   RCORE  =    2.300    outmost cutoff radius                                                       
   RWIGS  =    2.300; RWIGS  =    1.217    wigner-seitz radius (au A)                               
   ENMAX  =  173.807; ENMIN  =  130.355 eV                                                          
   ICORE  =        3    local potential                                                             
   LCOR   =        T    correct aug charges                                                         
   LPAW   =        T    paw PP                                                                      
   EAUG   =  385.843                                                                                
   DEXC   =    0.000                                                                                
   RMAX   =    2.342    core radius for proj-oper                                                   
   RAUG   =    1.300    factor for augmentation sphere                                              
   RDEP   =    2.318    radius for radial grids                                                     
   RDEPT  =    2.103    core radius for aug-charge                                                  
                                                                                                    
   Atomic configuration                                                                             
   10 entries                                                                                       
     n  l   j            E        occ.                                                              
     1  0  0.50    -10959.8463   2.0000                                                             
     2  0  0.50     -1371.6056   2.0000                                                             
     2  1  1.50     -1198.4791   6.0000                                                             
     3  0  0.50      -168.4733   2.0000                                                             
     3  1  1.50      -115.6019   6.0000                                                             
     3  2  2.50       -29.3106  10.0000                                                             
     4  0  0.50       -11.7309   2.0000                                                             
     4  1  0.50        -3.8952   2.0000                                                             
     4  2  1.50        -4.0817   0.0000                                                             
     4  3  2.50        -4.0817   0.0000                                                             
   Description                                                                                      
     l       E           TYP  RCUT    TYP  RCUT                                                     
     0    -11.7309493     23  2.300                                                                 
     0     -7.4578696     23  2.300                                                                 
     1     -3.8952261     23  2.300                                                                 
     1      6.1178114     23  2.300                                                                 
     2     -4.0817478     23  2.300                                                                 
     3     -1.3605826      7  2.300                                                                 
  local pseudopotential read in
  partial core-charges read in
  partial kinetic energy density read in
  atomic valenz-charges read in
  non local Contribution for L=            0  read in
    real space projection operators read in
  non local Contribution for L=            0  read in
    real space projection operators read in
  non local Contribution for L=            1  read in
    real space projection operators read in
  non local Contribution for L=            1  read in
    real space projection operators read in
  non local Contribution for L=            2  read in
    real space projection operators read in
    PAW grid and wavefunctions read in
 
   number of l-projection  operators is LMAX  =            5
   number of lm-projection operators is LMMAX =           13
 
 POTCAR:    PAW_PBE Se 06Sep2000                  
   VRHFIN =Se: s2p4                                                                                 
   LEXCH  = PE                                                                                      
   EATOM  =   257.1286 eV,   18.8984 Ry                                                             
                                                                                                    
   TITEL  = PAW_PBE Se 06Sep2000                                                                    
   LULTRA =        F    use ultrasoft PP ?                                                          
   IUNSCR =        1    unscreen: 0-lin 1-nonlin 2-no                                               
   RPACOR =    1.900    partial core radius                                                         
   POMASS =   78.960; ZVAL   =    6.000    mass and valenz                                          
   RCORE  =    2.100    outmost cutoff radius                                                       
   RWIGS  =    2.200; RWIGS  =    1.164    wigner-seitz radius (au A)                               
   ENMAX  =  211.555; ENMIN  =  158.666 eV                                                          
   ICORE  =        3    local potential                                                             
   LCOR   =        T    correct aug charges                                                         
   LPAW   =        T    paw PP                                                                      
   EAUG   =  446.842                                                                                
   DEXC   =    0.000                                                                                
   RMAX   =    2.147    core radius for proj-oper                                                   
   RAUG   =    1.300    factor for augmentation sphere                                              
   RDEP   =    2.177    radius for radial grids                                                     
   RDEPT  =    1.928    core radius for aug-charge                                                  
                                                                                                    
   Atomic configuration                                                                             
   10 entries                                                                                       
     n  l   j            E        occ.                                                              
     1  0  0.50    -12503.4787   2.0000                                                             
     2  0  0.50     -1606.9547   2.0000                                                             
     2  1  1.50     -1413.3140   6.0000                                                             
     3  0  0.50      -213.4885   2.0000                                                             
     3  1  1.50      -152.9538   6.0000                                                             
     3  2  2.50       -53.1221  10.0000                                                             
     4  0  0.50       -17.2865   2.0000                                                             
     4  1  0.50        -6.5110   4.0000                                                             
     4  2  2.50        -6.8029   0.0000                                                             
     4  3  2.50        -6.8029   0.0000                                                             
   Description                                                                                      
     l       E           TYP  RCUT    TYP  RCUT                                                     
     0    -17.2865377     23  2.100                                                                 
     0    -15.3094411     23  2.100                                                                 
     1     -6.5110275     23  2.100                                                                 
     1     -0.0695192     23  2.100                                                                 
     2     -6.8029130     23  2.100                                                                 
     3     -1.3605826      7  2.100                                                                 
  local pseudopotential read in
  partial core-charges read in
  partial kinetic energy density read in
  atomic valenz-charges read in
  non local Contribution for L=            0  read in
    real space projection operators read in
  non local Contribution for L=            0  read in
    real space projection operators read in
  non local Contribution for L=            1  read in
    real space projection operators read in
  non local Contribution for L=            1  read in
    real space projection operators read in
  non local Contribution for L=            2  read in
    real space projection operators read in
    PAW grid and wavefunctions read in
 
   number of l-projection  operators is LMAX  =            5
   number of lm-projection operators is LMMAX =           13
 
 -----------------------------------------------------------------------------
|                                                                             |
|               ----> ADVICE to this user running VASP <----                  |
|                                                                             |
|     You have a (more or less) 'large supercell' and for larger cells it     |
|     might be more efficient to use real-space projection operators.         |
|     Therefore, try LREAL= Auto in the INCAR file.                           |
|     Mind: For very accurate calculation, you might also keep the            |
|     reciprocal projection scheme (i.e. LREAL=.FALSE.).                      |
|                                                                             |
 -----------------------------------------------------------------------------

  PAW_PBE Ge 05Jan2001                  :
 energy of atom  1       EATOM= -104.9960
 kinetic energy error for atom=    0.0002 (will be added to EATOM!!)
  PAW_PBE Se 06Sep2000                  :
 energy of atom  2       EATOM= -257.1286
 kinetic energy error for atom=    0.0007 (will be added to EATOM!!)
 
 
 POSCAR: Ge Se
  positions in cartesian coordinates
  No initial velocities read in
 exchange correlation table for  LEXCH =        8
   RHO(1)=    0.500       N(1)  =     2000
   RHO(2)=  100.500       N(2)  =     4000
 


--------------------------------------------------------------------------------------------------------


 ion  position               nearest neighbor table
   1  0.058  0.023  0.147-  45 2.49  55 2.66  54 2.80
   2  0.271  0.845  0.383-  67 2.55  48 2.62  50 2.70
   3  0.580  0.196  0.373-  68 2.55  44 2.59  56 2.71
   4  0.598  0.507  0.344-  69 2.47  56 2.50  72 2.66
   5  0.575  0.883  0.362-  70 2.51  44 2.55  48 2.63
   6  0.937  0.182  0.396-  55 2.56  46 2.57  45 2.77
   7  0.919  0.554  0.376-  47 2.43  72 2.62  71 2.66
   8  0.913  0.860  0.365-  47 2.64  53 2.67  45 2.73
   9  0.108  0.168  0.639-  51 2.52  38 2.55  57 2.57
  10  0.061  0.469  0.622-  43 2.50  58 2.59  38 2.71
  11  0.087  0.833  0.628-  59 2.54  39 2.56
  12  0.408  0.169  0.617-  60 2.60  40 2.69  51 2.78
  13  0.429  0.507  0.628-  61 2.49  41 2.60  42 2.63
  14  0.407  0.799  0.620-  42 2.59  39 2.66  62 2.68
  15  0.733  0.139  0.655-  63 2.45  37 2.57  40 2.58
  16  0.748  0.515  0.646-  64 2.35  41 2.83
  17  0.250  0.529  0.384-  66 2.56  50 2.58  49 2.59
  18  0.230  0.217  0.379-  54 2.54  46 2.57  49 2.63
  19  0.762  0.838  0.632-  52 2.56  65 2.56  37 2.67
  20  0.918  0.652  0.870-  58 2.59  52 2.65  64 2.69
  21  0.928  0.983  0.878-  37 2.52  59 2.58  57 2.80
  22  0.075  0.388  0.133-  71 2.61  66 2.62  46 2.68
  23  0.103  0.704  0.143-  47 2.51  66 2.54  67 2.55
  24  0.388  0.059  0.127-  54 2.51  68 2.52  48 2.59
  25  0.405  0.372  0.113-  49 2.56  69 2.66  68 2.76
  26  0.774  0.023  0.138-  55 2.50  44 2.60  53 2.64
  27  0.744  0.370  0.119-  71 2.60  56 2.62
  28  0.403  0.705  0.118-  70 2.60  67 2.62  50 2.80
  29  0.245  0.344  0.873-  38 2.48  60 2.67  61 2.69
  30  0.217  0.632  0.858-  61 2.44  39 2.59  58 2.61
  31  0.246  0.982  0.881-  51 2.61  62 2.62  59 2.65
  32  0.565  0.324  0.879-  63 2.65  41 2.67  60 2.73
  33  0.584  0.678  0.864-  65 2.65  42 2.71  64 2.72
  34  0.562  0.975  0.872-  40 2.51  62 2.64  65 2.66
  35  0.895  0.309  0.853-  43 2.44  57 2.72  63 2.78
  36  0.724  0.710  0.141-  72 2.50  70 2.57  53 2.71
  37  0.891  0.007  0.656-  21 2.52  15 2.57  19 2.67
  38  0.228  0.333  0.649-  29 2.48   9 2.55  10 2.71
  39  0.227  0.684  0.631-  11 2.56  30 2.59  14 2.66
  40  0.563  0.022  0.652-  34 2.51  15 2.58  12 2.69
  41  0.579  0.363  0.642-  13 2.60  32 2.67  16 2.83
  42  0.567  0.666  0.620-  14 2.59  13 2.63  33 2.71
  43  0.905  0.344  0.636-  35 2.44  10 2.50
  44  0.711  0.036  0.361-   5 2.55   3 2.59  26 2.60
  45  0.074  0.009  0.371-   1 2.49   8 2.73   6 2.77
  46  0.065  0.341  0.369-  18 2.57   6 2.57  22 2.68
  47  0.050  0.699  0.362-   7 2.43  23 2.51   8 2.64
  48  0.404  0.005  0.353-  24 2.59   2 2.62   5 2.63
  49  0.374  0.367  0.342-  25 2.56  17 2.59  18 2.63
  50  0.399  0.671  0.369-  17 2.58   2 2.70  28 2.80
  51  0.246  0.020  0.649-   9 2.52  31 2.61  12 2.78
  52  0.904  0.690  0.635-  19 2.56  20 2.65
  53  0.891  0.847  0.125-  26 2.64   8 2.67  36 2.71
  54  0.224  0.173  0.155-  24 2.51  18 2.54   1 2.80
  55  0.906  0.171  0.168-  26 2.50   6 2.56   1 2.66
  56  0.727  0.354  0.354-   4 2.50  27 2.62   3 2.71
  57  0.059  0.165  0.865-   9 2.57  35 2.72  21 2.80
  58  0.056  0.498  0.854-  10 2.59  20 2.59  30 2.61
  59  0.083  0.848  0.857-  11 2.54  21 2.58  31 2.65
  60  0.393  0.191  0.850-  12 2.60  29 2.67  32 2.73
  61  0.374  0.515  0.844-  30 2.44  13 2.49  29 2.69
  62  0.399  0.840  0.858-  31 2.62  34 2.64  14 2.68
  63  0.717  0.176  0.872-  15 2.45  32 2.65  35 2.78
  64  0.742  0.527  0.858-  16 2.35  20 2.69  33 2.72
  65  0.725  0.837  0.860-  19 2.56  33 2.65  34 2.66
  66  0.220  0.538  0.156-  23 2.54  17 2.56  22 2.62
  67  0.250  0.845  0.154-  23 2.55   2 2.55  28 2.62
  68  0.535  0.196  0.148-  24 2.52   3 2.55  25 2.76
  69  0.565  0.513  0.123-   4 2.47  25 2.66
  70  0.563  0.838  0.141-   5 2.51  36 2.57  28 2.60
  71  0.902  0.505  0.142-  27 2.60  22 2.61   7 2.66
  72  0.740  0.664  0.361-  36 2.50   7 2.62   4 2.66
 

IMPORTANT INFORMATION: All symmetrisations will be switched off!
NOSYMM: (Re-)initialisation of all symmetry stuff for point group C_1.


----------------------------------------------------------------------------------------

                                     Primitive cell                                     

  volume of cell :    1722.3238

  direct lattice vectors                    reciprocal lattice vectors
    12.455828628 -0.000005292 -0.000004277     0.080283699  0.000000034  0.000000035
    -0.000005313 12.505710167  0.000001837     0.000000034  0.079963472 -0.000000015
    -0.000004887  0.000002091 11.056911446     0.000000031 -0.000000013  0.090441169

  length of vectors
    12.455828628 12.505710167 11.056911446     0.080283699  0.079963472  0.090441169

  position of ions in fractional coordinates (direct lattice)
     0.057508227  0.022924261  0.147044937
     0.271076317  0.845427052  0.383410222
     0.579777479  0.196061556  0.373017392
     0.597728505  0.506540092  0.343568926
     0.574885292  0.883006364  0.361976472
     0.936716254  0.181575344  0.396126005
     0.919265145  0.554274149  0.375881354
     0.913376672  0.860497219  0.365196211
     0.108443578  0.167632861  0.639330351
     0.060826224  0.469320505  0.622150039
     0.086570612  0.832878318  0.627910171
     0.408453506  0.169318502  0.617296352
     0.429073391  0.507457537  0.628229267
     0.407270475  0.798531157  0.620230753
     0.733366873  0.139215571  0.655252121
     0.747634429  0.515361538  0.646091119
     0.250372853  0.528848237  0.383986597
     0.229820093  0.216851412  0.378675482
     0.761752523  0.838364436  0.632336939
     0.917627690  0.651785369  0.869902248
     0.927956690  0.983331076  0.878259558
     0.075052721  0.387811883  0.132724251
     0.102675585  0.704110556  0.143127549
     0.387995000  0.059102409  0.127168482
     0.404702554  0.372459022  0.112663204
     0.773687831  0.022996479  0.137531551
     0.744239597  0.369976786  0.118515643
     0.403285288  0.705432589  0.118296197
     0.244771827  0.343940897  0.872671532
     0.216738928  0.631730503  0.857747098
     0.245797484  0.982230789  0.881004736
     0.564783954  0.324092545  0.878776222
     0.584167551  0.677530888  0.864284611
     0.561817238  0.974641988  0.872247869
     0.894670065  0.309105214  0.852596697
     0.724266854  0.709666190  0.141312701
     0.891198064  0.007421369  0.655640946
     0.228002508  0.332981707  0.649472877
     0.227246038  0.684008516  0.631474495
     0.563043508  0.022477912  0.651600075
     0.579148553  0.363298925  0.642119622
     0.567377827  0.665772259  0.620262102
     0.905276800  0.343885647  0.635948345
     0.710765988  0.035957884  0.360797997
     0.074471160  0.008649449  0.370696784
     0.065474578  0.340612897  0.368571223
     0.049664948  0.698798452  0.362311981
     0.403818911  0.005398987  0.352856794
     0.374064158  0.367085881  0.341774487
     0.399229133  0.671390309  0.368931129
     0.246219213  0.019796297  0.649132622
     0.903515057  0.690012737  0.634822099
     0.891367086  0.847419511  0.125134567
     0.223831760  0.172967264  0.154781216
     0.905896753  0.171218762  0.167533161
     0.727353626  0.353956871  0.353616332
     0.058648007  0.165485830  0.865313597
     0.056133422  0.498313292  0.853568942
     0.082728191  0.847578079  0.856606510
     0.393169621  0.191208364  0.850216238
     0.373646309  0.514937779  0.844160951
     0.398839187  0.840186900  0.857982987
     0.716525911  0.176158029  0.871872010
     0.741995341  0.526823964  0.858297317
     0.724561887  0.836821471  0.860283793
     0.220337733  0.538469103  0.155658101
     0.250164081  0.845196852  0.153851405
     0.534528938  0.196344784  0.147836615
     0.564646834  0.512894194  0.123464244
     0.562897000  0.837830053  0.141288929
     0.901743961  0.505259195  0.142467148
     0.740442123  0.664319008  0.360634378

  ion indices of the primitive-cell ions
   primitive index   ion index
                 1           1
                 2           2
                 3           3
                 4           4
                 5           5
                 6           6
                 7           7
                 8           8
                 9           9
                10          10
                11          11
                12          12
                13          13
                14          14
                15          15
                16          16
                17          17
                18          18
                19          19
                20          20
                21          21
                22          22
                23          23
                24          24
                25          25
                26          26
                27          27
                28          28
                29          29
                30          30
                31          31
                32          32
                33          33
                34          34
                35          35
                36          36
                37          37
                38          38
                39          39
                40          40
                41          41
                42          42
                43          43
                44          44
                45          45
                46          46
                47          47
                48          48
                49          49
                50          50
                51          51
                52          52
                53          53
                54          54
                55          55
                56          56
                57          57
                58          58
                59          59
                60          60
                61          61
                62          62
                63          63
                64          64
                65          65
                66          66
                67          67
                68          68
                69          69
                70          70
                71          71
                72          72

----------------------------------------------------------------------------------------

 
 
 KPOINTS: KPOINTS created by Atomic Simulation Env

Automatic generation of k-mesh.
 Grid dimensions read from file:
 generate k-points for:    2    2    2

 Generating k-lattice:

  Cartesian coordinates                     Fractional coordinates (reciprocal lattice)
     0.040141850  0.000000017  0.000000018     0.500000000 -0.000000000  0.000000000
     0.000000017  0.039981736 -0.000000008    -0.000000000  0.500000000  0.000000000
     0.000000016 -0.000000007  0.045220585    -0.000000000  0.000000000  0.500000000

  Length of vectors
     0.040141850  0.039981736  0.045220585

  Shift w.r.t. Gamma in fractional coordinates (k-lattice)
     0.000000000  0.000000000  0.000000000

 
 Subroutine IBZKPT returns following result:
 ===========================================
 
 Found      8 irreducible k-points:
 
 Following reciprocal coordinates:
            Coordinates               Weight
  0.000000  0.000000  0.000000      1.000000
  0.500000  0.000000  0.000000      1.000000
  0.000000  0.500000  0.000000      1.000000
  0.500000  0.500000  0.000000      1.000000
  0.000000  0.000000  0.500000      1.000000
  0.500000  0.000000  0.500000      1.000000
  0.000000  0.500000  0.500000      1.000000
  0.500000  0.500000  0.500000      1.000000
 
 Following cartesian coordinates:
            Coordinates               Weight
  0.000000  0.000000  0.000000      1.000000
  0.040142  0.000000  0.000000      1.000000
  0.000000  0.039982 -0.000000      1.000000
  0.040142  0.039982  0.000000      1.000000
  0.000000 -0.000000  0.045221      1.000000
  0.040142  0.000000  0.045221      1.000000
  0.000000  0.039982  0.045221      1.000000
  0.040142  0.039982  0.045221      1.000000
 
 -----------------------------------------------------------------------------
|                                                                             |
|           W    W    AA    RRRRR   N    N  II  N    N   GGGG   !!!           |
|           W    W   A  A   R    R  NN   N  II  NN   N  G    G  !!!           |
|           W    W  A    A  R    R  N N  N  II  N N  N  G       !!!           |
|           W WW W  AAAAAA  RRRRR   N  N N  II  N  N N  G  GGG   !            |
|           WW  WW  A    A  R   R   N   NN  II  N   NN  G    G                |
|           W    W  A    A  R    R  N    N  II  N    N   GGGG   !!!           |
|                                                                             |
|     The number of bands has been changed from the values supplied in        |
|     the INCAR file. This is a result of running the parallel version.       |
|     The orbitals not found in the WAVECAR file will be initialized with     |
|     random numbers, which is usually adequate. For correlated               |
|     calculations, however, you should redo the groundstate calculation.     |
|     I found NBANDS = 220. Now, NBANDS = 224.                                |
|                                                                             |
 -----------------------------------------------------------------------------



--------------------------------------------------------------------------------------------------------




 Dimension of arrays:
   k-points           NKPTS =      8   k-points in BZ     NKDIM =      8   number of bands    NBANDS=    224
   number of dos      NEDOS =    301   number of ions     NIONS =     72
   non local maximal  LDIM  =      5   non local SUM 2l+1 LMDIM =     13
   total plane-waves  NPLWV = 774144
   max r-space proj   IRMAX =      1   max aug-charges    IRDMAX=  24626
   dimension x,y,z NGX =    96 NGY =   96 NGZ =   84
   dimension x,y,z NGXF=   192 NGYF=  192 NGZF=  168
   support grid    NGXF=   192 NGYF=  192 NGZF=  168
   ions per type =              36  36
   NGX,Y,Z   is equivalent  to a cutoff of  12.81, 12.76, 12.63 a.u.
   NGXF,Y,Z  is equivalent  to a cutoff of  25.63, 25.52, 25.26 a.u.

 SYSTEM =  01_AOPT                                 
 POSCAR =  Ge Se                                   

 Startparameter for this run:
   NWRITE =      2    write-flag & timer
   PREC   = accura    normal or accurate (medium, high low for compatibility)
   ISTART =      0    job   : 0-new  1-cont  2-samecut
   ICHARG =      2    charge: 1-file 2-atom 10-const
   ISPIN  =      2    spin polarized calculation?
   LNONCOLLINEAR =      F non collinear calculations
   LSORBIT =      F    spin-orbit coupling
   INIWAV =      1    electr: 0-lowe 1-rand  2-diag
   LASPH  =      T    aspherical Exc in radial PAW
 Electronic Relaxation 1
   ENCUT  =  520.0 eV  38.22 Ry    6.18 a.u.  23.16 23.25 20.56*2*pi/ulx,y,z
   ENINI  =  520.0     initial cutoff
   ENAUG  =  446.8 eV  augmentation charge cutoff
   NELM   =    100;   NELMIN=  5; NELMDL=  0     # of ELM steps 
   EDIFF  = 0.1E-05   stopping-criterion for ELM
   LREAL  =      F    real-space projection
   NLSPLINE    = F    spline interpolate recip. space projectors
   LCOMPAT=      F    compatible to vasp.4.4
   GGA_COMPAT  = T    GGA compatible to vasp.4.4-vasp.4.6
   LMAXPAW     = -100 max onsite density
   LMAXMIX     =    2 max onsite mixed and CHGCAR
   VOSKOWN=      0    Vosko Wilk Nusair interpolation
   ROPT   =    0.00000   0.00000
 Ionic relaxation
   EDIFFG = 0.1E-04   stopping-criterion for IOM
   NSW    =      0    number of steps for IOM
   NBLOCK =      1;   KBLOCK =      1    inner block; outer block 
   IBRION =     -1    ionic relax: 0-MD 1-quasi-New 2-CG
   NFREE  =      0    steps in history (QN), initial steepest desc. (CG)
   ISIF   =      2    stress and relaxation
   IWAVPR =     10    prediction:  0-non 1-charg 2-wave 3-comb
   ISYM   =     -1    0-nonsym 1-usesym 2-fastsym
   LCORR  =      T    Harris-Foulkes like correction to forces

   POTIM  = 0.5000    time-step for ionic-motion
   TEIN   =    0.0    initial temperature
   TEBEG  =    0.0;   TEEND  =   0.0 temperature during run
   SMASS  =  -3.00    Nose mass-parameter (am)
   estimated Nose-frequenzy (Omega)   =  0.10E-29 period in steps = 0.13E+47 mass=  -0.355E-26a.u.
   SCALEE = 1.0000    scale energy and forces
   NPACO  =    256;   APACO  = 10.0  distance and # of slots for P.C.
   PSTRESS=    0.0 pullay stress

  Mass of Ions in am
   POMASS =  72.61 78.96
  Ionic Valenz
   ZVAL   =   4.00  6.00
  Atomic Wigner-Seitz radii
   RWIGS  =  -1.00 -1.00
  virtual crystal weights 
   VCA    =   1.00  1.00
   NELECT =     360.0000    total number of electrons
   NUPDOWN=      -1.0000    fix difference up-down

 DOS related values:
   EMIN   =  10.00;   EMAX   =-10.00  energy-range for DOS
   EFERMI =   0.00;   METHOD = LEGACY      
   ISMEAR =     0;   SIGMA  =   0.05  broadening in eV -4-tet -1-fermi 0-gaus

 Electronic relaxation 2 (details)
   IALGO  =     38    algorithm
   LDIAG  =      T    sub-space diagonalisation (order eigenvalues)
   LSUBROT=      F    optimize rotation matrix (better conditioning)
   TURBO    =      0    0=normal 1=particle mesh
   IRESTART =      0    0=no restart 2=restart with 2 vectors
   NREBOOT  =      0    no. of reboots
   NMIN     =      0    reboot dimension
   EREF     =   0.00    reference energy to select bands
   IMIX   =      4    mixing-type and parameters
     AMIX     =   0.40;   BMIX     =  1.00
     AMIX_MAG =   1.60;   BMIX_MAG =  1.00
     AMIN     =   0.10
     WC   =   100.;   INIMIX=   1;  MIXPRE=   1;  MAXMIX= -45

 Intra band minimization:
   WEIMIN = 0.0000     energy-eigenvalue tresh-hold
   EBREAK =  0.11E-08  absolut break condition
   DEPER  =   0.30     relativ break condition  

   TIME   =   0.40     timestep for ELM

  volume/ion in A,a.u.               =      23.92       161.43
  Fermi-wavevector in a.u.,A,eV,Ry     =   0.971562  1.835987 12.842997  0.943934
  Thomas-Fermi vector in A             =   2.101790
 
 Write flags
   LWAVE        =      F    write WAVECAR
   LDOWNSAMPLE  =      F    k-point downsampling of WAVECAR
   LCHARG       =      F    write CHGCAR
   LVTOT        =      F    write LOCPOT, total local potential
   LVHAR        =      F    write LOCPOT, Hartree potential only
   LELF         =      F    write electronic localiz. function (ELF)
   LORBIT       =     11    0 simple, 1 ext, 2 COOP (PROOUT), +10 PAW based schemes


 Dipole corrections
   LMONO  =      F    monopole corrections only (constant potential shift)
   LDIPOL =      F    correct potential (dipole corrections)
   IDIPOL =      0    1-x, 2-y, 3-z, 4-all directions 
   EPSILON=  1.0000000 bulk dielectric constant

 Exchange correlation treatment:
   GGA     =    PE    GGA type
   LEXCH   =     8    internal setting for exchange type
   LIBXC   =     F    Libxc                    
   VOSKOWN =     0    Vosko Wilk Nusair interpolation
   LHFCALC =     F    Hartree Fock is set to
   LHFONE  =     F    Hartree Fock one center treatment
   AEXX    =    0.0000 exact exchange contribution

 Linear response parameters
   LEPSILON=     F    determine dielectric tensor
   LRPA    =     F    only Hartree local field effects (RPA)
   LNABLA  =     F    use nabla operator in PAW spheres
   LVEL    =     F    velocity operator in full k-point grid
   CSHIFT  =0.1000    complex shift for real part using Kramers Kronig
   OMEGAMAX=  -1.0    maximum frequency
   DEG_THRESHOLD= 0.2000000E-02 threshold for treating states as degnerate
   RTIME   =   -0.100 relaxation time in fs
  (WPLASMAI=    0.000 imaginary part of plasma frequency in eV, 0.658/RTIME)
   DFIELD  = 0.0000000 0.0000000 0.0000000 field for delta impulse in time
 
  Optional k-point grid parameters
   LKPOINTS_OPT  =     F    use optional k-point grid
   KPOINTS_OPT_MODE=     1    mode for optional k-point grid
 
 Orbital magnetization related:
   ORBITALMAG=     F  switch on orbital magnetization
   LCHIMAG   =     F  perturbation theory with respect to B field
   DQ        =  0.001000  dq finite difference perturbation B field
   LLRAUG    =     F  two centre corrections for induced B field
   LBONE     =     F  B-component reconstruction in AE one-centre
   LVGVCALC  =     T  calculate vGv susceptibility
   LVGVAPPL  =     F  apply vGv susceptibility instead of pGv for G=0

 Random number generation:
   RANDOM_GENERATOR = DEFAULT
   PCG_SEED         = not used


--------------------------------------------------------------------------------------------------------


 Static calculation
 charge density and potential will be updated during run
 spin polarized calculation
 Variant of blocked Davidson
 Davidson routine will perform the subspace rotation
 perform sub-space diagonalisation
    after iterative eigenvector-optimisation
 modified Broyden-mixing scheme, WC =      100.0
 initial mixing is a Kerker type mixing with AMIX =  0.4000 and BMIX =      1.0000
 Hartree-type preconditioning will be used
 using additional bands            44
 reciprocal scheme for non local part
 use partial core corrections
 calculate Harris-corrections to forces 
   (improved forces if not selfconsistent)
 use gradient corrections 
 use of overlap-Matrix (Vanderbilt PP)
 Gauss-broadening in eV      SIGMA  =   0.05


--------------------------------------------------------------------------------------------------------


  energy-cutoff  :      520.00
  volume of cell :     1722.32
      direct lattice vectors                 reciprocal lattice vectors
    12.455828628 -0.000005292 -0.000004277     0.080283699  0.000000034  0.000000035
    -0.000005313 12.505710167  0.000001837     0.000000034  0.079963472 -0.000000015
    -0.000004887  0.000002091 11.056911446     0.000000031 -0.000000013  0.090441169

  length of vectors
    12.455828628 12.505710167 11.056911446     0.080283699  0.079963472  0.090441169


 
 k-points in units of 2pi/SCALE and weight: KPOINTS created by Atomic Simulation Env
   0.00000000  0.00000000  0.00000000       0.125
   0.04014185  0.00000002  0.00000002       0.125
   0.00000002  0.03998174 -0.00000001       0.125
   0.04014187  0.03998175  0.00000001       0.125
   0.00000002 -0.00000001  0.04522058       0.125
   0.04014187  0.00000001  0.04522060       0.125
   0.00000003  0.03998173  0.04522058       0.125
   0.04014188  0.03998175  0.04522059       0.125
 
 k-points in reciprocal lattice and weights: KPOINTS created by Atomic Simulation Env
   0.00000000  0.00000000  0.00000000       0.125
   0.50000000  0.00000000  0.00000000       0.125
   0.00000000  0.50000000  0.00000000       0.125
   0.50000000  0.50000000  0.00000000       0.125
   0.00000000  0.00000000  0.50000000       0.125
   0.50000000  0.00000000  0.50000000       0.125
   0.00000000  0.50000000  0.50000000       0.125
   0.50000000  0.50000000  0.50000000       0.125
 
 position of ions in fractional coordinates (direct lattice) 
   0.05750823  0.02292426  0.14704494
   0.27107632  0.84542705  0.38341022
   0.57977748  0.19606156  0.37301739
   0.59772850  0.50654009  0.34356893
   0.57488529  0.88300636  0.36197647
   0.93671625  0.18157534  0.39612601
   0.91926514  0.55427415  0.37588135
   0.91337667  0.86049722  0.36519621
   0.10844358  0.16763286  0.63933035
   0.06082622  0.46932051  0.62215004
   0.08657061  0.83287832  0.62791017
   0.40845351  0.16931850  0.61729635
   0.42907339  0.50745754  0.62822927
   0.40727048  0.79853116  0.62023075
   0.73336687  0.13921557  0.65525212
   0.74763443  0.51536154  0.64609112
   0.25037285  0.52884824  0.38398660
   0.22982009  0.21685141  0.37867548
   0.76175252  0.83836444  0.63233694
   0.91762769  0.65178537  0.86990225
   0.92795669  0.98333108  0.87825956
   0.07505272  0.38781188  0.13272425
   0.10267558  0.70411056  0.14312755
   0.38799500  0.05910241  0.12716848
   0.40470255  0.37245902  0.11266320
   0.77368783  0.02299648  0.13753155
   0.74423960  0.36997679  0.11851564
   0.40328529  0.70543259  0.11829620
   0.24477183  0.34394090  0.87267153
   0.21673893  0.63173050  0.85774710
   0.24579748  0.98223079  0.88100474
   0.56478395  0.32409254  0.87877622
   0.58416755  0.67753089  0.86428461
   0.56181724  0.97464199  0.87224787
   0.89467007  0.30910521  0.85259670
   0.72426685  0.70966619  0.14131270
   0.89119806  0.00742137  0.65564095
   0.22800251  0.33298171  0.64947288
   0.22724604  0.68400852  0.63147449
   0.56304351  0.02247791  0.65160007
   0.57914855  0.36329893  0.64211962
   0.56737783  0.66577226  0.62026210
   0.90527680  0.34388565  0.63594834
   0.71076599  0.03595788  0.36079800
   0.07447116  0.00864945  0.37069678
   0.06547458  0.34061290  0.36857122
   0.04966495  0.69879845  0.36231198
   0.40381891  0.00539899  0.35285679
   0.37406416  0.36708588  0.34177449
   0.39922913  0.67139031  0.36893113
   0.24621921  0.01979630  0.64913262
   0.90351506  0.69001274  0.63482210
   0.89136709  0.84741951  0.12513457
   0.22383176  0.17296726  0.15478122
   0.90589675  0.17121876  0.16753316
   0.72735363  0.35395687  0.35361633
   0.05864801  0.16548583  0.86531360
   0.05613342  0.49831329  0.85356894
   0.08272819  0.84757808  0.85660651
   0.39316962  0.19120836  0.85021624
   0.37364631  0.51493778  0.84416095
   0.39883919  0.84018690  0.85798299
   0.71652591  0.17615803  0.87187201
   0.74199534  0.52682396  0.85829732
   0.72456189  0.83682147  0.86028379
   0.22033773  0.53846910  0.15565810
   0.25016408  0.84519685  0.15385140
   0.53452894  0.19634478  0.14783661
   0.56464683  0.51289419  0.12346424
   0.56289700  0.83783005  0.14128893
   0.90174396  0.50525920  0.14246715
   0.74044212  0.66431901  0.36063438
 
 position of ions in cartesian coordinates  (Angst):
   0.71631177  0.28668417  1.62586265
   3.37647378 10.57266504  4.23933326
   7.22160606  2.45188670  4.12441815
   7.44519945  6.33464113  3.79880956
   7.16066622 11.04261938  4.00234096
  11.66757423  2.27072450  4.37992649
  11.45020432  6.93158778  4.15608393
  11.37685694 10.76112475  4.03793984
   1.35075061  2.09636874  7.06901891
   0.75763549  5.86918719  6.87905849
   1.07830121 10.41573570  6.94274832
   5.08762296  2.11744724  6.82538966
   5.34445886  6.34611592  6.94627447
   5.07288397  9.98619835  6.85783624
   9.13468815  1.74098708  7.24506180
   9.31240042  6.44495942  7.14377004
   3.11859666  6.61362225  4.24570570
   2.86259669  2.71188049  4.18698068
   9.48825134 10.48433994  6.99169182
  11.42980553  8.15103588  9.61842940
  11.55845999 12.29725036  9.71083600
   0.93484112  4.84986289  1.46752068
   1.27890505  8.80540230  1.58254949
   4.83279829  0.73911581  1.40608909
   5.04090313  4.65786267  1.24570602
   9.63692224  0.28758349  1.52067091
   9.27011833  4.62681877  1.31041447
   5.02324811  8.82193361  1.30799015
   3.04882983  4.30122570  9.64905143
   2.69965540  7.90023923  9.48403394
   3.06160182 12.28349410  9.74119210
   7.03484613  4.05300628  9.71654905
   7.27628308  8.47300363  9.55631716
   6.99788980 12.18858907  9.64436684
  11.14385120  3.86557727  9.42708292
   9.02133936  8.87487615  1.56248022
  11.10060711  0.09280615  7.24936008
   2.83995522  4.16417287  7.18116373
   2.83053099  8.55401237  6.98215786
   7.01317015  0.28110063  7.20468196
   7.21377006  4.54330934  7.09985799
   7.06715441  8.32595320  6.85818193
  11.27596774  4.30053077  7.03162129
   8.85317739  0.44967587  3.98930853
   0.92759815  0.10816788  4.09876121
   0.81553651  4.25960659  4.07525972
   0.61861260  8.73897140  4.00605256
   5.02989740  0.06751677  3.90150461
   4.65927543  4.59066837  3.77896931
   4.97272429  8.39621127  4.07923835
   3.06686104  0.24756681  7.17740090
  11.25402195  8.62909584  7.01916914
  11.10271055 10.59757834  1.38359957
   2.78800837  2.16307761  1.71140156
  11.28369298  2.14120776  1.85239577
   9.05978851  4.42647893  3.90990201
   0.73050441  2.06951933  9.56769587
   0.69918147  6.23176309  9.43783688
   1.03043949 10.59956716  9.47142352
   4.89724825  2.39119608  9.40076432
   4.65406753  6.43966240  9.33381223
   4.96786391 10.50713354  9.48664175
   8.92491876  2.20297929  9.64020886
   9.24215982  6.58830567  9.49011522
   9.02501004 10.46504475  9.51208015
   2.74448542  6.73393769  1.72109788
   3.11599568 10.56978586  1.70112184
   6.65799909  2.45542845  1.63461443
   7.03314087  6.41410340  1.36513175
   7.01134343 10.47765713  1.56221830
  11.23196487  6.31862058  1.57524371
   9.22281490  8.30777781  3.98750043
 


--------------------------------------------------------------------------------------------------------


 k-point   1 :   0.0000 0.0000 0.0000  plane waves:   46333
 k-point   2 :   0.5000 0.0000 0.0000  plane waves:   46390
 k-point   3 :   0.0000 0.5000 0.0000  plane waves:   46374
 k-point   4 :   0.5000 0.5000 0.0000  plane waves:   46488
 k-point   5 :   0.0000 0.0000 0.5000  plane waves:   46378
 k-point   6 :   0.5000 0.0000 0.5000  plane waves:   46364
 k-point   7 :   0.0000 0.5000 0.5000  plane waves:   46384
 k-point   8 :   0.5000 0.5000 0.5000  plane waves:   46384

 maximum and minimum number of plane-waves per node :      5860     5741

 maximum number of plane-waves:     46488
 maximum index in each direction: 
   IXMAX=   23   IYMAX=   23   IZMAX=   20
   IXMIN=  -23   IYMIN=  -23   IZMIN=  -21


 parallel 3D FFT for wavefunctions:
    minimum data exchange during FFTs selected (reduces bandwidth)
 parallel 3D FFT for charge:
    minimum data exchange during FFTs selected (reduces bandwidth)


 total amount of memory used by VASP MPI-rank0   110764. kBytes
=======================================================================

   base      :      30000. kBytes
   nonl-proj :      16355. kBytes
   fftplans  :       6179. kBytes
   grid      :      15593. kBytes
   one-center:        146. kBytes
   wavefun   :      42491. kBytes
 
     INWAV:  cpu time      0.0000: real time      0.0001
 Broyden mixing: mesh for mixing (old mesh)
   NGX = 47   NGY = 47   NGZ = 41
  (NGX  =192   NGY  =192   NGZ  =168)
  gives a total of  90569 points

 initial charge density was supplied:
 charge density of overlapping atoms calculated
 number of electron     360.0000000 magnetization      72.0000000
 keeping initial charge density in first step


--------------------------------------------------------------------------------------------------------


 Maximum index for augmentation-charges           671 (set IRDMAX)


--------------------------------------------------------------------------------------------------------


 First call to EWALD:  gamma=   0.148
 Maximum number of real-space cells 3x 3x 3
 Maximum number of reciprocal cells 3x 3x 3

    FEWALD:  cpu time      0.0043: real time      0.0043


--------------------------------------- Ionic step        1  -------------------------------------------




--------------------------------------- Iteration      1(   1)  ---------------------------------------


    POTLOK:  cpu time      0.1444: real time      0.1454
    SETDIJ:  cpu time      0.6237: real time      0.6251
     EDDAV:  cpu time      8.6181: real time      8.6613
       DOS:  cpu time      0.0018: real time      0.0019
    --------------------------------------------
      LOOP:  cpu time      9.3880: real time      9.4337

 eigenvalue-minimisations  :  7168
 total energy-change (2. order) : 0.1825956E+04  (-0.1417367E+05)
 number of electron     360.0000000 magnetization      72.0000000
 augmentation part      360.0000000 magnetization      72.0000000

 Free energy of the ion-electron system (eV)
  ---------------------------------------------------
  alpha Z        PSCENC =       796.88850755
  Ewald energy   TEWEN  =    -12813.48893859
  -Hartree energ DENC   =     -1149.32015068
  -exchange      EXHF   =         0.00000000
  -V(xc)+E(xc)   XCENC  =      -292.77501412
  PAW double counting   =     10738.42099860    -9719.93139476
  entropy T*S    EENTRO =        -0.02121080
  eigenvalues    EBANDS =      1229.73202597
  atomic energy  EATOM  =     13036.45147835
  Solvation  Ediel_sol  =         0.00000000
  ---------------------------------------------------
  free energy    TOTEN  =      1825.95630153 eV

  energy without entropy =     1825.97751233  energy(sigma->0) =     1825.96690693


--------------------------------------------------------------------------------------------------------




--------------------------------------- Iteration      1(   2)  ---------------------------------------


     EDDAV:  cpu time      9.8376: real time      9.8878
       DOS:  cpu time      0.0014: real time      0.0014
    --------------------------------------------
      LOOP:  cpu time      9.8390: real time      9.8892

 eigenvalue-minimisations  :  8512
 total energy-change (2. order) :-0.1890447E+04  (-0.1814850E+04)
 number of electron     360.0000000 magnetization      72.0000000
 augmentation part      360.0000000 magnetization      72.0000000

 Free energy of the ion-electron system (eV)
  ---------------------------------------------------
  alpha Z        PSCENC =       796.88850755
  Ewald energy   TEWEN  =    -12813.48893859
  -Hartree energ DENC   =     -1149.32015068
  -exchange      EXHF   =         0.00000000
  -V(xc)+E(xc)   XCENC  =      -292.77501412
  PAW double counting   =     10738.42099860    -9719.93139476
  entropy T*S    EENTRO =        -0.01330252
  eigenvalues    EBANDS =      -660.72265556
  atomic energy  EATOM  =     13036.45147835
  Solvation  Ediel_sol  =         0.00000000
  ---------------------------------------------------
  free energy    TOTEN  =       -64.49047173 eV

  energy without entropy =      -64.47716921  energy(sigma->0) =      -64.48382047


--------------------------------------------------------------------------------------------------------




--------------------------------------- Iteration      1(   3)  ---------------------------------------


     EDDAV:  cpu time      9.8357: real time      9.8941
       DOS:  cpu time      0.0013: real time      0.0013
    --------------------------------------------
      LOOP:  cpu time      9.8369: real time      9.8954

 eigenvalue-minimisations  :  8592
 total energy-change (2. order) :-0.2172342E+03  (-0.2116295E+03)
 number of electron     360.0000000 magnetization      72.0000000
 augmentation part      360.0000000 magnetization      72.0000000

 Free energy of the ion-electron system (eV)
  ---------------------------------------------------
  alpha Z        PSCENC =       796.88850755
  Ewald energy   TEWEN  =    -12813.48893859
  -Hartree energ DENC   =     -1149.32015068
  -exchange      EXHF   =         0.00000000
  -V(xc)+E(xc)   XCENC  =      -292.77501412
  PAW double counting   =     10738.42099860    -9719.93139476
  entropy T*S    EENTRO =        -0.00003548
  eigenvalues    EBANDS =      -877.97011877
  atomic energy  EATOM  =     13036.45147835
  Solvation  Ediel_sol  =         0.00000000
  ---------------------------------------------------
  free energy    TOTEN  =      -281.72466789 eV

  energy without entropy =     -281.72463242  energy(sigma->0) =     -281.72465016


--------------------------------------------------------------------------------------------------------




--------------------------------------- Iteration      1(   4)  ---------------------------------------


     EDDAV:  cpu time     10.1246: real time     10.1751
       DOS:  cpu time      0.0014: real time      0.0014
    --------------------------------------------
      LOOP:  cpu time     10.1260: real time     10.1765

 eigenvalue-minimisations  :  8736
 total energy-change (2. order) :-0.7767274E+01  (-0.7681055E+01)
 number of electron     360.0000000 magnetization      72.0000000
 augmentation part      360.0000000 magnetization      72.0000000

 Free energy of the ion-electron system (eV)
  ---------------------------------------------------
  alpha Z        PSCENC =       796.88850755
  Ewald energy   TEWEN  =    -12813.48893859
  -Hartree energ DENC   =     -1149.32015068
  -exchange      EXHF   =         0.00000000
  -V(xc)+E(xc)   XCENC  =      -292.77501412
  PAW double counting   =     10738.42099860    -9719.93139476
  entropy T*S    EENTRO =        -0.00001188
  eigenvalues    EBANDS =      -885.73741659
  atomic energy  EATOM  =     13036.45147835
  Solvation  Ediel_sol  =         0.00000000
  ---------------------------------------------------
  free energy    TOTEN  =      -289.49194212 eV

  energy without entropy =     -289.49193024  energy(sigma->0) =     -289.49193618


--------------------------------------------------------------------------------------------------------




--------------------------------------- Iteration      1(   5)  ---------------------------------------


     EDDAV:  cpu time     10.2415: real time     10.2948
       DOS:  cpu time      0.0011: real time      0.0011
    CHARGE:  cpu time      0.4268: real time      0.4287
    MIXING:  cpu time      0.0074: real time      0.0075
    --------------------------------------------
      LOOP:  cpu time     10.6767: real time     10.7321

 eigenvalue-minimisations  :  9040
 total energy-change (2. order) :-0.2827322E+00  (-0.2819647E+00)
 number of electron     359.9999991 magnetization      48.7811329
 augmentation part      -66.8337790 magnetization      48.9931784

 Broyden mixing:
  rms(total) = 0.29561E+01    rms(broyden)= 0.29561E+01
  rms(prec ) = 0.31036E+01
  weight for this iteration     100.00

 Free energy of the ion-electron system (eV)
  ---------------------------------------------------
  alpha Z        PSCENC =       796.88850755
  Ewald energy   TEWEN  =    -12813.48893859
  -Hartree energ DENC   =     -1149.32015068
  -exchange      EXHF   =         0.00000000
  -V(xc)+E(xc)   XCENC  =      -292.77501412
  PAW double counting   =     10738.42099860    -9719.93139476
  entropy T*S    EENTRO =        -0.00001289
  eigenvalues    EBANDS =      -886.02014780
  atomic energy  EATOM  =     13036.45147835
  Solvation  Ediel_sol  =         0.00000000
  ---------------------------------------------------
  free energy    TOTEN  =      -289.77467433 eV

  energy without entropy =     -289.77466144  energy(sigma->0) =     -289.77466789


--------------------------------------------------------------------------------------------------------




--------------------------------------- Iteration      1(   6)  ---------------------------------------


    POTLOK:  cpu time      0.1378: real time      0.1392
    SETDIJ:  cpu time      0.6229: real time      0.6246
     EDDAV:  cpu time      9.2236: real time      9.2691
       DOS:  cpu time      0.0011: real time      0.0011
    CHARGE:  cpu time      0.4210: real time      0.4226
    MIXING:  cpu time      0.0073: real time      0.0074
    --------------------------------------------
      LOOP:  cpu time     10.4137: real time     10.4640

 eigenvalue-minimisations  :  7856
 total energy-change (2. order) : 0.2306917E-01  (-0.2552158E+01)
 number of electron     359.9999991 magnetization      27.6432520
 augmentation part      -66.2319620 magnetization      28.8192651

 Broyden mixing:
  rms(total) = 0.17558E+01    rms(broyden)= 0.17558E+01
  rms(prec ) = 0.17932E+01
  weight for this iteration     100.00

 eigenvalues of (default mixing * dielectric matrix)
  average eigenvalue GAMMA=   1.0142
  1.0142

 Free energy of the ion-electron system (eV)
  ---------------------------------------------------
  alpha Z        PSCENC =       796.88850755
  Ewald energy   TEWEN  =    -12813.48893859
  -Hartree energ DENC   =     -1201.74191870
  -exchange      EXHF   =         0.00000000
  -V(xc)+E(xc)   XCENC  =      -286.14228374
  PAW double counting   =     13111.21434535   -12096.35132740
  entropy T*S    EENTRO =        -0.00000172
  eigenvalues    EBANDS =      -836.58146624
  atomic energy  EATOM  =     13036.45147835
  Solvation  Ediel_sol  =         0.00000000
  ---------------------------------------------------
  free energy    TOTEN  =      -289.75160516 eV

  energy without entropy =     -289.75160344  energy(sigma->0) =     -289.75160430


--------------------------------------------------------------------------------------------------------




--------------------------------------- Iteration      1(   7)  ---------------------------------------


    POTLOK:  cpu time      0.1343: real time      0.1350
    SETDIJ:  cpu time      0.6251: real time      0.6270
     EDDAV:  cpu time      9.4373: real time      9.4877
       DOS:  cpu time      0.0009: real time      0.0009
    CHARGE:  cpu time      0.4376: real time      0.4403
    MIXING:  cpu time      0.0075: real time      0.0075
    --------------------------------------------
      LOOP:  cpu time     10.6427: real time     10.6984

 eigenvalue-minimisations  :  8016
 total energy-change (2. order) :-0.7301087E+01  (-0.8613010E+00)
 number of electron     359.9999991 magnetization       8.8228282
 augmentation part      -66.2049009 magnetization       9.4917150

 Broyden mixing:
  rms(total) = 0.91318E+00    rms(broyden)= 0.91318E+00
  rms(prec ) = 0.92958E+00
  weight for this iteration     100.00

 eigenvalues of (default mixing * dielectric matrix)
  average eigenvalue GAMMA=   1.4730
  0.8615  2.0845

 Free energy of the ion-electron system (eV)
  ---------------------------------------------------
  alpha Z        PSCENC =       796.88850755
  Ewald energy   TEWEN  =    -12813.48893859
  -Hartree energ DENC   =     -1219.85655649
  -exchange      EXHF   =         0.00000000
  -V(xc)+E(xc)   XCENC  =      -288.98809894
  PAW double counting   =     15324.92622060   -14311.81891397
  entropy T*S    EENTRO =        -0.00000000
  eigenvalues    EBANDS =      -821.16639065
  atomic energy  EATOM  =     13036.45147835
  Solvation  Ediel_sol  =         0.00000000
  ---------------------------------------------------
  free energy    TOTEN  =      -297.05269214 eV

  energy without entropy =     -297.05269214  energy(sigma->0) =     -297.05269214


--------------------------------------------------------------------------------------------------------




--------------------------------------- Iteration      1(   8)  ---------------------------------------


    POTLOK:  cpu time      0.1333: real time      0.1340
    SETDIJ:  cpu time      0.6254: real time      0.6274
     EDDAV:  cpu time      9.5882: real time      9.6550
       DOS:  cpu time      0.0009: real time      0.0009
    CHARGE:  cpu time      0.4374: real time      0.4393
    MIXING:  cpu time      0.0075: real time      0.0076
    --------------------------------------------
      LOOP:  cpu time     10.7926: real time     10.8642

 eigenvalue-minimisations  :  8208
 total energy-change (2. order) :-0.3155320E+01  (-0.1768037E+00)
 number of electron     359.9999991 magnetization       4.3437368
 augmentation part      -66.1990730 magnetization       4.6408979

 Broyden mixing:
  rms(total) = 0.32283E+00    rms(broyden)= 0.32283E+00
  rms(prec ) = 0.32850E+00
  weight for this iteration     100.00

 eigenvalues of (default mixing * dielectric matrix)
  average eigenvalue GAMMA=   1.3605
  2.5044  0.9240  0.6531

 Free energy of the ion-electron system (eV)
  ---------------------------------------------------
  alpha Z        PSCENC =       796.88850755
  Ewald energy   TEWEN  =    -12813.48893859
  -Hartree energ DENC   =     -1225.99818467
  -exchange      EXHF   =         0.00000000
  -V(xc)+E(xc)   XCENC  =      -288.50961197
  PAW double counting   =     17204.43419411   -16192.38023879
  entropy T*S    EENTRO =        -0.00000000
  eigenvalues    EBANDS =      -817.60521801
  atomic energy  EATOM  =     13036.45147835
  Solvation  Ediel_sol  =         0.00000000
  ---------------------------------------------------
  free energy    TOTEN  =      -300.20801202 eV

  energy without entropy =     -300.20801202  energy(sigma->0) =     -300.20801202


--------------------------------------------------------------------------------------------------------




--------------------------------------- Iteration      1(   9)  ---------------------------------------


    POTLOK:  cpu time      0.1355: real time      0.1362
    SETDIJ:  cpu time      0.6248: real time      0.6264
     EDDAV:  cpu time     10.3183: real time     10.3749
       DOS:  cpu time      0.0008: real time      0.0008
    CHARGE:  cpu time      0.4201: real time      0.4217
    MIXING:  cpu time      0.0074: real time      0.0074
    --------------------------------------------
      LOOP:  cpu time     11.5069: real time     11.5674

 eigenvalue-minimisations  :  9064
 total energy-change (2. order) :-0.3386792E+00  (-0.3950881E-01)
 number of electron     359.9999991 magnetization       2.3018784
 augmentation part      -66.2342088 magnetization       2.4532818

 Broyden mixing:
  rms(total) = 0.14756E+00    rms(broyden)= 0.14756E+00
  rms(prec ) = 0.14944E+00
  weight for this iteration     100.00

 eigenvalues of (default mixing * dielectric matrix)
  average eigenvalue GAMMA=   1.3252
  2.6288  1.2249  0.8280  0.6192

 Free energy of the ion-electron system (eV)
  ---------------------------------------------------
  alpha Z        PSCENC =       796.88850755
  Ewald energy   TEWEN  =    -12813.48893859
  -Hartree energ DENC   =     -1225.04066319
  -exchange      EXHF   =         0.00000000
  -V(xc)+E(xc)   XCENC  =      -288.54477916
  PAW double counting   =     17474.21229420   -16462.49120259
  entropy T*S    EENTRO =        -0.00000000
  eigenvalues    EBANDS =      -818.53338774
  atomic energy  EATOM  =     13036.45147835
  Solvation  Ediel_sol  =         0.00000000
  ---------------------------------------------------
  free energy    TOTEN  =      -300.54669118 eV

  energy without entropy =     -300.54669118  energy(sigma->0) =     -300.54669118


--------------------------------------------------------------------------------------------------------




--------------------------------------- Iteration      1(  10)  ---------------------------------------


    POTLOK:  cpu time      0.1331: real time      0.1338
    SETDIJ:  cpu time      0.6242: real time      0.6261
     EDDAV:  cpu time      9.5350: real time      9.5811
       DOS:  cpu time      0.0007: real time      0.0007
    CHARGE:  cpu time      0.4230: real time      0.4246
    MIXING:  cpu time      0.0078: real time      0.0079
    --------------------------------------------
      LOOP:  cpu time     10.7238: real time     10.7742

 eigenvalue-minimisations  :  8120
 total energy-change (2. order) :-0.1020614E+00  (-0.9328298E-02)
 number of electron     359.9999991 magnetization       0.7761247
 augmentation part      -66.2373549 magnetization       0.8436522

 Broyden mixing:
  rms(total) = 0.73083E-01    rms(broyden)= 0.73083E-01
  rms(prec ) = 0.74205E-01
  weight for this iteration     100.00

 eigenvalues of (default mixing * dielectric matrix)
  average eigenvalue GAMMA=   1.3734
  2.6911  1.7704  0.9652  0.8150  0.6255

 Free energy of the ion-electron system (eV)
  ---------------------------------------------------
  alpha Z        PSCENC =       796.88850755
  Ewald energy   TEWEN  =    -12813.48893859
  -Hartree energ DENC   =     -1225.15065905
  -exchange      EXHF   =         0.00000000
  -V(xc)+E(xc)   XCENC  =      -288.54075385
  PAW double counting   =     17484.06831567   -16472.35533225
  entropy T*S    EENTRO =        -0.00000000
  eigenvalues    EBANDS =      -818.52137036
  atomic energy  EATOM  =     13036.45147835
  Solvation  Ediel_sol  =         0.00000000
  ---------------------------------------------------
  free energy    TOTEN  =      -300.64875253 eV

  energy without entropy =     -300.64875253  energy(sigma->0) =     -300.64875253


--------------------------------------------------------------------------------------------------------




--------------------------------------- Iteration      1(  11)  ---------------------------------------


    POTLOK:  cpu time      0.1327: real time      0.1334
    SETDIJ:  cpu time      0.6249: real time      0.6270
     EDDAV:  cpu time     10.0473: real time     10.0967
       DOS:  cpu time      0.0008: real time      0.0008
    CHARGE:  cpu time      0.4142: real time      0.4158
    MIXING:  cpu time      0.0076: real time      0.0076
    --------------------------------------------
      LOOP:  cpu time     11.2275: real time     11.2813

 eigenvalue-minimisations  :  8816
 total energy-change (2. order) :-0.3160933E-01  (-0.3439517E-02)
 number of electron     359.9999991 magnetization       0.1971784
 augmentation part      -66.2238347 magnetization       0.2166852

 Broyden mixing:
  rms(total) = 0.29352E-01    rms(broyden)= 0.29352E-01
  rms(prec ) = 0.29789E-01
  weight for this iteration     100.00

 eigenvalues of (default mixing * dielectric matrix)
  average eigenvalue GAMMA=   1.4021
  2.8870  2.1798  1.1697  0.8556  0.6961  0.6243

 Free energy of the ion-electron system (eV)
  ---------------------------------------------------
  alpha Z        PSCENC =       796.88850755
  Ewald energy   TEWEN  =    -12813.48893859
  -Hartree energ DENC   =     -1226.22455015
  -exchange      EXHF   =         0.00000000
  -V(xc)+E(xc)   XCENC  =      -288.49252444
  PAW double counting   =     17412.82918373   -16401.08839515
  entropy T*S    EENTRO =        -0.00000000
  eigenvalues    EBANDS =      -817.55512316
  atomic energy  EATOM  =     13036.45147835
  Solvation  Ediel_sol  =         0.00000000
  ---------------------------------------------------
  free energy    TOTEN  =      -300.68036186 eV

  energy without entropy =     -300.68036186  energy(sigma->0) =     -300.68036186


--------------------------------------------------------------------------------------------------------




--------------------------------------- Iteration      1(  12)  ---------------------------------------


    POTLOK:  cpu time      0.1330: real time      0.1353
    SETDIJ:  cpu time      0.6231: real time      0.6250
     EDDAV:  cpu time     10.0272: real time     10.0774
       DOS:  cpu time      0.0011: real time      0.0011
    CHARGE:  cpu time      0.4255: real time      0.4273
    MIXING:  cpu time      0.0079: real time      0.0079
    --------------------------------------------
      LOOP:  cpu time     11.2178: real time     11.2741

 eigenvalue-minimisations  :  8568
 total energy-change (2. order) :-0.3627828E-02  (-0.4582442E-03)
 number of electron     359.9999991 magnetization       0.0700475
 augmentation part      -66.2228818 magnetization       0.0750452

 Broyden mixing:
  rms(total) = 0.11478E-01    rms(broyden)= 0.11477E-01
  rms(prec ) = 0.12097E-01
  weight for this iteration     100.00

 eigenvalues of (default mixing * dielectric matrix)
  average eigenvalue GAMMA=   1.3658
  2.9901  2.3349  1.2105  0.8827  0.8827  0.6082  0.6516

 Free energy of the ion-electron system (eV)
  ---------------------------------------------------
  alpha Z        PSCENC =       796.88850755
  Ewald energy   TEWEN  =    -12813.48893859
  -Hartree energ DENC   =     -1226.38138842
  -exchange      EXHF   =         0.00000000
  -V(xc)+E(xc)   XCENC  =      -288.48826584
  PAW double counting   =     17376.99547102   -16365.23211360
  entropy T*S    EENTRO =        -0.00000000
  eigenvalues    EBANDS =      -817.42874014
  atomic energy  EATOM  =     13036.45147835
  Solvation  Ediel_sol  =         0.00000000
  ---------------------------------------------------
  free energy    TOTEN  =      -300.68398969 eV

  energy without entropy =     -300.68398969  energy(sigma->0) =     -300.68398969


--------------------------------------------------------------------------------------------------------




--------------------------------------- Iteration      1(  13)  ---------------------------------------


    POTLOK:  cpu time      0.1328: real time      0.1335
    SETDIJ:  cpu time      0.6250: real time      0.6268
     EDDAV:  cpu time     11.0553: real time     11.1101
       DOS:  cpu time      0.0007: real time      0.0007
    CHARGE:  cpu time      0.4332: real time      0.4351
    MIXING:  cpu time      0.0081: real time      0.0081
    --------------------------------------------
      LOOP:  cpu time     12.2551: real time     12.3143

 eigenvalue-minimisations  :  9872
 total energy-change (2. order) :-0.1504704E-03  (-0.6398832E-04)
 number of electron     359.9999991 magnetization       0.0183731
 augmentation part      -66.2244179 magnetization       0.0195522

 Broyden mixing:
  rms(total) = 0.49845E-02    rms(broyden)= 0.49845E-02
  rms(prec ) = 0.51865E-02
  weight for this iteration     100.00

 eigenvalues of (default mixing * dielectric matrix)
  average eigenvalue GAMMA=   1.3554
  3.0421  2.4444  1.1475  1.1475  0.9543  0.8546  0.6460  0.6073

 Free energy of the ion-electron system (eV)
  ---------------------------------------------------
  alpha Z        PSCENC =       796.88850755
  Ewald energy   TEWEN  =    -12813.48893859
  -Hartree energ DENC   =     -1226.28590116
  -exchange      EXHF   =         0.00000000
  -V(xc)+E(xc)   XCENC  =      -288.49766252
  PAW double counting   =     17362.89360021   -16351.11866502
  entropy T*S    EENTRO =        -0.00000000
  eigenvalues    EBANDS =      -817.52655898
  atomic energy  EATOM  =     13036.45147835
  Solvation  Ediel_sol  =         0.00000000
  ---------------------------------------------------
  free energy    TOTEN  =      -300.68414016 eV

  energy without entropy =     -300.68414016  energy(sigma->0) =     -300.68414016


--------------------------------------------------------------------------------------------------------




--------------------------------------- Iteration      1(  14)  ---------------------------------------


    POTLOK:  cpu time      0.1345: real time      0.1352
    SETDIJ:  cpu time      0.6230: real time      0.6250
     EDDAV:  cpu time      9.7098: real time      9.7594
       DOS:  cpu time      0.0008: real time      0.0008
    CHARGE:  cpu time      0.4116: real time      0.4134
    MIXING:  cpu time      0.0078: real time      0.0078
    --------------------------------------------
      LOOP:  cpu time     10.8874: real time     10.9416

 eigenvalue-minimisations  :  8296
 total energy-change (2. order) :-0.2272982E-04  (-0.1133868E-04)
 number of electron     359.9999991 magnetization       0.0052876
 augmentation part      -66.2240665 magnetization       0.0057033

 Broyden mixing:
  rms(total) = 0.17093E-02    rms(broyden)= 0.17093E-02
  rms(prec ) = 0.18134E-02
  weight for this iteration     100.00

 eigenvalues of (default mixing * dielectric matrix)
  average eigenvalue GAMMA=   1.3397
  3.0759  2.4670  1.4861  1.2108  0.8876  0.8876  0.7915  0.6103  0.6405

 Free energy of the ion-electron system (eV)
  ---------------------------------------------------
  alpha Z        PSCENC =       796.88850755
  Ewald energy   TEWEN  =    -12813.48893859
  -Hartree energ DENC   =     -1226.29318216
  -exchange      EXHF   =         0.00000000
  -V(xc)+E(xc)   XCENC  =      -288.49800334
  PAW double counting   =     17357.72785486   -16345.94969903
  entropy T*S    EENTRO =        -0.00000000
  eigenvalues    EBANDS =      -817.52218053
  atomic energy  EATOM  =     13036.45147835
  Solvation  Ediel_sol  =         0.00000000
  ---------------------------------------------------
  free energy    TOTEN  =      -300.68416289 eV

  energy without entropy =     -300.68416289  energy(sigma->0) =     -300.68416289


--------------------------------------------------------------------------------------------------------




--------------------------------------- Iteration      1(  15)  ---------------------------------------


    POTLOK:  cpu time      0.1327: real time      0.1334
    SETDIJ:  cpu time      0.6247: real time      0.6267
     EDDAV:  cpu time      9.8577: real time      9.9351
       DOS:  cpu time      0.0009: real time      0.0009
    CHARGE:  cpu time      0.4179: real time      0.4195
    MIXING:  cpu time      0.0084: real time      0.0085
    --------------------------------------------
      LOOP:  cpu time     11.0424: real time     11.1241

 eigenvalue-minimisations  :  8528
 total energy-change (2. order) :-0.4683036E-05  (-0.1933822E-05)
 number of electron     359.9999991 magnetization       0.0019946
 augmentation part      -66.2241778 magnetization       0.0022137

 Broyden mixing:
  rms(total) = 0.78539E-03    rms(broyden)= 0.78539E-03
  rms(prec ) = 0.83760E-03
  weight for this iteration     100.00

 eigenvalues of (default mixing * dielectric matrix)
  average eigenvalue GAMMA=   1.2997
  3.0884  2.4369  1.6593  1.0865  0.9804  0.9804  0.8210  0.7083  0.6179  0.6179

 Free energy of the ion-electron system (eV)
  ---------------------------------------------------
  alpha Z        PSCENC =       796.88850755
  Ewald energy   TEWEN  =    -12813.48893859
  -Hartree energ DENC   =     -1226.28568075
  -exchange      EXHF   =         0.00000000
  -V(xc)+E(xc)   XCENC  =      -288.49798201
  PAW double counting   =     17357.32393120   -16345.54516900
  entropy T*S    EENTRO =        -0.00000000
  eigenvalues    EBANDS =      -817.53031432
  atomic energy  EATOM  =     13036.45147835
  Solvation  Ediel_sol  =         0.00000000
  ---------------------------------------------------
  free energy    TOTEN  =      -300.68416757 eV

  energy without entropy =     -300.68416757  energy(sigma->0) =     -300.68416757


--------------------------------------------------------------------------------------------------------




--------------------------------------- Iteration      1(  16)  ---------------------------------------


    POTLOK:  cpu time      0.1346: real time      0.1353
    SETDIJ:  cpu time      0.6229: real time      0.6249
     EDDAV:  cpu time      6.7630: real time      6.7967
       DOS:  cpu time      0.0009: real time      0.0009
    --------------------------------------------
      LOOP:  cpu time      7.5215: real time      7.5578

 eigenvalue-minimisations  :  4896
 total energy-change (2. order) :-0.5573743E-06  (-0.1560421E-06)
 number of electron     359.9999991 magnetization       0.0019946
 augmentation part      -66.2241778 magnetization       0.0022137

 Free energy of the ion-electron system (eV)
  ---------------------------------------------------
  alpha Z        PSCENC =       796.88850755
  Ewald energy   TEWEN  =    -12813.48893859
  -Hartree energ DENC   =     -1226.28104779
  -exchange      EXHF   =         0.00000000
  -V(xc)+E(xc)   XCENC  =      -288.49820404
  PAW double counting   =     17357.21963641   -16345.44063232
  entropy T*S    EENTRO =        -0.00000000
  eigenvalues    EBANDS =      -817.53496771
  atomic energy  EATOM  =     13036.45147835
  Solvation  Ediel_sol  =         0.00000000
  ---------------------------------------------------
  free energy    TOTEN  =      -300.68416813 eV

  energy without entropy =     -300.68416813  energy(sigma->0) =     -300.68416813


--------------------------------------------------------------------------------------------------------




 average (electrostatic) potential at core
  the test charge radii are     1.1631  1.0808
  (the norm of the test charge is              1.0000)
       1 -33.4999       2 -33.4252       3 -33.4264       4 -33.2123       5 -33.2725
       6 -33.5009       7 -33.3918       8 -33.6918       9 -33.2283      10 -33.4728
      11 -33.5083      12 -33.5986      13 -33.2964      14 -33.5959      15 -33.1388
      16 -33.4241      17 -33.2964      18 -33.3515      19 -33.3627      20 -33.5885
      21 -33.4890      22 -33.5327      23 -33.2566      24 -33.1790      25 -33.5558
      26 -33.3101      27 -33.6622      28 -33.6162      29 -33.4788      30 -33.3237
      31 -33.5274      32 -33.5609      33 -33.6996      34 -33.3076      35 -33.3741
      36 -33.3581      37 -54.8628      38 -54.9974      39 -54.9037      40 -54.7277
      41 -54.6347      42 -55.0246      43 -54.8380      44 -54.8946      45 -54.8677
      46 -54.9387      47 -55.0632      48 -54.7343      49 -54.8076      50 -54.6719
      51 -54.8156      52 -54.8710      53 -54.9973      54 -54.7245      55 -54.8794
      56 -54.7727      57 -54.7003      58 -55.0773      59 -54.9788      60 -54.7710
      61 -54.9500      62 -54.8772      63 -54.8192      64 -54.9402      65 -54.9123
      66 -55.0268      67 -54.9616      68 -54.7528      69 -54.8620      70 -54.9127
      71 -54.7926      72 -54.8486
 
 
 
 E-fermi :   3.4855     XC(G=0):  -9.3563     alpha+bet : -8.8209

 Fermi energy:         3.4855417542

 spin component 1

 k-point     1 :       0.0000    0.0000    0.0000
  band No.  band energies     occupation 
      1     -10.9827      1.00000
      2     -10.6558      1.00000
      3     -10.4713      1.00000
      4     -10.4457      1.00000
      5     -10.3749      1.00000
      6     -10.3522      1.00000
      7     -10.1880      1.00000
      8     -10.1470      1.00000
      9     -10.1259      1.00000
     10     -10.0792      1.00000
     11      -9.9914      1.00000
     12      -9.9363      1.00000
     13      -9.8753      1.00000
     14      -9.8252      1.00000
     15      -9.7934      1.00000
     16      -9.7482      1.00000
     17      -9.6826      1.00000
     18      -9.6558      1.00000
     19      -9.5748      1.00000
     20      -9.5681      1.00000
     21      -9.5084      1.00000
     22      -9.4426      1.00000
     23      -9.4278      1.00000
     24      -9.3835      1.00000
     25      -9.3442      1.00000
     26      -9.3047      1.00000
     27      -9.2735      1.00000
     28      -9.2623      1.00000
     29      -9.2406      1.00000
     30      -9.2042      1.00000
     31      -9.1826      1.00000
     32      -9.1704      1.00000
     33      -9.1005      1.00000
     34      -9.0531      1.00000
     35      -9.0151      1.00000
     36      -8.9579      1.00000
     37      -5.4648      1.00000
     38      -5.4282      1.00000
     39      -5.2991      1.00000
     40      -5.2149      1.00000
     41      -5.1474      1.00000
     42      -5.0730      1.00000
     43      -5.0448      1.00000
     44      -4.9628      1.00000
     45      -4.8112      1.00000
     46      -4.7090      1.00000
     47      -4.6404      1.00000
     48      -4.5998      1.00000
     49      -4.5458      1.00000
     50      -4.4931      1.00000
     51      -4.4882      1.00000
     52      -4.4169      1.00000
     53      -4.3737      1.00000
     54      -4.3548      1.00000
     55      -4.3275      1.00000
     56      -4.2913      1.00000
     57      -4.2784      1.00000
     58      -4.2542      1.00000
     59      -4.1861      1.00000
     60      -4.1392      1.00000
     61      -4.1187      1.00000
     62      -4.0507      1.00000
     63      -3.9712      1.00000
     64      -3.9639      1.00000
     65      -3.9360      1.00000
     66      -3.8465      1.00000
     67      -3.6711      1.00000
     68      -3.6240      1.00000
     69      -3.5579      1.00000
     70      -3.4820      1.00000
     71      -2.4370      1.00000
     72      -2.4098      1.00000
     73      -1.9127      1.00000
     74      -1.6189      1.00000
     75      -1.5729      1.00000
     76      -1.5252      1.00000
     77      -1.5067      1.00000
     78      -1.4689      1.00000
     79      -1.3770      1.00000
     80      -1.2637      1.00000
     81      -1.2339      1.00000
     82      -1.1458      1.00000
     83      -1.1167      1.00000
     84      -1.0921      1.00000
     85      -1.0355      1.00000
     86      -0.8574      1.00000
     87      -0.7913      1.00000
     88      -0.7329      1.00000
     89      -0.7076      1.00000
     90      -0.6544      1.00000
     91      -0.6130      1.00000
     92      -0.6100      1.00000
     93      -0.5519      1.00000
     94      -0.3414      1.00000
     95      -0.2311      1.00000
     96      -0.2082      1.00000
     97      -0.0884      1.00000
     98      -0.0710      1.00000
     99      -0.0275      1.00000
    100       0.0290      1.00000
    101       0.0652      1.00000
    102       0.0980      1.00000
    103       0.1138      1.00000
    104       0.1762      1.00000
    105       0.2042      1.00000
    106       0.2697      1.00000
    107       0.2978      1.00000
    108       0.3160      1.00000
    109       0.3511      1.00000
    110       0.3697      1.00000
    111       0.4346      1.00000
    112       0.4478      1.00000
    113       0.4912      1.00000
    114       0.5025      1.00000
    115       0.5587      1.00000
    116       0.5752      1.00000
    117       0.6257      1.00000
    118       0.6793      1.00000
    119       0.7144      1.00000
    120       0.7350      1.00000
    121       0.7514      1.00000
    122       0.8371      1.00000
    123       0.8596      1.00000
    124       0.8758      1.00000
    125       0.9122      1.00000
    126       0.9522      1.00000
    127       0.9839      1.00000
    128       1.0046      1.00000
    129       1.0356      1.00000
    130       1.0484      1.00000
    131       1.1047      1.00000
    132       1.1445      1.00000
    133       1.1832      1.00000
    134       1.2286      1.00000
    135       1.2663      1.00000
    136       1.3245      1.00000
    137       1.3424      1.00000
    138       1.4140      1.00000
    139       1.4243      1.00000
    140       1.4592      1.00000
    141       1.4778      1.00000
    142       1.5275      1.00000
    143       1.5813      1.00000
    144       1.6087      1.00000
    145       1.7154      1.00000
    146       1.7434      1.00000
    147       1.7545      1.00000
    148       1.7964      1.00000
[...]
   0.838E+01 0.187E+01 -.334E+02   -.842E+01 0.246E+00 0.367E+02   0.200E+00 -.235E+01 -.249E+01   0.203E-03 -.426E-03 -.100E-03
   -.589E+01 0.717E+01 0.212E+02   0.658E+01 -.971E+01 -.245E+02   -.420E+00 0.227E+01 0.280E+01   0.981E-04 0.552E-03 0.283E-03
   -.852E+01 -.106E+02 0.315E+02   0.989E+01 0.110E+02 -.334E+02   -.137E+01 -.790E+00 0.170E+01   -.362E-03 0.492E-03 -.105E-03
   -.196E+02 -.106E+02 0.269E+02   0.209E+02 0.113E+02 -.285E+02   -.149E+01 -.317E+00 0.124E+01   -.222E-03 -.109E-03 -.236E-04
   0.405E+01 0.132E+02 0.163E+02   -.420E+01 -.147E+02 -.182E+02   0.202E+00 0.126E+01 0.205E+01   -.931E-04 -.391E-03 0.318E-04
   0.258E+01 0.120E+02 0.291E+02   -.291E+01 -.134E+02 -.312E+02   0.249E-01 0.108E+01 0.157E+01   0.719E-03 -.194E-04 0.526E-04
   -.976E+01 0.227E+02 0.255E+02   0.104E+02 -.237E+02 -.270E+02   -.834E+00 0.950E+00 0.204E+01   -.116E-03 -.112E-03 -.290E-03
   -.195E+02 -.131E+02 0.219E+02   0.204E+02 0.136E+02 -.238E+02   -.107E+01 -.263E+00 0.272E+01   -.121E-03 0.818E-04 -.444E-03
   0.288E+02 0.197E+02 0.295E+02   -.300E+02 -.209E+02 -.320E+02   0.430E+00 0.105E+01 0.199E+01   0.187E-04 -.483E-03 0.149E-03
   -.172E+02 -.139E+01 -.218E+02   0.185E+02 0.134E+01 0.237E+02   -.890E+00 -.168E+00 -.188E+01   0.795E-04 -.351E-03 -.212E-03
   -.687E+01 0.434E+01 -.314E+02   0.810E+01 -.470E+01 0.332E+02   -.175E+01 0.101E+00 -.161E+01   -.133E-03 0.131E-03 0.113E-04
   0.165E+02 -.166E+02 -.680E+01   -.169E+02 0.180E+02 0.817E+01   0.442E+00 -.118E+01 -.167E+01   0.184E-03 -.192E-04 0.266E-03
   -.990E+01 -.389E+01 -.195E+02   0.116E+02 0.419E+01 0.216E+02   -.103E+01 0.428E+00 -.184E+01   0.254E-03 -.240E-03 -.267E-03
   -.365E+01 -.193E+02 -.278E+02   0.333E+01 0.207E+02 0.296E+02   0.402E+00 -.146E+01 -.153E+01   0.212E-03 -.136E-03 -.322E-03
   -.271E+02 0.113E+02 -.285E+02   0.287E+02 -.116E+02 0.301E+02   -.131E+01 0.984E-01 -.138E+01   -.128E-04 -.299E-04 0.224E-03
   -.299E+02 0.148E+01 -.941E+01   0.316E+02 -.154E+01 0.104E+02   -.173E+01 0.356E+00 -.155E+01   -.604E-04 0.417E-04 0.338E-03
   -.972E+01 0.156E+02 0.255E+02   0.102E+02 -.168E+02 -.270E+02   -.251E+00 0.101E+01 0.163E+01   -.466E-03 0.432E-03 -.254E-03
   -.430E+01 0.408E+01 0.156E+02   0.499E+01 -.476E+01 -.173E+02   -.281E+00 0.635E+00 0.207E+01   0.701E-05 0.131E-03 -.221E-03
   -.487E+01 0.101E+02 0.242E+02   0.574E+01 -.107E+02 -.258E+02   -.950E+00 0.829E+00 0.256E+01   -.245E-03 0.207E-03 0.313E-04
   0.112E+02 -.104E+02 0.366E+02   -.121E+02 0.117E+02 -.384E+02   0.490E+00 -.114E+01 0.167E+01   0.340E-03 0.735E-04 -.945E-04
   0.133E+02 -.295E+02 0.331E+02   -.131E+02 0.312E+02 -.346E+02   0.917E-01 -.141E+01 0.107E+01   -.372E-03 -.414E-03 -.426E-03
   -.204E+02 0.206E+02 -.285E+02   0.221E+02 -.210E+02 0.301E+02   -.136E+01 -.422E+00 -.195E+01   -.199E-03 -.966E-04 0.392E-03
   0.165E+01 -.396E+01 -.383E+02   -.943E+00 0.433E+01 0.403E+02   -.985E+00 -.191E+00 -.209E+01   -.267E-03 0.436E-03 -.251E-03
   0.902E+01 0.117E+02 -.331E+02   -.926E+01 -.129E+02 0.347E+02   0.277E+00 0.123E+01 -.152E+01   0.355E-03 -.175E-03 0.109E-03
   0.359E+01 0.128E+02 -.329E+02   -.351E+01 -.143E+02 0.347E+02   -.266E+00 0.144E+01 -.163E+01   -.179E-03 -.249E-03 0.248E-03
   -.844E+01 0.157E+02 -.283E+02   0.843E+01 -.169E+02 0.296E+02   0.383E+00 0.149E+01 -.120E+01   0.163E-04 0.162E-03 0.420E-03
   -.280E+02 -.831E+00 -.317E+02   0.296E+02 0.842E+00 0.338E+02   -.888E+00 -.528E+00 -.147E+01   -.359E-03 -.880E-04 -.189E-04
   -.452E+00 0.770E+01 -.190E+02   0.251E+00 -.891E+01 0.203E+02   0.280E+00 0.952E+00 -.153E+01   0.272E-03 0.167E-03 0.133E-03
   -.522E+01 0.703E+01 -.414E+02   0.552E+01 -.805E+01 0.440E+02   -.818E-02 0.134E+01 -.196E+01   0.222E-03 -.457E-03 -.109E-03
   0.579E+01 0.192E+02 -.402E+02   -.606E+01 -.203E+02 0.427E+02   0.290E+00 0.124E+01 -.113E+01   0.185E-03 -.231E-03 -.178E-03
   -.110E+02 -.915E+01 -.253E+02   0.121E+02 0.941E+01 0.271E+02   -.133E+01 -.308E+00 -.190E+01   -.193E-04 0.735E-03 0.196E-04
   -.811E+01 0.102E+02 0.334E+02   0.940E+01 -.107E+02 -.346E+02   -.130E+01 0.964E-01 0.104E+01   -.179E-03 0.772E-04 -.728E-04
   0.630E+01 -.243E+02 0.328E+02   -.639E+01 0.258E+02 -.342E+02   -.187E+00 -.151E+01 0.122E+01   -.278E-03 0.249E-04 0.209E-03
   -.318E+02 0.765E+01 0.254E+02   0.334E+02 -.771E+01 -.272E+02   -.135E+01 0.574E+00 0.168E+01   -.866E-04 -.663E-03 -.242E-03
   -.131E+01 -.860E+01 0.335E+02   0.132E+01 0.958E+01 -.359E+02   0.807E-01 -.115E+01 0.185E+01   -.226E-03 -.174E-03 0.436E-03
   -.591E+01 -.240E+02 0.229E+02   0.591E+01 0.258E+02 -.248E+02   0.728E-01 -.147E+01 0.163E+01   0.555E-03 0.885E-03 0.328E-03
   0.439E+01 -.593E+01 0.263E+02   -.449E+01 0.763E+01 -.280E+02   0.202E+00 -.145E+01 0.175E+01   0.397E-03 0.278E-03 0.152E-03
   0.103E+02 -.193E+02 -.247E+02   -.110E+02 0.205E+02 0.272E+02   0.591E+00 -.981E+00 -.222E+01   -.210E-03 0.236E-03 -.659E-04
 -----------------------------------------------------------------------------------------------
   -.173E+02 0.346E+01 -.124E+01   -.142E-12 0.178E-13 -.782E-13   0.173E+02 -.346E+01 0.124E+01   0.975E-03 0.420E-03 0.232E-03
 
 
 POSITION                                       TOTAL-FORCE (eV/Angst)
 -----------------------------------------------------------------------------------
      0.71631      0.28668      1.62586         0.469704      0.417201     -0.235425
      3.37647     10.57267      4.23933         0.164180      0.058681     -0.066845
      7.22161      2.45189      4.12442        -0.024742      0.415097      0.019198
      7.44520      6.33464      3.79881        -0.497587      0.458340      0.805765
      7.16067     11.04262      4.00234        -0.399677     -0.121141      0.571349
     11.66757      2.27072      4.37993        -0.069852     -0.215829      0.193306
     11.45020      6.93159      4.15608        -0.847067     -0.807396     -0.173943
     11.37686     10.76112      4.03794         0.267332      0.060066     -0.386482
      1.35075      2.09637      7.06902        -0.670544     -0.154433     -0.050261
      0.75764      5.86919      6.87906         0.361429      0.130333     -0.153911
      1.07830     10.41574      6.94275        -0.111295      0.010566     -0.036852
      5.08762      2.11745      6.82539         0.170061     -0.318193      0.335960
      5.34446      6.34612      6.94627         0.122246     -0.338648     -0.740085
      5.07288      9.98620      6.85784        -0.172154      0.341221      0.237010
      9.13469      1.74099      7.24506        -0.184293      0.463888     -0.811979
      9.31240      6.44496      7.14377         0.045284     -0.598820     -1.324370
      3.11860      6.61362      4.24571         0.096033      0.097724      0.219750
      2.86260      2.71188      4.18698         0.250436     -0.040267     -0.104154
      9.48825     10.48434      6.99169        -0.185834      0.195932     -0.131239
     11.42981      8.15104      9.61843        -0.293828      0.127524     -0.098152
     11.55846     12.29725      9.71084         0.204137      0.492094      0.006211
      0.93484      4.84986      1.46752        -0.186570     -0.238521      0.055024
      1.27891      8.80540      1.58255        -0.541724      0.123457     -0.765331
      4.83280      0.73912      1.40609         0.052177     -0.584504     -0.135384
      5.04090      4.65786      1.24571         0.342285     -0.267852      0.305497
      9.63692      0.28758      1.52067        -0.738621     -0.047499     -0.410407
      9.27012      4.62682      1.31041         0.043107      0.068799      0.451130
      5.02325      8.82193      1.30799         0.209364     -0.167924      0.518578
      3.04883      4.30123      9.64905         0.336828     -0.401696      0.358659
      2.69966      7.90024      9.48403        -0.265655      0.882242      0.141232
      3.06160     12.28349      9.74119         0.107353      0.211006     -0.209066
      7.03485      4.05301      9.71655        -0.005580     -0.318265     -0.653437
      7.27628      8.47300      9.55632         0.371494     -0.138103     -0.490697
      6.99789     12.18859      9.64437         0.014376      0.230740      0.442390
     11.14385      3.86558      9.42708         0.159028     -0.239600      0.873365
      9.02134      8.87488      1.56248         0.270832     -0.271080     -0.488087
     11.10061      0.09281      7.24936         0.003698     -0.384785     -0.188523
      2.83996      4.16417      7.18116        -0.183033      0.425479     -0.450653
      2.83053      8.55401      6.98216         0.050378     -0.250326      0.173068
      7.01317      0.28110      7.20468        -0.304386     -0.371093     -0.514014
      7.21377      4.54331      7.09986        -0.239252     -0.050375      0.477494
      7.06715      8.32595      6.85818        -0.145953      0.230375      0.838730
     11.27597      4.30053      7.03162        -0.778560     -0.124738     -0.539162
      8.85318      0.44968      3.98931         0.466314     -0.216635     -0.035981
      0.92760      0.10817      4.09876        -0.516902     -0.253289      0.152477
      0.81554      4.25961      4.07526         0.059887      0.214481     -0.299267
      0.61861      8.73897      4.00605         0.654704      0.724117      0.248380
      5.02990      0.06752      3.90150         0.080620     -0.015554      0.237251
      4.65928      4.59067      3.77897         0.293947     -0.193394      0.236639
      4.97272      8.39621      4.07924         0.007361      0.294008     -0.584705
      3.06686      0.24757      7.17740         0.250226     -0.150970      0.084379
     11.25402      8.62910      7.01917         0.403407     -0.043557      0.363115
     11.10271     10.59758      1.38360        -0.087797      0.171907      0.954144
      2.78801      2.16308      1.71140        -0.421073      0.165818     -0.154256
     11.28369      2.14121      1.85240         0.309630      0.275579     -0.347525
      9.05979      4.42648      3.90990         0.322657     -0.851378     -0.364486
      0.73050      2.06952      9.56770        -0.278936      0.178242     -0.076851
      0.69918      6.23176      9.43784         0.033592      0.087674      0.087914
      1.03044     10.59957      9.47142        -0.178924     -0.049793      0.167976
      4.89725      2.39120      9.40076         0.372681      0.305559      0.111322
      4.65407      6.43966      9.33381         0.757142     -0.517886      0.699556
      4.96786     10.50713      9.48664         0.079976     -0.260157     -0.297092
      8.92492      2.20298      9.64021         0.286592      0.318661      0.579036
      9.24216      6.58831      9.49012         0.022240      0.122892      1.374525
      9.02501     10.46504      9.51208        -0.261626     -0.054226     -0.054490
      2.74449      6.73394      1.72110        -0.004891     -0.404017     -0.232136
      3.11600     10.56979      1.70112        -0.280012      0.071466     -0.096695
      6.65800      2.45543      1.63461         0.246613      0.513558     -0.125020
      7.03314      6.41410      1.36513         0.092496     -0.171255     -0.545360
      7.01134     10.47766      1.56222         0.072694      0.271662     -0.264517
     11.23196      6.31862      1.57524         0.095103      0.253197      0.073769
      9.22281      8.30778      3.98750        -0.143271      0.223616      0.242644
 -----------------------------------------------------------------------------------
    total drift:                                0.001552      0.000077      0.000242


--------------------------------------------------------------------------------------------------------



  FREE ENERGIE OF THE ION-ELECTRON SYSTEM (eV)
  ---------------------------------------------------
  free  energy   TOTEN  =      -300.68416813 eV

  energy  without entropy=     -300.68416813  energy(sigma->0) =     -300.68416813
 


--------------------------------------------------------------------------------------------------------


    POTLOK:  cpu time      0.7360: real time      0.7388


--------------------------------------------------------------------------------------------------------


     LOOP+:  cpu time    182.4626: real time    183.4201
    4ORBIT:  cpu time      0.0000: real time      0.0000



 total charge

# of ion       s       p       d       tot
------------------------------------------
    1        1.319   0.770   0.059   2.148
    2        1.316   0.777   0.058   2.151
    3        1.319   0.770   0.054   2.143
    4        1.314   0.826   0.066   2.207
    5        1.315   0.806   0.059   2.181
    6        1.335   0.742   0.055   2.131
    7        1.313   0.810   0.062   2.185
    8        1.328   0.733   0.048   2.109
    9        1.293   0.842   0.064   2.199
   10        1.321   0.780   0.061   2.162
   11        1.327   0.759   0.056   2.143
   12        1.333   0.713   0.052   2.098
   13        1.310   0.813   0.060   2.184
   14        1.321   0.753   0.053   2.127
   15        1.307   0.843   0.066   2.216
   16        1.325   0.788   0.065   2.178
   17        1.318   0.795   0.062   2.175
   18        1.300   0.816   0.061   2.177
   19        1.320   0.783   0.057   2.160
   20        1.333   0.739   0.052   2.124
   21        1.316   0.779   0.056   2.152
   22        1.333   0.745   0.050   2.128
   23        1.311   0.838   0.064   2.213
   24        1.297   0.840   0.065   2.201
   25        1.318   0.755   0.053   2.127
   26        1.322   0.799   0.057   2.178
   27        1.330   0.723   0.048   2.101
   28        1.337   0.721   0.054   2.112
   29        1.321   0.776   0.062   2.158
   30        1.307   0.838   0.064   2.210
   31        1.324   0.752   0.055   2.131
   32        1.322   0.737   0.048   2.106
   33        1.335   0.718   0.049   2.102
   34        1.327   0.772   0.056   2.155
   35        1.317   0.788   0.054   2.158
   36        1.313   0.805   0.059   2.177
   37        1.479   2.309   0.034   3.821
   38        1.477   2.322   0.039   3.838
   39        1.478   2.301   0.034   3.813
   40        1.473   2.320   0.032   3.824
   41        1.478   2.275   0.025   3.778
   42        1.485   2.272   0.035   3.792
   43        1.479   2.316   0.036   3.832
   44        1.476   2.313   0.033   3.822
   45        1.481   2.284   0.031   3.797
   46        1.476   2.309   0.034   3.819
   47        1.476   2.340   0.040   3.856
   48        1.474   2.307   0.031   3.811
   49        1.475   2.310   0.032   3.817
   50        1.478   2.283   0.029   3.790
   51        1.476   2.301   0.031   3.808
   52        1.477   2.293   0.030   3.801
   53        1.487   2.261   0.034   3.782
   54        1.476   2.311   0.032   3.818
   55        1.474   2.325   0.034   3.832
   56        1.478   2.300   0.031   3.809
   57        1.477   2.276   0.026   3.779
   58        1.478   2.311   0.038   3.826
   59        1.478   2.308   0.035   3.821
   60        1.476   2.288   0.028   3.792
   61        1.473   2.344   0.038   3.855
   62        1.474   2.296   0.029   3.800
   63        1.479   2.298   0.033   3.810
   64        1.476   2.329   0.037   3.843
   65        1.477   2.299   0.032   3.808
   66        1.475   2.324   0.037   3.837
   67        1.477   2.316   0.036   3.830
   68        1.474   2.312   0.030   3.816
   69        1.478   2.298   0.033   3.808
   70        1.474   2.323   0.034   3.832
   71        1.473   2.301   0.028   3.802
   72        1.478   2.305   0.034   3.816
--------------------------------------------------
tot        100.668 111.027   3.251 214.947



 magnetization (x)

# of ion       s       p       d       tot
------------------------------------------
    1       -0.000   0.000   0.000   0.000
    2       -0.000   0.000   0.000   0.000
    3       -0.000  -0.000  -0.000  -0.000
    4       -0.000   0.000  -0.000   0.000
    5       -0.000   0.000  -0.000   0.000
    6       -0.000  -0.000  -0.000  -0.000
    7       -0.000   0.000   0.000   0.000
    8       -0.000   0.000   0.000   0.000
    9       -0.000   0.000  -0.000   0.000
   10       -0.000   0.000   0.000   0.000
   11       -0.000   0.000   0.000   0.000
   12       -0.000  -0.000  -0.000  -0.000
   13       -0.000   0.000  -0.000   0.000
   14       -0.000   0.000   0.000   0.000
   15       -0.000  -0.000  -0.000  -0.000
   16       -0.000   0.000  -0.000   0.000
   17       -0.000   0.000   0.000   0.000
   18       -0.000  -0.000  -0.000  -0.000
   19       -0.000   0.000   0.000   0.000
   20       -0.000   0.000   0.000   0.000
   21       -0.000   0.000   0.000   0.000
   22       -0.000   0.000   0.000   0.000
   23       -0.000   0.000   0.000   0.000
   24       -0.000   0.000  -0.000   0.000
   25       -0.000   0.000   0.000   0.000
   26       -0.000   0.000  -0.000   0.000
   27       -0.000   0.000  -0.000  -0.000
   28       -0.000   0.000   0.000   0.000
   29       -0.000   0.000   0.000   0.000
   30       -0.000   0.000   0.000   0.000
   31       -0.000   0.000   0.000   0.000
   32       -0.000   0.000  -0.000   0.000
   33       -0.000   0.000   0.000   0.000
   34       -0.000   0.000  -0.000   0.000
   35       -0.000   0.000  -0.000   0.000
   36       -0.000   0.000   0.000   0.000
   37       -0.000  -0.000   0.000  -0.000
   38       -0.000  -0.000   0.000  -0.000
   39       -0.000  -0.000   0.000  -0.000
   40       -0.000  -0.000  -0.000  -0.000
   41       -0.000  -0.000  -0.000  -0.000
   42       -0.000  -0.000   0.000  -0.000
   43       -0.000  -0.000   0.000  -0.000
   44       -0.000  -0.000  -0.000  -0.000
   45       -0.000  -0.000   0.000  -0.000
   46       -0.000  -0.000   0.000  -0.000
   47       -0.000  -0.000   0.000  -0.000
   48       -0.000  -0.000  -0.000  -0.000
   49       -0.000  -0.000  -0.000  -0.000
   50       -0.000  -0.000   0.000  -0.000
   51       -0.000  -0.000   0.000  -0.000
   52       -0.000  -0.000   0.000  -0.000
   53       -0.000  -0.000   0.000  -0.000
   54       -0.000  -0.000   0.000  -0.000
   55       -0.000  -0.000  -0.000  -0.000
   56       -0.000  -0.000  -0.000  -0.000
   57       -0.000  -0.000   0.000  -0.000
   58       -0.000  -0.000   0.000  -0.000
   59       -0.000  -0.000   0.000  -0.000
   60       -0.000  -0.000  -0.000  -0.000
   61       -0.000  -0.000   0.000  -0.000
   62       -0.000  -0.000   0.000  -0.000
   63       -0.000  -0.000  -0.000  -0.000
   64       -0.000  -0.000   0.000  -0.000
   65       -0.000  -0.000   0.000  -0.000
   66       -0.000  -0.000   0.000  -0.000
   67       -0.000  -0.000   0.000  -0.000
   68       -0.000  -0.000  -0.000  -0.000
   69       -0.000  -0.000   0.000  -0.000
   70       -0.000  -0.000   0.000  -0.000
   71       -0.000  -0.000   0.000  -0.000
   72       -0.000  -0.000   0.000  -0.000
--------------------------------------------------
tot         -0.000  -0.000   0.000  -0.000
 

 total amount of memory used by VASP MPI-rank0   110764. kBytes
=======================================================================

   base      :      30000. kBytes
   nonl-proj :      16355. kBytes
   fftplans  :       6179. kBytes
   grid      :      15593. kBytes
   one-center:        146. kBytes
   wavefun   :      42491. kBytes
 
  
  
 General timing and accounting informations for this job:
 ========================================================
  
                  Total CPU time used (sec):      194.016
                            User time (sec):      188.492
                          System time (sec):        5.524
                         Elapsed time (sec):      196.468
  
                   Maximum memory used (kb):      315384.
                   Average memory used (kb):          N/A
  
                          Minor page faults:       100260
                          Major page faults:           49
                 Voluntary context switches:         7297
