 vasp.6.4.2 20Jul23 (build Oct 12 2023 10:31:02) complex                         
 executed on              LinuxNV date 2025.05.28  08:09:39
 running  128 mpi-ranks, with    1 threads/rank, on    2 nodes
 distrk:  each k-point on   64 cores,    2 groups
 distr:  one band on NCORE=   4 cores,   16 groups


--------------------------------------------------------------------------------------------------------


 INCAR:
   ENCUT = 360.000000
   SIGMA = 0.050000
   EDIFF = 1.00e-06
   ALGO = Normal
   GGA = PE
   PREC = Normal
   SYSTEM = ./
   ICHARG = 2
   ISMEAR = 0
   ISPIN = 1
   ISTART = 0
   ISYM = 0
   KPAR = 2
   LMAXMIX = 4
   NELM = 100
   NPAR = 16
   LASPH = .TRUE.
   LCHARG = .FALSE.
   LWAVE = .FALSE.

 POTCAR:    PAW_PBE Ge 05Jan2001                  
 POTCAR:    PAW_PBE Se 06Sep2000                  
 POTCAR:    PAW_PBE Ge 05Jan2001                  
   VRHFIN =Ge: s2p2                                                                                 
   LEXCH  = PE                                                                                      
   EATOM  =   104.9960 eV,    7.7170 Ry                                                             
                                                                                                    
   TITEL  = PAW_PBE Ge 05Jan2001                                                                    
   LULTRA =        F    use ultrasoft PP ?                                                          
   IUNSCR =        1    unscreen: 0-lin 1-nonlin 2-no                                               
   RPACOR =    2.170    partial core radius                                                         
   POMASS =   72.610; ZVAL   =    4.000    mass and valenz                                          
   RCORE  =    2.300    outmost cutoff radius                                                       
   RWIGS  =    2.300; RWIGS  =    1.217    wigner-seitz radius (au A)                               
   ENMAX  =  173.807; ENMIN  =  130.355 eV                                                          
   ICORE  =        3    local potential                                                             
   LCOR   =        T    correct aug charges                                                         
   LPAW   =        T    paw PP                                                                      
   EAUG   =  385.843                                                                                
   DEXC   =    0.000                                                                                
   RMAX   =    2.342    core radius for proj-oper                                                   
   RAUG   =    1.300    factor for augmentation sphere                                              
   RDEP   =    2.318    radius for radial grids                                                     
   RDEPT  =    2.103    core radius for aug-charge                                                  
                                                                                                    
   Atomic configuration                                                                             
   10 entries                                                                                       
     n  l   j            E        occ.                                                              
     1  0  0.50    -10959.8463   2.0000                                                             
     2  0  0.50     -1371.6056   2.0000                                                             
     2  1  1.50     -1198.4791   6.0000                                                             
     3  0  0.50      -168.4733   2.0000                                                             
     3  1  1.50      -115.6019   6.0000                                                             
     3  2  2.50       -29.3106  10.0000                                                             
     4  0  0.50       -11.7309   2.0000                                                             
     4  1  0.50        -3.8952   2.0000                                                             
     4  2  1.50        -4.0817   0.0000                                                             
     4  3  2.50        -4.0817   0.0000                                                             
   Description                                                                                      
     l       E           TYP  RCUT    TYP  RCUT                                                     
     0    -11.7309493     23  2.300                                                                 
     0     -7.4578696     23  2.300                                                                 
     1     -3.8952261     23  2.300                                                                 
     1      6.1178114     23  2.300                                                                 
     2     -4.0817478     23  2.300                                                                 
     3     -1.3605826      7  2.300                                                                 
  local pseudopotential read in
  partial core-charges read in
  partial kinetic energy density read in
  atomic valenz-charges read in
  non local Contribution for L=            0  read in
    real space projection operators read in
  non local Contribution for L=            0  read in
    real space projection operators read in
  non local Contribution for L=            1  read in
    real space projection operators read in
  non local Contribution for L=            1  read in
    real space projection operators read in
  non local Contribution for L=            2  read in
    real space projection operators read in
    PAW grid and wavefunctions read in
 
   number of l-projection  operators is LMAX  =            5
   number of lm-projection operators is LMMAX =           13
 
 POTCAR:    PAW_PBE Se 06Sep2000                  
   VRHFIN =Se: s2p4                                                                                 
   LEXCH  = PE                                                                                      
   EATOM  =   257.1286 eV,   18.8984 Ry                                                             
                                                                                                    
   TITEL  = PAW_PBE Se 06Sep2000                                                                    
   LULTRA =        F    use ultrasoft PP ?                                                          
   IUNSCR =        1    unscreen: 0-lin 1-nonlin 2-no                                               
   RPACOR =    1.900    partial core radius                                                         
   POMASS =   78.960; ZVAL   =    6.000    mass and valenz                                          
   RCORE  =    2.100    outmost cutoff radius                                                       
   RWIGS  =    2.200; RWIGS  =    1.164    wigner-seitz radius (au A)                               
   ENMAX  =  211.555; ENMIN  =  158.666 eV                                                          
   ICORE  =        3    local potential                                                             
   LCOR   =        T    correct aug charges                                                         
   LPAW   =        T    paw PP                                                                      
   EAUG   =  446.842                                                                                
   DEXC   =    0.000                                                                                
   RMAX   =    2.147    core radius for proj-oper                                                   
   RAUG   =    1.300    factor for augmentation sphere                                              
   RDEP   =    2.177    radius for radial grids                                                     
   RDEPT  =    1.928    core radius for aug-charge                                                  
                                                                                                    
   Atomic configuration                                                                             
   10 entries                                                                                       
     n  l   j            E        occ.                                                              
     1  0  0.50    -12503.4787   2.0000                                                             
     2  0  0.50     -1606.9547   2.0000                                                             
     2  1  1.50     -1413.3140   6.0000                                                             
     3  0  0.50      -213.4885   2.0000                                                             
     3  1  1.50      -152.9538   6.0000                                                             
     3  2  2.50       -53.1221  10.0000                                                             
     4  0  0.50       -17.2865   2.0000                                                             
     4  1  0.50        -6.5110   4.0000                                                             
     4  2  2.50        -6.8029   0.0000                                                             
     4  3  2.50        -6.8029   0.0000                                                             
   Description                                                                                      
     l       E           TYP  RCUT    TYP  RCUT                                                     
     0    -17.2865377     23  2.100                                                                 
     0    -15.3094411     23  2.100                                                                 
     1     -6.5110275     23  2.100                                                                 
     1     -0.0695192     23  2.100                                                                 
     2     -6.8029130     23  2.100                                                                 
     3     -1.3605826      7  2.100                                                                 
  local pseudopotential read in
  partial core-charges read in
  partial kinetic energy density read in
  atomic valenz-charges read in
  non local Contribution for L=            0  read in
    real space projection operators read in
  non local Contribution for L=            0  read in
    real space projection operators read in
  non local Contribution for L=            1  read in
    real space projection operators read in
  non local Contribution for L=            1  read in
    real space projection operators read in
  non local Contribution for L=            2  read in
    real space projection operators read in
    PAW grid and wavefunctions read in
 
   number of l-projection  operators is LMAX  =            5
   number of lm-projection operators is LMMAX =           13
 
  PAW_PBE Ge 05Jan2001                  :
 energy of atom  1       EATOM= -104.9960
 kinetic energy error for atom=    0.0005 (will be added to EATOM!!)
  PAW_PBE Se 06Sep2000                  :
 energy of atom  2       EATOM= -257.1286
 kinetic energy error for atom=    0.0030 (will be added to EATOM!!)
 
 
 POSCAR: Ge Se
  positions in cartesian coordinates
  No initial velocities read in
 exchange correlation table for  LEXCH =        8
   RHO(1)=    0.500       N(1)  =     2000
   RHO(2)=  100.500       N(2)  =     4000
 


--------------------------------------------------------------------------------------------------------


 ion  position               nearest neighbor table
   1  0.250  0.104  0.131-   5 2.55   6 2.69   6 2.69
   2  0.750  0.604  0.369-   6 2.55   5 2.69   5 2.69
   3  0.750  0.896  0.869-   7 2.55   8 2.69   8 2.69
   4  0.250  0.396  0.631-   8 2.55   7 2.69   7 2.69
   5  0.250  0.978  0.355-   1 2.55   2 2.69   2 2.69
   6  0.750  0.478  0.145-   2 2.55   1 2.69   1 2.69
   7  0.750  0.022  0.645-   3 2.55   4 2.69   4 2.69
   8  0.250  0.522  0.855-   4 2.55   3 2.69   3 2.69
 

IMPORTANT INFORMATION: All symmetrisations will be switched off!
NOSYMM: (Re-)initialisation of all symmetry stuff for point group C_1.


----------------------------------------------------------------------------------------

                                     Primitive cell                                     

  volume of cell :     208.3595

  direct lattice vectors                    reciprocal lattice vectors
     4.250000000  0.000000000  0.000000000     0.235294118  0.000000000  0.000000000
     0.000000000  4.400000000  0.000000000     0.000000000  0.227272727  0.000000000
     0.000000000  0.000000000 11.142221000     0.000000000  0.000000000  0.089748713

  length of vectors
     4.250000000  4.400000000 11.142221000     0.235294118  0.227272727  0.089748713

  position of ions in fractional coordinates (direct lattice)
     0.250000000  0.103941379  0.131149928
     0.750000000  0.603941379  0.368850072
     0.750000000  0.896058621  0.868850072
     0.250000000  0.396058621  0.631149928
     0.250000000  0.977736976  0.354930696
     0.750000000  0.477736976  0.145069304
     0.750000000  0.022263024  0.645069304
     0.250000000  0.522263024  0.854930696

  ion indices of the primitive-cell ions
   primitive index   ion index
                 1           1
                 2           2
                 3           3
                 4           4
                 5           5
                 6           6
                 7           7
                 8           8

----------------------------------------------------------------------------------------

 
 
 KPOINTS: KPOINTS created by Atomic Simulation Env

Automatic generation of k-mesh.
 Grid dimensions read from file:
 generate k-points for:    6    6    2

 Generating k-lattice:

  Cartesian coordinates                     Fractional coordinates (reciprocal lattice)
     0.039215686  0.000000000  0.000000000     0.166666667  0.000000000  0.000000000
     0.000000000  0.037878788  0.000000000     0.000000000  0.166666667  0.000000000
     0.000000000  0.000000000  0.044874357     0.000000000  0.000000000  0.500000000

  Length of vectors
     0.039215686  0.037878788  0.044874357

  Shift w.r.t. Gamma in fractional coordinates (k-lattice)
     0.000000000  0.000000000  0.000000000

 
 Subroutine IBZKPT returns following result:
 ===========================================
 
 Found     40 irreducible k-points:
 
 Following reciprocal coordinates:
            Coordinates               Weight
  0.000000  0.000000  0.000000      1.000000
  0.166667  0.000000  0.000000      2.000000
  0.333333  0.000000  0.000000      2.000000
  0.500000  0.000000  0.000000      1.000000
  0.000000  0.166667  0.000000      2.000000
  0.166667  0.166667  0.000000      2.000000
  0.166667 -0.166667  0.000000      2.000000
  0.333333  0.166667  0.000000      2.000000
  0.333333 -0.166667  0.000000      2.000000
  0.500000  0.166667  0.000000      2.000000
  0.000000  0.333333  0.000000      2.000000
  0.166667  0.333333  0.000000      2.000000
  0.166667 -0.333333  0.000000      2.000000
  0.333333  0.333333  0.000000      2.000000
  0.333333 -0.333333  0.000000      2.000000
  0.500000  0.333333  0.000000      2.000000
  0.000000  0.500000  0.000000      1.000000
  0.166667  0.500000  0.000000      2.000000
  0.333333  0.500000  0.000000      2.000000
  0.500000  0.500000  0.000000      1.000000
  0.000000  0.000000  0.500000      1.000000
  0.166667  0.000000  0.500000      2.000000
  0.333333  0.000000  0.500000      2.000000
  0.500000  0.000000  0.500000      1.000000
  0.000000  0.166667  0.500000      2.000000
  0.166667  0.166667  0.500000      2.000000
  0.166667 -0.166667  0.500000      2.000000
  0.333333  0.166667  0.500000      2.000000
  0.333333 -0.166667  0.500000      2.000000
  0.500000  0.166667  0.500000      2.000000
  0.000000  0.333333  0.500000      2.000000
  0.166667  0.333333  0.500000      2.000000
  0.166667 -0.333333  0.500000      2.000000
  0.333333  0.333333  0.500000      2.000000
  0.333333 -0.333333  0.500000      2.000000
  0.500000  0.333333  0.500000      2.000000
  0.000000  0.500000  0.500000      1.000000
  0.166667  0.500000  0.500000      2.000000
  0.333333  0.500000  0.500000      2.000000
  0.500000  0.500000  0.500000      1.000000
 
 Following cartesian coordinates:
            Coordinates               Weight
  0.000000  0.000000  0.000000      1.000000
  0.039216  0.000000  0.000000      2.000000
  0.078431  0.000000  0.000000      2.000000
  0.117647  0.000000  0.000000      1.000000
  0.000000  0.037879  0.000000      2.000000
  0.039216  0.037879  0.000000      2.000000
  0.039216 -0.037879  0.000000      2.000000
  0.078431  0.037879  0.000000      2.000000
  0.078431 -0.037879  0.000000      2.000000
  0.117647  0.037879  0.000000      2.000000
  0.000000  0.075758  0.000000      2.000000
  0.039216  0.075758  0.000000      2.000000
  0.039216 -0.075758  0.000000      2.000000
  0.078431  0.075758  0.000000      2.000000
  0.078431 -0.075758  0.000000      2.000000
  0.117647  0.075758  0.000000      2.000000
  0.000000  0.113636  0.000000      1.000000
  0.039216  0.113636  0.000000      2.000000
  0.078431  0.113636  0.000000      2.000000
  0.117647  0.113636  0.000000      1.000000
  0.000000  0.000000  0.044874      1.000000
  0.039216  0.000000  0.044874      2.000000
  0.078431  0.000000  0.044874      2.000000
  0.117647  0.000000  0.044874      1.000000
  0.000000  0.037879  0.044874      2.000000
  0.039216  0.037879  0.044874      2.000000
  0.039216 -0.037879  0.044874      2.000000
  0.078431  0.037879  0.044874      2.000000
  0.078431 -0.037879  0.044874      2.000000
  0.117647  0.037879  0.044874      2.000000
  0.000000  0.075758  0.044874      2.000000
  0.039216  0.075758  0.044874      2.000000
  0.039216 -0.075758  0.044874      2.000000
  0.078431  0.075758  0.044874      2.000000
  0.078431 -0.075758  0.044874      2.000000
  0.117647  0.075758  0.044874      2.000000
  0.000000  0.113636  0.044874      1.000000
  0.039216  0.113636  0.044874      2.000000
  0.078431  0.113636  0.044874      2.000000
  0.117647  0.113636  0.044874      1.000000
 


--------------------------------------------------------------------------------------------------------




 Dimension of arrays:
   k-points           NKPTS =     40   k-points in BZ     NKDIM =     40   number of bands    NBANDS=     32
   number of dos      NEDOS =    301   number of ions     NIONS =      8
   non local maximal  LDIM  =      5   non local SUM 2l+1 LMDIM =     13
   total plane-waves  NPLWV =  21600
   max r-space proj   IRMAX =      1   max aug-charges    IRDMAX=   5833
   dimension x,y,z NGX =    20 NGY =   20 NGZ =   54
   dimension x,y,z NGXF=    40 NGYF=   40 NGZF=  108
   support grid    NGXF=    40 NGYF=   40 NGZF=  108
   ions per type =               4   4
   NGX,Y,Z   is equivalent  to a cutoff of   7.82,  7.56,  8.06 a.u.
   NGXF,Y,Z  is equivalent  to a cutoff of  15.65, 15.11, 16.11 a.u.

 SYSTEM =  ./                                      
 POSCAR =  Ge Se                                   

 Startparameter for this run:
   NWRITE =      2    write-flag & timer
   PREC   = normal    normal or accurate (medium, high low for compatibility)
   ISTART =      0    job   : 0-new  1-cont  2-samecut
   ICHARG =      2    charge: 1-file 2-atom 10-const
   ISPIN  =      1    spin polarized calculation?
   LNONCOLLINEAR =      F non collinear calculations
   LSORBIT =      F    spin-orbit coupling
   INIWAV =      1    electr: 0-lowe 1-rand  2-diag
   LASPH  =      T    aspherical Exc in radial PAW
 Electronic Relaxation 1
   ENCUT  =  360.0 eV  26.46 Ry    5.14 a.u.   6.58  6.81 17.24*2*pi/ulx,y,z
   ENINI  =  360.0     initial cutoff
   ENAUG  =  446.8 eV  augmentation charge cutoff
   NELM   =    100;   NELMIN=  2; NELMDL= -5     # of ELM steps 
   EDIFF  = 0.1E-05   stopping-criterion for ELM
   LREAL  =      F    real-space projection
   NLSPLINE    = F    spline interpolate recip. space projectors
   LCOMPAT=      F    compatible to vasp.4.4
   GGA_COMPAT  = T    GGA compatible to vasp.4.4-vasp.4.6
   LMAXPAW     = -100 max onsite density
   LMAXMIX     =    4 max onsite mixed and CHGCAR
   VOSKOWN=      0    Vosko Wilk Nusair interpolation
   ROPT   =    0.00000   0.00000
 Ionic relaxation
   EDIFFG = 0.1E-04   stopping-criterion for IOM
   NSW    =      0    number of steps for IOM
   NBLOCK =      1;   KBLOCK =      1    inner block; outer block 
   IBRION =     -1    ionic relax: 0-MD 1-quasi-New 2-CG
   NFREE  =      0    steps in history (QN), initial steepest desc. (CG)
   ISIF   =      2    stress and relaxation
   IWAVPR =     10    prediction:  0-non 1-charg 2-wave 3-comb
   ISYM   =      0    0-nonsym 1-usesym 2-fastsym
   LCORR  =      T    Harris-Foulkes like correction to forces

   POTIM  = 0.5000    time-step for ionic-motion
   TEIN   =    0.0    initial temperature
   TEBEG  =    0.0;   TEEND  =   0.0 temperature during run
   SMASS  =  -3.00    Nose mass-parameter (am)
   estimated Nose-frequenzy (Omega)   =  0.10E-29 period in steps = 0.13E+47 mass=  -0.413E-27a.u.
   SCALEE = 1.0000    scale energy and forces
   NPACO  =    256;   APACO  = 10.0  distance and # of slots for P.C.
   PSTRESS=    0.0 pullay stress

  Mass of Ions in am
   POMASS =  72.61 78.96
  Ionic Valenz
   ZVAL   =   4.00  6.00
  Atomic Wigner-Seitz radii
   RWIGS  =  -1.00 -1.00
  virtual crystal weights 
   VCA    =   1.00  1.00
   NELECT =      40.0000    total number of electrons
   NUPDOWN=      -1.0000    fix difference up-down

 DOS related values:
   EMIN   =  10.00;   EMAX   =-10.00  energy-range for DOS
   EFERMI =   0.00;   METHOD = LEGACY      
   ISMEAR =     0;   SIGMA  =   0.05  broadening in eV -4-tet -1-fermi 0-gaus

 Electronic relaxation 2 (details)
   IALGO  =     38    algorithm
   LDIAG  =      T    sub-space diagonalisation (order eigenvalues)
   LSUBROT=      F    optimize rotation matrix (better conditioning)
   TURBO    =      0    0=normal 1=particle mesh
   IRESTART =      0    0=no restart 2=restart with 2 vectors
   NREBOOT  =      0    no. of reboots
   NMIN     =      0    reboot dimension
   EREF     =   0.00    reference energy to select bands
   IMIX   =      4    mixing-type and parameters
     AMIX     =   0.40;   BMIX     =  1.00
     AMIX_MAG =   1.60;   BMIX_MAG =  1.00
     AMIN     =   0.10
     WC   =   100.;   INIMIX=   1;  MIXPRE=   1;  MAXMIX= -45

 Intra band minimization:
   WEIMIN = 0.0000     energy-eigenvalue tresh-hold
   EBREAK =  0.78E-08  absolut break condition
   DEPER  =   0.30     relativ break condition  

   TIME   =   0.40     timestep for ELM

  volume/ion in A,a.u.               =      26.04       175.76
  Fermi-wavevector in a.u.,A,eV,Ry     =   0.944402  1.784662 12.134978  0.891896
  Thomas-Fermi vector in A             =   2.072204
 
 Write flags
   LWAVE        =      F    write WAVECAR
   LDOWNSAMPLE  =      F    k-point downsampling of WAVECAR
   LCHARG       =      F    write CHGCAR
   LVTOT        =      F    write LOCPOT, total local potential
   LVHAR        =      F    write LOCPOT, Hartree potential only
   LELF         =      F    write electronic localiz. function (ELF)
   LORBIT       =      0    0 simple, 1 ext, 2 COOP (PROOUT), +10 PAW based schemes


 Dipole corrections
   LMONO  =      F    monopole corrections only (constant potential shift)
   LDIPOL =      F    correct potential (dipole corrections)
   IDIPOL =      0    1-x, 2-y, 3-z, 4-all directions 
   EPSILON=  1.0000000 bulk dielectric constant

 Exchange correlation treatment:
   GGA     =    PE    GGA type
   LEXCH   =     8    internal setting for exchange type
   LIBXC   =     F    Libxc                    
   VOSKOWN =     0    Vosko Wilk Nusair interpolation
   LHFCALC =     F    Hartree Fock is set to
   LHFONE  =     F    Hartree Fock one center treatment
   AEXX    =    0.0000 exact exchange contribution

 Linear response parameters
   LEPSILON=     F    determine dielectric tensor
   LRPA    =     F    only Hartree local field effects (RPA)
   LNABLA  =     F    use nabla operator in PAW spheres
   LVEL    =     F    velocity operator in full k-point grid
   CSHIFT  =0.1000    complex shift for real part using Kramers Kronig
   OMEGAMAX=  -1.0    maximum frequency
   DEG_THRESHOLD= 0.2000000E-02 threshold for treating states as degnerate
   RTIME   =   -0.100 relaxation time in fs
  (WPLASMAI=    0.000 imaginary part of plasma frequency in eV, 0.658/RTIME)
   DFIELD  = 0.0000000 0.0000000 0.0000000 field for delta impulse in time
 
  Optional k-point grid parameters
   LKPOINTS_OPT  =     F    use optional k-point grid
   KPOINTS_OPT_MODE=     1    mode for optional k-point grid
 
 Orbital magnetization related:
   ORBITALMAG=     F  switch on orbital magnetization
   LCHIMAG   =     F  perturbation theory with respect to B field
   DQ        =  0.001000  dq finite difference perturbation B field
   LLRAUG    =     F  two centre corrections for induced B field
   LBONE     =     F  B-component reconstruction in AE one-centre
   LVGVCALC  =     T  calculate vGv susceptibility
   LVGVAPPL  =     F  apply vGv susceptibility instead of pGv for G=0

 Random number generation:
   RANDOM_GENERATOR = DEFAULT
   PCG_SEED         = not used


--------------------------------------------------------------------------------------------------------


 Static calculation
 charge density and potential will be updated during run
 non-spin polarized calculation
 Variant of blocked Davidson
 Davidson routine will perform the subspace rotation
 perform sub-space diagonalisation
    after iterative eigenvector-optimisation
 modified Broyden-mixing scheme, WC =      100.0
 initial mixing is a Kerker type mixing with AMIX =  0.4000 and BMIX =      1.0000
 Hartree-type preconditioning will be used
 using additional bands            12
 reciprocal scheme for non local part
 use partial core corrections
 calculate Harris-corrections to forces 
   (improved forces if not selfconsistent)
 use gradient corrections 
 use of overlap-Matrix (Vanderbilt PP)
 Gauss-broadening in eV      SIGMA  =   0.05


--------------------------------------------------------------------------------------------------------


  energy-cutoff  :      360.00
  volume of cell :      208.36
      direct lattice vectors                 reciprocal lattice vectors
     4.250000000  0.000000000  0.000000000     0.235294118  0.000000000  0.000000000
     0.000000000  4.400000000  0.000000000     0.000000000  0.227272727  0.000000000
     0.000000000  0.000000000 11.142221000     0.000000000  0.000000000  0.089748713

  length of vectors
     4.250000000  4.400000000 11.142221000     0.235294118  0.227272727  0.089748713


 
 k-points in units of 2pi/SCALE and weight: KPOINTS created by Atomic Simulation Env
   0.00000000  0.00000000  0.00000000       0.014
   0.03921569  0.00000000  0.00000000       0.028
   0.07843137  0.00000000  0.00000000       0.028
   0.11764706  0.00000000  0.00000000       0.014
   0.00000000  0.03787879  0.00000000       0.028
   0.03921569  0.03787879  0.00000000       0.028
   0.03921569 -0.03787879  0.00000000       0.028
   0.07843137  0.03787879  0.00000000       0.028
   0.07843137 -0.03787879  0.00000000       0.028
   0.11764706  0.03787879  0.00000000       0.028
   0.00000000  0.07575758  0.00000000       0.028
   0.03921569  0.07575758  0.00000000       0.028
   0.03921569 -0.07575758  0.00000000       0.028
   0.07843137  0.07575758  0.00000000       0.028
   0.07843137 -0.07575758  0.00000000       0.028
   0.11764706  0.07575758  0.00000000       0.028
   0.00000000  0.11363636  0.00000000       0.014
   0.03921569  0.11363636  0.00000000       0.028
   0.07843137  0.11363636  0.00000000       0.028
   0.11764706  0.11363636  0.00000000       0.014
   0.00000000  0.00000000  0.04487436       0.014
   0.03921569  0.00000000  0.04487436       0.028
   0.07843137  0.00000000  0.04487436       0.028
   0.11764706  0.00000000  0.04487436       0.014
   0.00000000  0.03787879  0.04487436       0.028
   0.03921569  0.03787879  0.04487436       0.028
   0.03921569 -0.03787879  0.04487436       0.028
   0.07843137  0.03787879  0.04487436       0.028
   0.07843137 -0.03787879  0.04487436       0.028
   0.11764706  0.03787879  0.04487436       0.028
   0.00000000  0.07575758  0.04487436       0.028
   0.03921569  0.07575758  0.04487436       0.028
   0.03921569 -0.07575758  0.04487436       0.028
   0.07843137  0.07575758  0.04487436       0.028
   0.07843137 -0.07575758  0.04487436       0.028
   0.11764706  0.07575758  0.04487436       0.028
   0.00000000  0.11363636  0.04487436       0.014
   0.03921569  0.11363636  0.04487436       0.028
   0.07843137  0.11363636  0.04487436       0.028
   0.11764706  0.11363636  0.04487436       0.014
 
 k-points in reciprocal lattice and weights: KPOINTS created by Atomic Simulation Env
   0.00000000  0.00000000  0.00000000       0.014
   0.16666667  0.00000000  0.00000000       0.028
   0.33333333  0.00000000  0.00000000       0.028
   0.50000000  0.00000000  0.00000000       0.014
   0.00000000  0.16666667  0.00000000       0.028
   0.16666667  0.16666667  0.00000000       0.028
   0.16666667 -0.16666667  0.00000000       0.028
   0.33333333  0.16666667  0.00000000       0.028
   0.33333333 -0.16666667  0.00000000       0.028
   0.50000000  0.16666667  0.00000000       0.028
   0.00000000  0.33333333  0.00000000       0.028
   0.16666667  0.33333333  0.00000000       0.028
   0.16666667 -0.33333333  0.00000000       0.028
   0.33333333  0.33333333  0.00000000       0.028
   0.33333333 -0.33333333  0.00000000       0.028
   0.50000000  0.33333333  0.00000000       0.028
   0.00000000  0.50000000  0.00000000       0.014
   0.16666667  0.50000000  0.00000000       0.028
   0.33333333  0.50000000  0.00000000       0.028
   0.50000000  0.50000000  0.00000000       0.014
   0.00000000  0.00000000  0.50000000       0.014
   0.16666667  0.00000000  0.50000000       0.028
   0.33333333  0.00000000  0.50000000       0.028
   0.50000000  0.00000000  0.50000000       0.014
   0.00000000  0.16666667  0.50000000       0.028
   0.16666667  0.16666667  0.50000000       0.028
   0.16666667 -0.16666667  0.50000000       0.028
   0.33333333  0.16666667  0.50000000       0.028
   0.33333333 -0.16666667  0.50000000       0.028
   0.50000000  0.16666667  0.50000000       0.028
   0.00000000  0.33333333  0.50000000       0.028
   0.16666667  0.33333333  0.50000000       0.028
   0.16666667 -0.33333333  0.50000000       0.028
   0.33333333  0.33333333  0.50000000       0.028
   0.33333333 -0.33333333  0.50000000       0.028
   0.50000000  0.33333333  0.50000000       0.028
   0.00000000  0.50000000  0.50000000       0.014
   0.16666667  0.50000000  0.50000000       0.028
   0.33333333  0.50000000  0.50000000       0.028
   0.50000000  0.50000000  0.50000000       0.014
 
 position of ions in fractional coordinates (direct lattice) 
   0.25000000  0.10394138  0.13114993
   0.75000000  0.60394138  0.36885007
   0.75000000  0.89605862  0.86885007
   0.25000000  0.39605862  0.63114993
   0.25000000  0.97773698  0.35493070
   0.75000000  0.47773698  0.14506930
   0.75000000  0.02226302  0.64506930
   0.25000000  0.52226302  0.85493070
 
 position of ions in cartesian coordinates  (Angst):
   1.06250000  0.45734207  1.46130148
   3.18750000  2.65734207  4.10980902
   3.18750000  3.94265793  9.68091952
   1.06250000  1.74265793  7.03241198
   1.06250000  4.30204270  3.95471625
   3.18750000  2.10204270  1.61639425
   3.18750000  0.09795730  7.18750475
   1.06250000  2.29795730  9.52582675
 


--------------------------------------------------------------------------------------------------------


 k-point   1 :   0.0000 0.0000 0.0000  plane waves:    3251
 k-point   2 :   0.1667 0.0000 0.0000  plane waves:    3249
 k-point   3 :   0.3333 0.0000 0.0000  plane waves:    3211
 k-point   4 :   0.5000 0.0000 0.0000  plane waves:    3222
 k-point   5 :   0.0000 0.1667 0.0000  plane waves:    3249
 k-point   6 :   0.1667 0.1667 0.0000  plane waves:    3240
 k-point   7 :   0.1667-0.1667 0.0000  plane waves:    3240
 k-point   8 :   0.3333 0.1667 0.0000  plane waves:    3224
 k-point   9 :   0.3333-0.1667 0.0000  plane waves:    3224
 k-point  10 :   0.5000 0.1667 0.0000  plane waves:    3206
 k-point  11 :   0.0000 0.3333 0.0000  plane waves:    3254
 k-point  12 :   0.1667 0.3333 0.0000  plane waves:    3243
 k-point  13 :   0.1667-0.3333 0.0000  plane waves:    3243
 k-point  14 :   0.3333 0.3333 0.0000  plane waves:    3239
 k-point  15 :   0.3333-0.3333 0.0000  plane waves:    3239
 k-point  16 :   0.5000 0.3333 0.0000  plane waves:    3210
 k-point  17 :   0.0000 0.5000 0.0000  plane waves:    3210
 k-point  18 :   0.1667 0.5000 0.0000  plane waves:    3210
 k-point  19 :   0.3333 0.5000 0.0000  plane waves:    3250
 k-point  20 :   0.5000 0.5000 0.0000  plane waves:    3248
 k-point  21 :   0.0000 0.0000 0.5000  plane waves:    3234
 k-point  22 :   0.1667 0.0000 0.5000  plane waves:    3234
 k-point  23 :   0.3333 0.0000 0.5000  plane waves:    3224
 k-point  24 :   0.5000 0.0000 0.5000  plane waves:    3208
 k-point  25 :   0.0000 0.1667 0.5000  plane waves:    3236
 k-point  26 :   0.1667 0.1667 0.5000  plane waves:    3232
 k-point  27 :   0.1667-0.1667 0.5000  plane waves:    3232
 k-point  28 :   0.3333 0.1667 0.5000  plane waves:    3224
 k-point  29 :   0.3333-0.1667 0.5000  plane waves:    3224
 k-point  30 :   0.5000 0.1667 0.5000  plane waves:    3220
 k-point  31 :   0.0000 0.3333 0.5000  plane waves:    3244
 k-point  32 :   0.1667 0.3333 0.5000  plane waves:    3244
 k-point  33 :   0.1667-0.3333 0.5000  plane waves:    3244
 k-point  34 :   0.3333 0.3333 0.5000  plane waves:    3240
 k-point  35 :   0.3333-0.3333 0.5000  plane waves:    3240
 k-point  36 :   0.5000 0.3333 0.5000  plane waves:    3224
 k-point  37 :   0.0000 0.5000 0.5000  plane waves:    3236
 k-point  38 :   0.1667 0.5000 0.5000  plane waves:    3264
 k-point  39 :   0.3333 0.5000 0.5000  plane waves:    3232
 k-point  40 :   0.5000 0.5000 0.5000  plane waves:    3240

 maximum and minimum number of plane-waves per node :       836      788

 maximum number of plane-waves:      3264
 maximum index in each direction: 
   IXMAX=    6   IYMAX=    7   IZMAX=   17
   IXMIN=   -7   IYMIN=   -7   IZMIN=  -17


 parallel 3D FFT for wavefunctions:
    minimum data exchange during FFTs selected (reduces bandwidth)
 parallel 3D FFT for charge:
    minimum data exchange during FFTs selected (reduces bandwidth)


 total amount of memory used by VASP MPI-rank0    38777. kBytes
=======================================================================

   base      :      30000. kBytes
   nonl-proj :       6893. kBytes
   fftplans  :        321. kBytes
   grid      :        462. kBytes
   one-center:         16. kBytes
   wavefun   :       1085. kBytes
 
     INWAV:  cpu time      0.0000: real time      0.0001
 Broyden mixing: mesh for mixing (old mesh)
   NGX = 13   NGY = 13   NGZ = 35
  (NGX  = 40   NGY  = 40   NGZ  =108)
  gives a total of   5915 points

 initial charge density was supplied:
 charge density of overlapping atoms calculated
 number of electron      40.0000000 magnetization 
 keeping initial charge density in first step


--------------------------------------------------------------------------------------------------------


 Maximum index for augmentation-charges            63 (set IRDMAX)


--------------------------------------------------------------------------------------------------------


 First call to EWALD:  gamma=   0.299
 Maximum number of real-space cells 4x 4x 2
 Maximum number of reciprocal cells 2x 2x 5

    FEWALD:  cpu time      0.0008: real time      0.0008


--------------------------------------- Ionic step        1  -------------------------------------------




--------------------------------------- Iteration      1(   1)  ---------------------------------------


    POTLOK:  cpu time      0.0060: real time      0.0063
    SETDIJ:  cpu time      0.1446: real time      0.1451
     EDDAV:  cpu time      0.2642: real time      0.2671
       DOS:  cpu time      0.0014: real time      0.0014
    --------------------------------------------
      LOOP:  cpu time      0.4162: real time      0.4198

 eigenvalue-minimisations  :  2560
 total energy-change (2. order) : 0.1315836E+03  (-0.1274406E+04)
 number of electron      40.0000000 magnetization 
 augmentation part       40.0000000 magnetization 

 Free energy of the ion-electron system (eV)
  ---------------------------------------------------
  alpha Z        PSCENC =        81.32311116
  Ewald energy   TEWEN  =     -1382.47385844
  -Hartree energ DENC   =      -139.15932809
  -exchange      EXHF   =         0.00000000
  -V(xc)+E(xc)   XCENC  =       -34.37643481
  PAW double counting   =      1193.78262552    -1080.73714043
  entropy T*S    EENTRO =        -0.00395645
  eigenvalues    EBANDS =        44.74401518
  atomic energy  EATOM  =      1448.48460880
  Solvation  Ediel_sol  =         0.00000000
  ---------------------------------------------------
  free energy    TOTEN  =       131.58364244 eV

  energy without entropy =      131.58759889  energy(sigma->0) =      131.58562066


--------------------------------------------------------------------------------------------------------




--------------------------------------- Iteration      1(   2)  ---------------------------------------


     EDDAV:  cpu time      0.3405: real time      0.3439
       DOS:  cpu time      0.0005: real time      0.0006
    --------------------------------------------
      LOOP:  cpu time      0.3410: real time      0.3445

 eigenvalue-minimisations  :  3744
 total energy-change (2. order) :-0.1565165E+03  (-0.1518269E+03)
 number of electron      40.0000000 magnetization 
 augmentation part       40.0000000 magnetization 

 Free energy of the ion-electron system (eV)
  ---------------------------------------------------
  alpha Z        PSCENC =        81.32311116
  Ewald energy   TEWEN  =     -1382.47385844
  -Hartree energ DENC   =      -139.15932809
  -exchange      EXHF   =         0.00000000
  -V(xc)+E(xc)   XCENC  =       -34.37643481
  PAW double counting   =      1193.78262552    -1080.73714043
  entropy T*S    EENTRO =        -0.00000000
  eigenvalues    EBANDS =      -111.77643783
  atomic energy  EATOM  =      1448.48460880
  Solvation  Ediel_sol  =         0.00000000
  ---------------------------------------------------
  free energy    TOTEN  =       -24.93285412 eV

  energy without entropy =      -24.93285412  energy(sigma->0) =      -24.93285412


--------------------------------------------------------------------------------------------------------




--------------------------------------- Iteration      1(   3)  ---------------------------------------


     EDDAV:  cpu time      0.3138: real time      0.3170
       DOS:  cpu time      0.0007: real time      0.0007
    --------------------------------------------
      LOOP:  cpu time      0.3145: real time      0.3177

 eigenvalue-minimisations  :  3264
 total energy-change (2. order) :-0.9083345E+01  (-0.9062248E+01)
 number of electron      40.0000000 magnetization 
 augmentation part       40.0000000 magnetization 

 Free energy of the ion-electron system (eV)
  ---------------------------------------------------
  alpha Z        PSCENC =        81.32311116
  Ewald energy   TEWEN  =     -1382.47385844
  -Hartree energ DENC   =      -139.15932809
  -exchange      EXHF   =         0.00000000
  -V(xc)+E(xc)   XCENC  =       -34.37643481
  PAW double counting   =      1193.78262552    -1080.73714043
  entropy T*S    EENTRO =        -0.00000000
  eigenvalues    EBANDS =      -120.85978274
  atomic energy  EATOM  =      1448.48460880
  Solvation  Ediel_sol  =         0.00000000
  ---------------------------------------------------
  free energy    TOTEN  =       -34.01619903 eV

  energy without entropy =      -34.01619903  energy(sigma->0) =      -34.01619903


--------------------------------------------------------------------------------------------------------




--------------------------------------- Iteration      1(   4)  ---------------------------------------


     EDDAV:  cpu time      0.2964: real time      0.2996
       DOS:  cpu time      0.0006: real time      0.0006
    --------------------------------------------
      LOOP:  cpu time      0.2969: real time      0.3001

 eigenvalue-minimisations  :  3120
 total energy-change (2. order) :-0.6336714E-01  (-0.6336186E-01)
 number of electron      40.0000000 magnetization 
 augmentation part       40.0000000 magnetization 

 Free energy of the ion-electron system (eV)
  ---------------------------------------------------
  alpha Z        PSCENC =        81.32311116
  Ewald energy   TEWEN  =     -1382.47385844
  -Hartree energ DENC   =      -139.15932809
  -exchange      EXHF   =         0.00000000
  -V(xc)+E(xc)   XCENC  =       -34.37643481
  PAW double counting   =      1193.78262552    -1080.73714043
  entropy T*S    EENTRO =        -0.00000000
  eigenvalues    EBANDS =      -120.92314988
  atomic energy  EATOM  =      1448.48460880
  Solvation  Ediel_sol  =         0.00000000
  ---------------------------------------------------
  free energy    TOTEN  =       -34.07956617 eV

  energy without entropy =      -34.07956617  energy(sigma->0) =      -34.07956617


--------------------------------------------------------------------------------------------------------




--------------------------------------- Iteration      1(   5)  ---------------------------------------


     EDDAV:  cpu time      0.3076: real time      0.3107
       DOS:  cpu time      0.0006: real time      0.0006
    CHARGE:  cpu time      0.0047: real time      0.0047
    MIXING:  cpu time      0.0007: real time      0.0007
    --------------------------------------------
      LOOP:  cpu time      0.3137: real time      0.3167

 eigenvalue-minimisations  :  3264
 total energy-change (2. order) :-0.3926948E-03  (-0.3926922E-03)
 number of electron      39.9999991 magnetization 
 augmentation part       -7.4141013 magnetization 

 Broyden mixing:
  rms(total) = 0.61216E+00    rms(broyden)= 0.61215E+00
  rms(prec ) = 0.71985E+00
  weight for this iteration     100.00

 Free energy of the ion-electron system (eV)
  ---------------------------------------------------
  alpha Z        PSCENC =        81.32311116
  Ewald energy   TEWEN  =     -1382.47385844
  -Hartree energ DENC   =      -139.15932809
  -exchange      EXHF   =         0.00000000
  -V(xc)+E(xc)   XCENC  =       -34.37643481
  PAW double counting   =      1193.78262552    -1080.73714043
  entropy T*S    EENTRO =        -0.00000000
  eigenvalues    EBANDS =      -120.92354257
  atomic energy  EATOM  =      1448.48460880
  Solvation  Ediel_sol  =         0.00000000
  ---------------------------------------------------
  free energy    TOTEN  =       -34.07995887 eV

  energy without entropy =      -34.07995887  energy(sigma->0) =      -34.07995887


--------------------------------------------------------------------------------------------------------




--------------------------------------- Iteration      1(   6)  ---------------------------------------


    POTLOK:  cpu time      0.0054: real time      0.0056
    SETDIJ:  cpu time      0.1374: real time      0.1379
     EDDAV:  cpu time      0.3090: real time      0.3116
       DOS:  cpu time      0.0006: real time      0.0006
    CHARGE:  cpu time      0.0058: real time      0.0058
    MIXING:  cpu time      0.0007: real time      0.0007
    --------------------------------------------
      LOOP:  cpu time      0.4587: real time      0.4622

 eigenvalue-minimisations  :  2960
 total energy-change (2. order) : 0.5084056E+00  (-0.1088766E+00)
 number of electron      39.9999992 magnetization 
 augmentation part       -7.3478865 magnetization 

 Broyden mixing:
  rms(total) = 0.37928E+00    rms(broyden)= 0.37928E+00
  rms(prec ) = 0.40267E+00
  weight for this iteration     100.00

 eigenvalues of (default mixing * dielectric matrix)
  average eigenvalue GAMMA=   1.9606
  1.9606

 Free energy of the ion-electron system (eV)
  ---------------------------------------------------
  alpha Z        PSCENC =        81.32311116
  Ewald energy   TEWEN  =     -1382.47385844
  -Hartree energ DENC   =      -145.75215834
  -exchange      EXHF   =         0.00000000
  -V(xc)+E(xc)   XCENC  =       -33.74844266
  PAW double counting   =      1429.34285235    -1316.58229185
  entropy T*S    EENTRO =        -0.00000000
  eigenvalues    EBANDS =      -114.16537425
  atomic energy  EATOM  =      1448.48460880
  Solvation  Ediel_sol  =         0.00000000
  ---------------------------------------------------
  free energy    TOTEN  =       -33.57155323 eV

  energy without entropy =      -33.57155323  energy(sigma->0) =      -33.57155323


--------------------------------------------------------------------------------------------------------




--------------------------------------- Iteration      1(   7)  ---------------------------------------


    POTLOK:  cpu time      0.0053: real time      0.0055
    SETDIJ:  cpu time      0.1378: real time      0.1387
     EDDAV:  cpu time      0.2989: real time      0.3016
       DOS:  cpu time      0.0006: real time      0.0006
    CHARGE:  cpu time      0.0044: real time      0.0044
    MIXING:  cpu time      0.0005: real time      0.0005
    --------------------------------------------
      LOOP:  cpu time      0.4474: real time      0.4512

 eigenvalue-minimisations  :  3168
 total energy-change (2. order) : 0.8537246E-02  (-0.2630551E-01)
 number of electron      39.9999992 magnetization 
 augmentation part       -7.3407442 magnetization 

 Broyden mixing:
  rms(total) = 0.15022E+00    rms(broyden)= 0.15022E+00
  rms(prec ) = 0.15982E+00
  weight for this iteration     100.00

 eigenvalues of (default mixing * dielectric matrix)
  average eigenvalue GAMMA=   1.7782
  1.1869  2.3695

 Free energy of the ion-electron system (eV)
  ---------------------------------------------------
  alpha Z        PSCENC =        81.32311116
  Ewald energy   TEWEN  =     -1382.47385844
  -Hartree energ DENC   =      -147.87705309
  -exchange      EXHF   =         0.00000000
  -V(xc)+E(xc)   XCENC  =       -33.36380733
  PAW double counting   =      1682.68744139    -1570.08818504
  entropy T*S    EENTRO =        -0.00000000
  eigenvalues    EBANDS =      -112.25527343
  atomic energy  EATOM  =      1448.48460880
  Solvation  Ediel_sol  =         0.00000000
  ---------------------------------------------------
  free energy    TOTEN  =       -33.56301599 eV

  energy without entropy =      -33.56301599  energy(sigma->0) =      -33.56301599


--------------------------------------------------------------------------------------------------------




--------------------------------------- Iteration      1(   8)  ---------------------------------------


    POTLOK:  cpu time      0.0052: real time      0.0054
    SETDIJ:  cpu time      0.1370: real time      0.1376
     EDDAV:  cpu time      0.2766: real time      0.2791
       DOS:  cpu time      0.0006: real time      0.0006
    CHARGE:  cpu time      0.0043: real time      0.0043
    MIXING:  cpu time      0.0005: real time      0.0005
    --------------------------------------------
      LOOP:  cpu time      0.4242: real time      0.4275

 eigenvalue-minimisations  :  2944
 total energy-change (2. order) : 0.6395448E-03  (-0.2664642E-02)
 number of electron      39.9999992 magnetization 
 augmentation part       -7.3522351 magnetization 

 Broyden mixing:
  rms(total) = 0.17630E-01    rms(broyden)= 0.17630E-01
  rms(prec ) = 0.23114E-01
  weight for this iteration     100.00

 eigenvalues of (default mixing * dielectric matrix)
  average eigenvalue GAMMA=   1.6347
  2.4577  1.2231  1.2231

 Free energy of the ion-electron system (eV)
  ---------------------------------------------------
  alpha Z        PSCENC =        81.32311116
  Ewald energy   TEWEN  =     -1382.47385844
  -Hartree energ DENC   =      -147.93767380
  -exchange      EXHF   =         0.00000000
  -V(xc)+E(xc)   XCENC  =       -33.20957258
  PAW double counting   =      1833.88141827    -1721.33728625
  entropy T*S    EENTRO =        -0.00000000
  eigenvalues    EBANDS =      -112.29312361
  atomic energy  EATOM  =      1448.48460880
  Solvation  Ediel_sol  =         0.00000000
  ---------------------------------------------------
  free energy    TOTEN  =       -33.56237644 eV

  energy without entropy =      -33.56237644  energy(sigma->0) =      -33.56237644


--------------------------------------------------------------------------------------------------------




--------------------------------------- Iteration      1(   9)  ---------------------------------------


    POTLOK:  cpu time      0.0052: real time      0.0054
    SETDIJ:  cpu time      0.1371: real time      0.1377
     EDDAV:  cpu time      0.2838: real time      0.2867
       DOS:  cpu time      0.0006: real time      0.0006
    CHARGE:  cpu time      0.0043: real time      0.0043
    MIXING:  cpu time      0.0005: real time      0.0005
    --------------------------------------------
      LOOP:  cpu time      0.4314: real time      0.4351

 eigenvalue-minimisations  :  3024
 total energy-change (2. order) : 0.1135525E-04  (-0.4372239E-03)
 number of electron      39.9999992 magnetization 
 augmentation part       -7.3492455 magnetization 

 Broyden mixing:
  rms(total) = 0.70080E-02    rms(broyden)= 0.70080E-02
  rms(prec ) = 0.81509E-02
  weight for this iteration     100.00

 eigenvalues of (default mixing * dielectric matrix)
  average eigenvalue GAMMA=   1.7741
  2.4041  2.4041  1.1442  1.1442

 Free energy of the ion-electron system (eV)
  ---------------------------------------------------
  alpha Z        PSCENC =        81.32311116
  Ewald energy   TEWEN  =     -1382.47385844
  -Hartree energ DENC   =      -148.38222180
  -exchange      EXHF   =         0.00000000
  -V(xc)+E(xc)   XCENC  =       -33.16891010
  PAW double counting   =      1844.30660558    -1731.77208250
  entropy T*S    EENTRO =        -0.00000000
  eigenvalues    EBANDS =      -111.87961780
  atomic energy  EATOM  =      1448.48460880
  Solvation  Ediel_sol  =         0.00000000
  ---------------------------------------------------
  free energy    TOTEN  =       -33.56236509 eV

  energy without entropy =      -33.56236509  energy(sigma->0) =      -33.56236509


--------------------------------------------------------------------------------------------------------




--------------------------------------- Iteration      1(  10)  ---------------------------------------


    POTLOK:  cpu time      0.0047: real time      0.0049
    SETDIJ:  cpu time      0.1375: real time      0.1379
     EDDAV:  cpu time      0.2029: real time      0.2037
       DOS:  cpu time      0.0003: real time      0.0003
    CHARGE:  cpu time      0.0035: real time      0.0035
    MIXING:  cpu time      0.0003: real time      0.0003
    --------------------------------------------
      LOOP:  cpu time      0.3492: real time      0.3507

 eigenvalue-minimisations  :  3040
 total energy-change (2. order) :-0.1075382E-03  (-0.4480113E-04)
 number of electron      39.9999992 magnetization 
 augmentation part       -7.3491342 magnetization 

 Broyden mixing:
  rms(total) = 0.23991E-02    rms(broyden)= 0.23991E-02
  rms(prec ) = 0.29059E-02
  weight for this iteration     100.00

 eigenvalues of (default mixing * dielectric matrix)
  average eigenvalue GAMMA=   1.7381
  2.7475  2.5655  1.1675  1.1675  1.0425

 Free energy of the ion-electron system (eV)
  ---------------------------------------------------
  alpha Z        PSCENC =        81.32311116
  Ewald energy   TEWEN  =     -1382.47385844
  -Hartree energ DENC   =      -148.42721306
  -exchange      EXHF   =         0.00000000
  -V(xc)+E(xc)   XCENC  =       -33.16524533
  PAW double counting   =      1838.30132406    -1725.76235541
  entropy T*S    EENTRO =        -0.00000000
  eigenvalues    EBANDS =      -111.84284441
  atomic energy  EATOM  =      1448.48460880
  Solvation  Ediel_sol  =         0.00000000
  ---------------------------------------------------
  free energy    TOTEN  =       -33.56247263 eV

  energy without entropy =      -33.56247263  energy(sigma->0) =      -33.56247263


--------------------------------------------------------------------------------------------------------




--------------------------------------- Iteration      1(  11)  ---------------------------------------


    POTLOK:  cpu time      0.0036: real time      0.0037
    SETDIJ:  cpu time      0.1364: real time      0.1367
     EDDAV:  cpu time      0.1819: real time      0.1827
       DOS:  cpu time      0.0003: real time      0.0003
    CHARGE:  cpu time      0.0035: real time      0.0035
    MIXING:  cpu time      0.0003: real time      0.0003
    --------------------------------------------
      LOOP:  cpu time      0.3260: real time      0.3273

 eigenvalue-minimisations  :  2832
 total energy-change (2. order) :-0.1970175E-04  (-0.3867464E-05)
 number of electron      39.9999992 magnetization 
 augmentation part       -7.3494177 magnetization 

 Broyden mixing:
  rms(total) = 0.13241E-02    rms(broyden)= 0.13241E-02
  rms(prec ) = 0.15178E-02
  weight for this iteration     100.00

 eigenvalues of (default mixing * dielectric matrix)
  average eigenvalue GAMMA=   1.7604
  2.7335  2.7335  1.8010  1.1119  1.1119  1.0708

 Free energy of the ion-electron system (eV)
  ---------------------------------------------------
  alpha Z        PSCENC =        81.32311116
  Ewald energy   TEWEN  =     -1382.47385844
  -Hartree energ DENC   =      -148.44614018
  -exchange      EXHF   =         0.00000000
  -V(xc)+E(xc)   XCENC  =       -33.16059031
  PAW double counting   =      1839.42615988    -1726.88725380
  entropy T*S    EENTRO =        -0.00000000
  eigenvalues    EBANDS =      -111.82852945
  atomic energy  EATOM  =      1448.48460880
  Solvation  Ediel_sol  =         0.00000000
  ---------------------------------------------------
  free energy    TOTEN  =       -33.56249233 eV

  energy without entropy =      -33.56249233  energy(sigma->0) =      -33.56249233


--------------------------------------------------------------------------------------------------------




--------------------------------------- Iteration      1(  12)  ---------------------------------------


    POTLOK:  cpu time      0.0036: real time      0.0037
    SETDIJ:  cpu time      0.1169: real time      0.1173
     EDDAV:  cpu time      0.1904: real time      0.1913
       DOS:  cpu time      0.0003: real time      0.0003
    --------------------------------------------
      LOOP:  cpu time      0.3111: real time      0.3127

 eigenvalue-minimisations  :  3120
 total energy-change (2. order) : 0.2972077E-06  (-0.7887366E-06)
 number of electron      39.9999992 magnetization 
 augmentation part       -7.3494177 magnetization 

 Free energy of the ion-electron system (eV)
  ---------------------------------------------------
  alpha Z        PSCENC =        81.32311116
  Ewald energy   TEWEN  =     -1382.47385844
  -Hartree energ DENC   =      -148.45804178
  -exchange      EXHF   =         0.00000000
  -V(xc)+E(xc)   XCENC  =       -33.15942756
  PAW double counting   =      1838.52238095    -1725.98302222
  entropy T*S    EENTRO =        -0.00000000
  eigenvalues    EBANDS =      -111.81824294
  atomic energy  EATOM  =      1448.48460880
  Solvation  Ediel_sol  =         0.00000000
  ---------------------------------------------------
  free energy    TOTEN  =       -33.56249203 eV

  energy without entropy =      -33.56249203  energy(sigma->0) =      -33.56249203


--------------------------------------------------------------------------------------------------------




 average (electrostatic) potential at core
  the test charge radii are     1.1631  1.0808
  (the norm of the test charge is              1.0000)
       1 -34.1675       2 -34.1675       3 -34.1675       4 -34.1675       5 -55.4636
       6 -55.4636       7 -55.4636       8 -55.4636
 
 
 
 E-fermi :   2.6155     XC(G=0):  -8.9853     alpha+bet : -8.1016

 Fermi energy:         2.6154819773

 k-point     1 :       0.0000    0.0000    0.0000
  band No.  band energies     occupation 
      1     -11.1657      2.00000
      2     -10.8881      2.00000
      3      -9.9309      2.00000
      4      -9.5433      2.00000
      5      -5.2301      2.00000
      6      -4.7263      2.00000
      7      -3.1515      2.00000
      8      -3.1491      2.00000
      9      -2.0639      2.00000
     10      -0.9672      2.00000
     11      -0.5876      2.00000
     12      -0.2961      2.00000
     13      -0.2637      2.00000
     14      -0.1495      2.00000
     15       0.3643      2.00000
     16       0.9652      2.00000
     17       1.4990      2.00000
     18       1.9093      2.00000
     19       2.1036      2.00000
     20       2.1156      2.00000
     21       3.8108      0.00000
     22       4.7498      0.00000
     23       4.7863      0.00000
     24       5.1045      0.00000
     25       5.2831      0.00000
     26       5.8582      0.00000
     27       6.2696      0.00000
     28       6.3859      0.00000
     29       7.2867      0.00000
     30       7.3851      0.00000
     31       8.1397      0.00000
     32       8.1524      0.00000

 k-point     2 :       0.1667    0.0000    0.0000
  band No.  band energies     occupation 
      1     -11.0212      2.00000
      2     -10.7587      2.00000
      3      -9.8804      2.00000
      4      -9.5549      2.00000
      5      -5.4527      2.00000
      6      -4.9947      2.00000
      7      -3.7660      2.00000
      8      -3.5449      2.00000
      9      -1.8916      2.00000
     10      -0.8485      2.00000
     11      -0.5353      2.00000
     12      -0.1337      2.00000
     13      -0.1008      2.00000
     14       0.0231      2.00000
     15       0.7278      2.00000
     16       0.9140      2.00000
     17       1.5740      2.00000
     18       1.9267      2.00000
     19       2.0499      2.00000
     20       2.0643      2.00000
     21       3.9602      0.00000
     22       4.8380      0.00000
     23       5.0247      0.00000
     24       5.2233      0.00000
     25       5.2471      0.00000
     26       5.5461      0.00000
     27       5.7083      0.00000
     28       6.1857      0.00000
     29       6.7415      0.00000
     30       7.0559      0.00000
     31       7.4775      0.00000
     32       7.9383      0.00000

 k-point     3 :       0.3333    0.0000    0.0000
  band No.  band energies     occupation 
      1     -10.6238      2.00000
      2     -10.4165      2.00000
      3      -9.8371      2.00000
      4      -9.6972      2.00000
      5      -5.7916      2.00000
      6      -5.3297      2.00000
      7      -4.8559      2.00000
      8      -4.3972      2.00000
      9      -1.4034      2.00000
     10      -0.5531      2.00000
     11      -0.2150      2.00000
     12       0.1820      2.00000
     13       0.2634      2.00000
     14       0.4180      2.00000
     15       0.8863      2.00000
     16       1.1216      2.00000
     17       1.5389      2.00000
     18       1.6181      2.00000
     19       1.8459      2.00000
     20       2.0903      2.00000
     21       3.8368      0.00000
     22       4.1837      0.00000
     23       4.5748      0.00000
     24       4.8049      0.00000
     25       5.0960      0.00000
     26       5.1546      0.00000
     27       5.3244      0.00000
     28       5.9509      0.00000
     29       6.4445      0.00000
     30       6.6289      0.00000
     31       6.8686      0.00000
     32       7.8230      0.00000

 k-point     4 :       0.5000    0.0000    0.0000
  band No.  band energies     occupation 
      1     -10.1027      2.00000
      2     -10.1027      2.00000
      3     -10.0253      2.00000
      4     -10.0253      2.00000
      5      -5.6465      2.00000
      6      -5.6465      2.00000
      7      -5.1292      2.00000
      8      -5.1292      2.00000
      9      -0.7542      2.00000
     10      -0.7542      2.00000
     11       0.2419      2.00000
     12       0.2419      2.00000
     13       0.5536      2.00000
     14       0.5536      2.00000
     15       1.0343      2.00000
     16       1.0343      2.00000
     17       1.5639      2.00000
     18       1.5639      2.00000
     19       1.6484      2.00000
     20       1.6484      2.00000
     21       3.9788      0.00000
     22       3.9788      0.00000
     23       4.3836      0.00000
     24       4.3836      0.00000
     25       4.8723      0.00000
     26       4.8723      0.00000
     27       5.2901      0.00000
     28       5.2901      0.00000
     29       6.0832      0.00000
     30       6.0832      0.00000
     31       7.4041      0.00000
     32       7.4041      0.00000

 k-point     5 :       0.0000    0.1667    0.0000
  band No.  band energies     occupation 
      1     -11.0517      2.00000
      2     -10.7817      2.00000
      3      -9.9447      2.00000
      4      -9.5935      2.00000
      5      -5.4120      2.00000
      6      -4.7682      2.00000
      7      -3.7128      2.00000
      8      -3.3965      2.00000
      9      -1.8628      2.00000
     10      -0.8119      2.00000
     11      -0.4440      2.00000
     12      -0.2376      2.00000
     13       0.0925      2.00000
     14       0.1266      2.00000
     15       0.4205      2.00000
     16       0.9589      2.00000
     17       1.5752      2.00000
     18       1.7927      2.00000
     19       2.0502      2.00000
     20       2.1252      2.00000
     21       3.8988      0.00000
     22       4.2283      0.00000
     23       4.7263      0.00000
     24       4.7708      0.00000
     25       5.2876      0.00000
     26       5.3149      0.00000
     27       5.9312      0.00000
     28       6.5824      0.00000
     29       6.6371      0.00000
     30       7.3281      0.00000
     31       7.4965      0.00000
     32       7.8468      0.00000

 k-point     6 :       0.1667    0.1667    0.0000
  band No.  band energies     occupation 
      1     -10.9131      2.00000
      2     -10.6588      2.00000
      3      -9.8935      2.00000
      4      -9.5962      2.00000
      5      -5.5286      2.00000
      6      -4.9505      2.00000
      7      -3.9743      2.00000
      8      -3.7965      2.00000
      9      -1.7223      2.00000
     10      -1.2549      2.00000
     11      -0.9676      2.00000
     12      -0.1435      2.00000
     13       0.3551      2.00000
     14       0.4994      2.00000
     15       0.6246      2.00000
     16       0.8274      2.00000
     17       1.7310      2.00000
     18       1.8356      2.00000
     19       1.9316      2.00000
     20       2.0903      2.00000
     21       4.0070      0.00000
     22       4.2612      0.00000
     23       4.6136      0.00000
     24       4.6359      0.00000
     25       5.3509      0.00000
     26       5.5618      0.00000
     27       6.1486      0.00000
     28       6.3625      0.00000
     29       6.8247      0.00000
     30       7.0698      0.00000
     31       7.1525      0.00000
     32       7.9058      0.00000

 k-point     7 :       0.1667   -0.1667    0.0000
  band No.  band energies     occupation 
      1     -10.9131      2.00000
      2     -10.6588      2.00000
      3      -9.8935      2.00000
      4      -9.5962      2.00000
      5      -5.5286      2.00000
      6      -4.9505      2.00000
      7      -3.9743      2.00000
      8      -3.7965      2.00000
      9      -1.7223      2.00000
     10      -1.2549      2.00000
     11      -0.9676      2.00000
     12      -0.1435      2.00000
     13       0.3551      2.00000
     14       0.4994      2.00000
     15       0.6246      2.00000
     16       0.8274      2.00000
     17       1.7310      2.00000
     18       1.8356      2.00000
     19       1.9316      2.00000
     20       2.0903      2.00000
     21       4.0070      0.00000
     22       4.2612      0.00000
     23       4.6136      0.00000
     24       4.6359      0.00000
     25       5.3509      0.00000
     26       5.5618      0.00000
     27       6.1486      0.00000
     28       6.3625      0.00000
     29       6.8247      0.00000
     30       7.0698      0.00000
     31       7.1525      0.00000
     32       7.9058      0.00000

 k-point     8 :       0.3333    0.1667    0.0000
  band No.  band energies     occupation 
      1     -10.5361      2.00000
      2     -10.3390      2.00000
      3      -9.8385      2.00000
      4      -9.7039      2.00000
      5      -5.7158      2.00000
      6      -5.2298      2.00000
      7      -4.8213      2.00000
      8      -4.4754      2.00000
      9      -1.3022      2.00000
     10      -1.2715      2.00000
     11      -0.9895      2.00000
     12      -0.2160      2.00000
     13       0.3695      2.00000
     14       0.5051      2.00000
     15       0.5891      2.00000
     16       0.9415      2.00000
     17       1.1699      2.00000
     18       1.7073      2.00000
     19       1.7855      2.00000
     20       1.9719      2.00000
     21       3.8163      0.00000
     22       4.4056      0.00000
     23       4.7022      0.00000
     24       4.9882      0.00000
     25       5.4523      0.00000
     26       5.6864      0.00000
     27       5.9493      0.00000
     28       6.7196      0.00000
     29       6.7432      0.00000
     30       6.8625      0.00000
     31       7.4545      0.00000
     32       7.5366      0.00000

 k-point     9 :       0.3333   -0.1667    0.0000
  band No.  band energies     occupation 
      1     -10.5361      2.00000
      2     -10.3390      2.00000
      3      -9.8385      2.00000
      4      -9.7039      2.00000
      5      -5.7158      2.00000
      6      -5.2298      2.00000
      7      -4.8213      2.00000
      8      -4.4754      2.00000
      9      -1.3022      2.00000
     10      -1.2715      2.00000
     11      -0.9895      2.00000
     12      -0.2160      2.00000
     13       0.3695      2.00000
     14       0.5051      2.00000
     15       0.5891      2.00000
     16       0.9415      2.00000
     17       1.1699      2.00000
     18       1.7073      2.00000
     19       1.7855      2.00000
     20       1.9719      2.00000
     21       3.8163      0.00000
     22       4.4056      0.00000
     23       4.7022      0.00000
     24       4.9882      0.00000
     25       5.4523      0.00000
     26       5.6864      0.00000
     27       5.9493      0.00000
     28       6.7196      0.00000
     29       6.7432      0.00000
     30       6.8625      0.00000
     31       7.4545      0.00000
     32       7.5366      0.00000

 k-point    10 :       0.5000    0.1667    0.0000
  band No.  band energies     occupation 
      1     -10.0562      2.00000
      2     -10.0562      2.00000
      3      -9.9881      2.00000
      4      -9.9881      2.00000
      5      -5.5382      2.00000
      6      -5.5382      2.00000
      7      -5.0827      2.00000
      8      -5.0827      2.00000
      9      -0.9383      2.00000
     10      -0.9383      2.00000
     11      -0.4709      2.00000
     12      -0.4709      2.00000
     13       0.0388      2.00000
     14       0.0388      2.00000
     15       0.5632      2.00000
     16       0.5632      2.00000
     17       1.3479      2.00000
     18       1.3479      2.00000
     19       1.9274      2.00000
     20       1.9274      2.00000
     21       3.9831      0.00000
     22       3.9831      0.00000
     23       4.9647      0.00000
     24       4.9647      0.00000
     25       5.9457      0.00000
     26       5.9457      0.00000
     27       6.0548      0.00000
     28       6.0548      0.00000
     29       6.7348      0.00000
     30       6.7348      0.00000
     31       7.0984      0.00000
     32       7.0984      0.00000

 k-point    11 :       0.0000    0.3333    0.0000
  band No.  band energies     occupation 
      1     -10.7429      2.00000
      2     -10.4924      2.00000
      3     -10.0547      2.00000
      4      -9.7795      2.00000
      5      -5.5973      2.00000
      6      -4.7935      2.00000
      7      -4.6415      2.00000
      8      -4.0009      2.00000
      9      -1.3447      2.00000
     10      -0.3835      2.00000
     11      -0.0945      2.00000
     12      -0.0553      2.00000
     13       0.4564      2.00000
     14       0.5763      2.00000
     15       0.7446      2.00000
     16       0.8195      2.00000
     17       1.3160      2.00000
     18       1.7615      2.00000
     19       1.7914      2.00000
     20       2.3755      2.00000
     21       3.3644      0.00000
     22       3.8771      0.00000
     23       4.2609      0.00000
     24       4.4275      0.00000
     25       4.5642      0.00000
     26       5.1128      0.00000
     27       5.3445      0.00000
     28       5.4102      0.00000
     29       6.3410      0.00000
     30       6.4269      0.00000
     31       7.3937      0.00000
     32       8.1371      0.00000

 k-point    12 :       0.1667    0.3333    0.0000
  band No.  band energies     occupation 
      1     -10.6229      2.00000
      2     -10.3902      2.00000
      3      -9.9932      2.00000
      4      -9.7533      2.00000
      5      -5.5733      2.00000
      6      -4.8363      2.00000
      7      -4.6643      2.00000
      8      -4.1735      2.00000
      9      -1.3794      2.00000
     10      -1.2545      2.00000
     11      -1.0637      2.00000
     12      -0.3140      2.00000
     13      -0.1055      2.00000
     14       0.4459      2.00000
     15       0.7652      2.00000
     16       1.1573      2.00000
     17       1.5344      2.00000
     18       1.8589      2.00000
     19       1.8855      2.00000
     20       1.9875      2.00000
     21       3.7529      0.00000
     22       4.1263      0.00000
     23       4.2955      0.00000
     24       4.4489      0.00000
     25       4.9796      0.00000
     26       5.7481      0.00000
     27       5.7980      0.00000
     28       6.5539      0.00000
     29       6.6216      0.00000
     30       7.1130      0.00000
     31       7.2779      0.00000
     32       7.8389      0.00000

 k-point    13 :       0.1667   -0.3333    0.0000
  band No.  band energies     occupation 
      1     -10.6229      2.00000
      2     -10.3902      2.00000
      3      -9.9932      2.00000
      4      -9.7533      2.00000
      5      -5.5733      2.00000
      6      -4.8363      2.00000
      7      -4.6643      2.00000
      8      -4.1735      2.00000
      9      -1.3794      2.00000
     10      -1.2545      2.00000
     11      -1.0637      2.00000
     12      -0.3140      2.00000
     13      -0.1055      2.00000
     14       0.4459      2.00000
     15       0.7652      2.00000
     16       1.1573      2.00000
     17       1.5344      2.00000
     18       1.8589      2.00000
     19       1.8855      2.00000
     20       1.9875      2.00000
     21       3.7529      0.00000
     22       4.1263      0.00000
     23       4.2955      0.00000
     24       4.4489      0.00000
     25       4.9796      0.00000
     26       5.7481      0.00000
     27       5.7980      0.00000
     28       6.5539      0.00000
     29       6.6216      0.00000
     30       7.1130      0.00000
     31       7.2779      0.00000
     32       7.8389      0.00000

 k-point    14 :       0.3333    0.3333    0.0000
  band No.  band energies     occupation 
      1     -10.3098      2.00000
      2     -10.1407      2.00000
      3      -9.8861      2.00000
      4      -9.7590      2.00000
      5      -5.5097      2.00000
      6      -4.9883      2.00000
      7      -4.8635      2.00000
      8      -4.6518      2.00000
      9      -1.8900      2.00000
     10      -1.5239      2.00000
     11      -1.2222      2.00000
     12      -0.9373      2.00000
     13      -0.4314      2.00000
     14      -0.0034      2.00000
     15       0.1218      2.00000
     16       0.6694      2.00000
     17       0.7847      2.00000
     18       1.4392      2.00000
     19       1.6335      2.00000
     20       1.8435      2.00000
     21       4.0129      0.00000
     22       5.0627      0.00000
     23       5.8798      0.00000
     24       5.8975      0.00000
     25       5.9884      0.00000
     26       6.3207      0.00000
     27       6.5347      0.00000
     28       6.8875      0.00000
     29       7.1556      0.00000
     30       7.5043      0.00000
     31       7.7483      0.00000
     32       8.1731      0.00000

 k-point    15 :       0.3333   -0.3333    0.0000
  band No.  band energies     occupation 
      1     -10.3098      2.00000
      2     -10.1407      2.00000
      3      -9.8861      2.00000
      4      -9.7590      2.00000
      5      -5.5097      2.00000
      6      -4.9883      2.00000
      7      -4.8635      2.00000
      8      -4.6518      2.00000
      9      -1.8900      2.00000
     10      -1.5239      2.00000
     11      -1.2222      2.00000
     12      -0.9373      2.00000
     13      -0.4314      2.00000
     14      -0.0034      2.00000
     15       0.1218      2.00000
     16       0.6694      2.00000
     17       0.7847      2.00000
     18       1.4392      2.00000
     19       1.6335      2.00000
     20       1.8435      2.00000
     21       4.0129      0.00000
     22       5.0627      0.00000
     23       5.8798      0.00000
     24       5.8975      0.00000
     25       5.9884      0.00000
     26       6.3207      0.00000
     27       6.5347      0.00000
     28       6.8875      0.00000
     29       7.1556      0.00000
     30       7.5043      0.00000
     31       7.7483      0.00000
     32       8.1731      0.00000

 k-point    16 :       0.5000    0.3333    0.0000
  band No.  band energies     occupation 
      1      -9.9558      2.00000
      2      -9.9558      2.00000
      3      -9.9140      2.00000
      4      -9.9140      2.00000
      5      -5.2801      2.00000
      6      -5.2801      2.00000
      7      -5.0041      2.00000
      8      -5.0041      2.00000
      9      -1.5499      2.00000
     10      -1.5499      2.00000
     11      -1.2905      2.00000
     12      -1.2905      2.00000
     13      -0.4720      2.00000
     14      -0.4720      2.00000
     15       0.0273      2.00000
     16       0.0273      2.00000
     17       0.8601      2.00000
     18       0.8601      2.00000
     19       1.5812      2.00000
     20       1.5812      2.00000
     21       4.9897      0.00000
     22       4.9897      0.00000
     23       6.1990      0.00000
     24       6.1990      0.00000
     25       6.6724      0.00000
     26       6.6724      0.00000
     27       6.9262      0.00000
     28       6.9262      0.00000
     29       7.5657      0.00000
     30       7.5657      0.00000
     31       8.1378      0.00000
     32       8.1378      0.00000

 k-point    17 :       0.0000    0.5000    0.0000
  band No.  band energies     occupation 
      1     -10.3506      2.00000
      2     -10.3506      2.00000
      3     -10.1129      2.00000
      4     -10.1129      2.00000
      5      -5.3557      2.00000
      6      -5.3557      2.00000
      7      -4.5471      2.00000
      8      -4.5471      2.00000
      9      -0.6207      2.00000
     10      -0.6207      2.00000
     11       0.1603      2.00000
     12       0.1603      2.00000
     13       0.4333      2.00000
     14       0.4333      2.00000
     15       1.2604      2.00000
     16       1.2604      2.00000
     17       1.2796      2.00000
     18       1.2796      2.00000
     19       1.8291      2.00000
     20       1.8291      2.00000
     21       3.5305      0.00000
     22       3.5305      0.00000
     23       4.2310      0.00000
     24       4.2310      0.00000
     25       4.5827      0.00000
     26       4.5827      0.00000
     27       5.3211      0.00000
     28       5.3211      0.00000
     29       5.4829      0.00000
     30       5.4829      0.00000
     31       8.0820      0.00000
     32       8.0820      0.00000

 k-point    18 :       0.1667    0.5000    0.0000
  band No.  band energies     occupation 
      1     -10.2610      2.00000
      2     -10.2610      2.00000
      3     -10.0457      2.00000
      4     -10.0457      2.00000
      5      -5.2977      2.00000
      6      -5.2977      2.00000
      7      -4.5774      2.00000
      8      -4.5774      2.00000
      9      -1.0300      2.00000
     10      -1.0300      2.00000
     11      -0.7065      2.00000
     12      -0.7065      2.00000
     13      -0.2752      2.00000
     14      -0.2752      2.00000
     15       0.9865      2.00000
     16       0.9865      2.00000
     17       1.6268      2.00000
     18       1.6268      2.00000
     19       2.0708      2.00000
     20       2.0708      2.00000
     21       3.8432      0.00000
     22       3.8432      0.00000
     23       4.2021      0.00000
     24       4.2021      0.00000
     25       5.5069      0.00000
     26       5.5069      0.00000
     27       6.0560      0.00000
     28       6.0560      0.00000
     29       6.5300      0.00000
     30       6.5300      0.00000
     31       7.7669      0.00000
     32       7.7669      0.00000

 k-point    19 :       0.3333    0.5000    0.0000
  band No.  band energies     occupation 
      1     -10.0517      2.00000
      2     -10.0517      2.00000
      3      -9.9138      2.00000
      4      -9.9138      2.00000
      5      -5.1962      2.00000
      6      -5.1962      2.00000
      7      -4.7638      2.00000
      8      -4.7638      2.00000
      9      -1.8266      2.00000
     10      -1.8266      2.00000
     11      -1.3422      2.00000
     12      -1.3422      2.00000
     13      -0.5127      2.00000
     14      -0.5127      2.00000
     15       0.2753      2.00000
     16       0.2753      2.00000
     17       0.8764      2.00000
     18       0.8764      2.00000
     19       1.6339      2.00000
     20       1.6339      2.00000
     21       4.9682      0.00000
     22       4.9682      0.00000
     23       5.9921      0.00000
     24       5.9921      0.00000
     25       6.5391      0.00000
     26       6.5391      0.00000
     27       7.0472      0.00000
     28       7.0472      0.00000
     29       7.6085      0.00000
     30       7.6085      0.00000
     31       7.9217      0.00000
     32       7.9217      0.00000

 k-point    20 :       0.5000    0.5000    0.0000
  band No.  band energies     occupation 
      1      -9.8964      2.00000
      2      -9.8964      2.00000
      3      -9.8821      2.00000
      4      -9.8821      2.00000
      5      -5.1014      2.00000
      6      -5.1014      2.00000
      7      -4.9970      2.00000
      8      -4.9970      2.00000
      9      -1.8119      2.00000
     10      -1.8119      2.00000
     11      -1.6663      2.00000
     12      -1.6663      2.00000
     13      -0.6188      2.00000
     14      -0.6188      2.00000
     15      -0.3613      2.00000
     16      -0.3613      2.00000
     17       0.9566      2.00000
     18       0.9566      2.00000
[...]
     32       7.2817      0.00000

 k-point    32 :       0.1667    0.3333    0.5000
  band No.  band energies     occupation 
      1     -10.5280      2.00000
      2     -10.5280      2.00000
      3      -9.8521      2.00000
      4      -9.8521      2.00000
      5      -5.2894      2.00000
      6      -5.2894      2.00000
      7      -4.3695      2.00000
      8      -4.3695      2.00000
      9      -1.2538      2.00000
     10      -1.2538      2.00000
     11      -0.5223      2.00000
     12      -0.5223      2.00000
     13      -0.0300      2.00000
     14      -0.0300      2.00000
     15       0.8909      2.00000
     16       0.8909      2.00000
     17       1.5459      2.00000
     18       1.5459      2.00000
     19       1.9816      2.00000
     20       1.9816      2.00000
     21       4.1445      0.00000
     22       4.1445      0.00000
     23       4.4776      0.00000
     24       4.4776      0.00000
     25       5.6292      0.00000
     26       5.6292      0.00000
     27       5.9201      0.00000
     28       5.9201      0.00000
     29       6.7911      0.00000
     30       6.7911      0.00000
     31       7.1408      0.00000
     32       7.1408      0.00000

 k-point    33 :       0.1667   -0.3333    0.5000
  band No.  band energies     occupation 
      1     -10.5280      2.00000
      2     -10.5280      2.00000
      3      -9.8521      2.00000
      4      -9.8521      2.00000
      5      -5.2894      2.00000
      6      -5.2894      2.00000
      7      -4.3695      2.00000
      8      -4.3695      2.00000
      9      -1.2538      2.00000
     10      -1.2538      2.00000
     11      -0.5223      2.00000
     12      -0.5223      2.00000
     13      -0.0300      2.00000
     14      -0.0300      2.00000
     15       0.8909      2.00000
     16       0.8909      2.00000
     17       1.5459      2.00000
     18       1.5459      2.00000
     19       1.9816      2.00000
     20       1.9816      2.00000
     21       4.1445      0.00000
     22       4.1445      0.00000
     23       4.4776      0.00000
     24       4.4776      0.00000
     25       5.6292      0.00000
     26       5.6292      0.00000
     27       5.9201      0.00000
     28       5.9201      0.00000
     29       6.7911      0.00000
     30       6.7911      0.00000
     31       7.1408      0.00000
     32       7.1408      0.00000

 k-point    34 :       0.3333    0.3333    0.5000
  band No.  band energies     occupation 
      1     -10.2392      2.00000
      2     -10.2392      2.00000
      3      -9.8088      2.00000
      4      -9.8088      2.00000
      5      -5.2931      2.00000
      6      -5.2931      2.00000
      7      -4.7307      2.00000
      8      -4.7307      2.00000
      9      -1.7115      2.00000
     10      -1.7115      2.00000
     11      -0.8898      2.00000
     12      -0.8898      2.00000
     13      -0.4218      2.00000
     14      -0.4218      2.00000
     15       0.2520      2.00000
     16       0.2520      2.00000
     17       1.1533      2.00000
     18       1.1533      2.00000
     19       1.8479      2.00000
     20       1.8479      2.00000
     21       4.9647      0.00000
     22       4.9647      0.00000
     23       5.5669      0.00000
     24       5.5669      0.00000
     25       6.0014      0.00000
     26       6.0014      0.00000
     27       6.5023      0.00000
     28       6.5023      0.00000
     29       7.0356      0.00000
     30       7.0356      0.00000
     31       8.0569      0.00000
     32       8.0569      0.00000

 k-point    35 :       0.3333   -0.3333    0.5000
  band No.  band energies     occupation 
      1     -10.2392      2.00000
      2     -10.2392      2.00000
      3      -9.8088      2.00000
      4      -9.8088      2.00000
      5      -5.2931      2.00000
      6      -5.2931      2.00000
      7      -4.7307      2.00000
      8      -4.7307      2.00000
      9      -1.7115      2.00000
     10      -1.7115      2.00000
     11      -0.8898      2.00000
     12      -0.8898      2.00000
     13      -0.4218      2.00000
     14      -0.4218      2.00000
     15       0.2520      2.00000
     16       0.2520      2.00000
     17       1.1533      2.00000
     18       1.1533      2.00000
     19       1.8479      2.00000
     20       1.8479      2.00000
     21       4.9647      0.00000
     22       4.9647      0.00000
     23       5.5669      0.00000
     24       5.5669      0.00000
     25       6.0014      0.00000
     26       6.0014      0.00000
     27       6.5023      0.00000
     28       6.5023      0.00000
     29       7.0356      0.00000
     30       7.0356      0.00000
     31       8.0569      0.00000
     32       8.0569      0.00000

 k-point    36 :       0.5000    0.3333    0.5000
  band No.  band energies     occupation 
      1      -9.9351      2.00000
      2      -9.9351      2.00000
      3      -9.9351      2.00000
      4      -9.9351      2.00000
      5      -5.1485      2.00000
      6      -5.1485      2.00000
      7      -5.1485      2.00000
      8      -5.1485      2.00000
      9      -1.3338      2.00000
     10      -1.3338      2.00000
     11      -1.3338      2.00000
     12      -1.3338      2.00000
     13      -0.4502      2.00000
     14      -0.4502      2.00000
     15      -0.4502      2.00000
     16      -0.4502      2.00000
     17       1.4043      2.00000
     18       1.4043      2.00000
     19       1.4043      2.00000
     20       1.4043      2.00000
     21       5.5620      0.00000
     22       5.5620      0.00000
     23       5.5620      0.00000
     24       5.5620      0.00000
     25       6.4357      0.00000
     26       6.4357      0.00000
     27       6.4357      0.00000
     28       6.4357      0.00000
     29       7.9292      0.00000
     30       7.9292      0.00000
     31       7.9292      0.00000
     32       7.9292      0.00000

 k-point    37 :       0.0000    0.5000    0.5000
  band No.  band energies     occupation 
      1     -10.3462      2.00000
      2     -10.3462      2.00000
      3     -10.1186      2.00000
      4     -10.1186      2.00000
      5      -5.2554      2.00000
      6      -5.2554      2.00000
      7      -4.6984      2.00000
      8      -4.6984      2.00000
      9       0.0121      2.00000
     10       0.0121      2.00000
     11       0.1689      2.00000
     12       0.1689      2.00000
     13       0.3065      2.00000
     14       0.3066      2.00000
     15       0.4219      2.00000
     16       0.4219      2.00000
     17       1.5861      2.00000
     18       1.5861      2.00000
     19       1.6791      2.00000
     20       1.6791      2.00000
     21       3.7036      0.00000
     22       3.7036      0.00000
     23       4.0998      0.00000
     24       4.0998      0.00000
     25       4.6656      0.00000
     26       4.6656      0.00000
     27       5.3681      0.00000
     28       5.3681      0.00000
     29       6.1136      0.00000
     30       6.1136      0.00000
     31       7.1505      0.00000
     32       7.1505      0.00000

 k-point    38 :       0.1667    0.5000    0.5000
  band No.  band energies     occupation 
      1     -10.2569      2.00000
      2     -10.2569      2.00000
      3     -10.0508      2.00000
      4     -10.0508      2.00000
      5      -5.2148      2.00000
      6      -5.2148      2.00000
      7      -4.6966      2.00000
      8      -4.6966      2.00000
      9      -0.8994      2.00000
     10      -0.8994      2.00000
     11      -0.8252      2.00000
     12      -0.8252      2.00000
     13       0.2724      2.00000
     14       0.2724      2.00000
     15       0.3977      2.00000
     16       0.3977      2.00000
     17       1.5898      2.00000
     18       1.5898      2.00000
     19       1.9293      2.00000
     20       1.9293      2.00000
     21       4.1843      0.00000
     22       4.1843      0.00000
     23       4.2549      0.00000
     24       4.2549      0.00000
     25       5.6707      0.00000
     26       5.6707      0.00000
     27       6.0745      0.00000
     28       6.0745      0.00000
     29       6.5794      0.00000
     30       6.5794      0.00000
     31       6.9200      0.00000
     32       6.9200      0.00000

 k-point    39 :       0.3333    0.5000    0.5000
  band No.  band energies     occupation 
      1     -10.0489      2.00000
      2     -10.0489      2.00000
      3      -9.9171      2.00000
      4      -9.9171      2.00000
      5      -5.1551      2.00000
      6      -5.1551      2.00000
      7      -4.8170      2.00000
      8      -4.8170      2.00000
      9      -1.5979      2.00000
     10      -1.5979      2.00000
     11      -1.5656      2.00000
     12      -1.5656      2.00000
     13      -0.2797      2.00000
     14      -0.2797      2.00000
     15      -0.2177      2.00000
     16      -0.2177      2.00000
     17       1.2623      2.00000
     18       1.2623      2.00000
     19       1.5691      2.00000
     20       1.5691      2.00000
     21       5.3987      0.00000
     22       5.3987      0.00000
     23       5.8149      0.00000
     24       5.8149      0.00000
     25       6.1908      0.00000
     26       6.1908      0.00000
     27       6.3021      0.00000
     28       6.3021      0.00000
     29       7.7586      0.00000
     30       7.7586      0.00000
     31       7.9153      0.00000
     32       7.9153      0.00000

 k-point    40 :       0.5000    0.5000    0.5000
  band No.  band energies     occupation 
      1      -9.8892      2.00000
      2      -9.8892      2.00000
      3      -9.8892      2.00000
      4      -9.8892      2.00000
      5      -5.0533      2.00000
      6      -5.0533      2.00000
      7      -5.0533      2.00000
      8      -5.0533      2.00000
      9      -1.5792      2.00000
     10      -1.5792      2.00000
     11      -1.5792      2.00000
     12      -1.5792      2.00000
     13      -0.8409      2.00000
     14      -0.8409      2.00000
     15      -0.8409      2.00000
     16      -0.8409      2.00000
     17       1.4259      2.00000
     18       1.4259      2.00000
     19       1.4259      2.00000
     20       1.4259      2.00000
     21       5.4554      0.00000
     22       5.4554      0.00000
     23       5.4554      0.00000
     24       5.4554      0.00000
     25       7.1321      0.00000
     26       7.1321      0.00000
     27       7.1321      0.00000
     28       7.1321      0.00000
     29       8.6646      0.00000
     30       8.6646      0.00000
     31       8.6646      0.00000
     32       8.6646      0.00000


--------------------------------------------------------------------------------------------------------


 soft charge-density along one line, spin component            1
         0         1         2         3         4         5         6         7         8         9
 total charge-density along one line
 
 pseudopotential strength for first ion, spin component:            1
 14.709  18.357   0.034   0.048  -0.000   0.062   0.087  -0.000
 18.357  22.925   0.043   0.061  -0.000   0.078   0.110  -0.000
  0.034   0.043   3.257  -0.002  -0.000   5.546  -0.003  -0.000
  0.048   0.061  -0.002   3.251   0.000  -0.003   5.536   0.000
 -0.000  -0.000  -0.000   0.000   3.256  -0.000   0.000   5.545
  0.062   0.078   5.546  -0.003  -0.000   9.503  -0.005  -0.000
  0.087   0.110  -0.003   5.536   0.000  -0.005   9.486   0.000
 -0.000  -0.000  -0.000   0.000   5.545  -0.000   0.000   9.501
 -0.000  -0.000  -0.000  -0.000   0.005  -0.000  -0.000   0.009
 -0.003  -0.004   0.013   0.011  -0.000   0.023   0.019  -0.000
 -0.007  -0.008  -0.003   0.012   0.000  -0.005   0.023   0.000
  0.000   0.000  -0.000  -0.000   0.013  -0.000  -0.000   0.023
 -0.001  -0.001  -0.010  -0.000  -0.000  -0.019  -0.000  -0.000
 total augmentation occupancy for first ion, spin component:            1
  2.557  -0.588   0.225   0.403  -0.000  -0.032  -0.072   0.000  -0.000  -0.019   0.011   0.000   0.015
 -0.588   0.606  -0.325  -0.515  -0.000   0.046   0.079   0.000   0.000   0.016  -0.008  -0.000  -0.016
  0.225  -0.325   1.024  -0.006   0.000  -0.156   0.014   0.000   0.000   0.038  -0.080   0.000   0.018
  0.403  -0.515  -0.006   1.344  -0.000   0.014  -0.211   0.000  -0.000  -0.033   0.123   0.000  -0.001
 -0.000  -0.000   0.000  -0.000   1.112  -0.000  -0.000  -0.185   0.113  -0.000  -0.000   0.031  -0.000
 -0.032   0.046  -0.156   0.014  -0.000   0.027  -0.004   0.000  -0.000  -0.006   0.013  -0.000  -0.003
 -0.072   0.079   0.014  -0.211  -0.000  -0.004   0.038   0.000   0.000   0.005  -0.021  -0.000   0.000
  0.000   0.000   0.000   0.000  -0.185   0.000   0.000   0.034  -0.019   0.000   0.000  -0.005   0.000
 -0.000   0.000   0.000  -0.000   0.113  -0.000   0.000  -0.019   0.023  -0.000  -0.000   0.001   0.000
 -0.019   0.016   0.038  -0.033  -0.000  -0.006   0.005   0.000  -0.000   0.011  -0.007   0.000   0.002
  0.011  -0.008  -0.080   0.123  -0.000   0.013  -0.021   0.000  -0.000  -0.007   0.030  -0.000  -0.004
  0.000  -0.000   0.000   0.000   0.031  -0.000  -0.000  -0.005   0.001   0.000  -0.000   0.009  -0.000
  0.015  -0.016   0.018  -0.001  -0.000  -0.003   0.000   0.000   0.000   0.002  -0.004  -0.000   0.007


------------------------ aborting loop because EDIFF is reached ----------------------------------------


    CHARGE:  cpu time      0.0036: real time      0.0036
    FORLOC:  cpu time      0.0002: real time      0.0002
    FORNL :  cpu time      0.0226: real time      0.0227
    STRESS:  cpu time      0.1931: real time      0.1993
    FORCOR:  cpu time      0.0033: real time      0.0033
    FORHAR:  cpu time      0.0009: real time      0.0009
    MIXING:  cpu time      0.0011: real time      0.0011
    OFIELD:  cpu time      0.0000: real time      0.0000

  FORCE on cell =-STRESS in cart. coord.  units (eV):
  Direction    XX          YY          ZZ          XY          YZ          ZX
  --------------------------------------------------------------------------------------
  Alpha Z    81.32311    81.32311    81.32311
  Ewald    -419.43679  -493.89798  -469.14065     0.00000     0.00000     0.00000
  Hartree    68.09499    44.09126    36.27770    -0.00000     0.00000     0.00000
  E(xc)    -139.75135  -140.04540  -140.62016     0.00000    -0.00000    -0.00000
  Local    -205.16761  -114.09705  -133.28378     0.00000    -0.00000    -0.00000
  n-local   237.42770   236.39448   242.04439    -0.00000     0.00000     0.00000
  augment   -11.27976   -11.88241   -12.25526    -0.00000    -0.00000     0.00000
  Kinetic   382.65559   396.57433   395.94799     0.00000     0.00000     0.00000
  Fock        0.00000     0.00000     0.00000     0.00000     0.00000     0.00000
  -------------------------------------------------------------------------------------
  Total      -6.13411    -1.53966     0.29334     0.00000    -0.00000     0.00000
  in kB     -47.16816   -11.83915     2.25564     0.00001    -0.00000     0.00000
  external pressure =      -18.92 kB  Pullay stress =        0.00 kB


 VOLUME and BASIS-vectors are now :
 -----------------------------------------------------------------------------
  energy-cutoff  :      360.00
  volume of cell :      208.36
      direct lattice vectors                 reciprocal lattice vectors
     4.250000000  0.000000000  0.000000000     0.235294118  0.000000000  0.000000000
     0.000000000  4.400000000  0.000000000     0.000000000  0.227272727  0.000000000
     0.000000000  0.000000000 11.142221000     0.000000000  0.000000000  0.089748713

  length of vectors
     4.250000000  4.400000000 11.142221000     0.235294118  0.227272727  0.089748713


 FORCES acting on ions
    electron-ion (+dipol)            ewald-force                    non-local-force                 convergence-correction
 -----------------------------------------------------------------------------------------------
   -.167E-05 0.102E+02 0.277E+02   -.379E-14 -.126E+02 -.307E+02   0.879E-06 0.244E+01 0.302E+01   0.926E-06 0.969E-04 -.806E-03
   0.576E-06 0.102E+02 -.277E+02   -.733E-14 -.126E+02 0.307E+02   -.113E-06 0.244E+01 -.302E+01   -.574E-06 0.958E-04 0.804E-03
   0.118E-05 -.102E+02 -.277E+02   -.414E-14 0.126E+02 0.307E+02   -.614E-06 -.244E+01 -.302E+01   -.711E-06 -.974E-04 0.804E-03
   -.115E-05 -.102E+02 0.277E+02   0.333E-14 0.126E+02 -.307E+02   0.461E-06 -.244E+01 0.302E+01   0.786E-06 -.957E-04 -.801E-03
   -.309E-05 -.924E+01 -.295E+02   0.788E-14 0.105E+02 0.314E+02   0.112E-05 -.119E+01 -.190E+01   0.195E-05 0.439E-03 0.220E-02
   0.805E-06 -.924E+01 0.295E+02   0.507E-14 0.105E+02 -.314E+02   0.126E-06 -.119E+01 0.190E+01   -.100E-05 0.439E-03 -.220E-02
   0.352E-05 0.924E+01 0.295E+02   -.822E-14 -.105E+02 -.314E+02   -.123E-05 0.119E+01 0.190E+01   -.231E-05 -.438E-03 -.220E-02
   -.439E-06 0.924E+01 -.295E+02   0.456E-14 -.105E+02 0.314E+02   -.545E-07 0.119E+01 -.190E+01   0.547E-06 -.439E-03 0.220E-02
 -----------------------------------------------------------------------------------------------
   -.285E-06 -.547E-05 -.314E-05   -.263E-14 0.000E+00 0.711E-14   0.576E-06 0.512E-05 -.704E-06   -.386E-06 0.138E-06 0.292E-05
 
 
 POSITION                                       TOTAL-FORCE (eV/Angst)
 -----------------------------------------------------------------------------------
      1.06250      0.45734      1.46130         0.000000     -0.023501      0.006571
      3.18750      2.65734      4.10981        -0.000000     -0.023501     -0.006573
      3.18750      3.94266      9.68092        -0.000000      0.023501     -0.006572
      1.06250      1.74266      7.03241         0.000000      0.023501      0.006574
      1.06250      4.30204      3.95472        -0.000000      0.042025      0.005945
      3.18750      2.10204      1.61639        -0.000000      0.042025     -0.005943
      3.18750      0.09796      7.18750        -0.000000     -0.042024     -0.005944
      1.06250      2.29796      9.52583         0.000000     -0.042024      0.005942
 -----------------------------------------------------------------------------------
    total drift:                               -0.000000     -0.000000     -0.000001


--------------------------------------------------------------------------------------------------------



  FREE ENERGIE OF THE ION-ELECTRON SYSTEM (eV)
  ---------------------------------------------------
  free  energy   TOTEN  =       -33.56249203 eV

  energy  without entropy=      -33.56249203  energy(sigma->0) =      -33.56249203
 


--------------------------------------------------------------------------------------------------------


    POTLOK:  cpu time      0.1135: real time      0.1139


--------------------------------------------------------------------------------------------------------


     LOOP+:  cpu time      4.8811: real time      4.9276
    4ORBIT:  cpu time      0.0000: real time      0.0000

 total amount of memory used by VASP MPI-rank0    38777. kBytes
=======================================================================

   base      :      30000. kBytes
   nonl-proj :       6893. kBytes
   fftplans  :        321. kBytes
   grid      :        462. kBytes
   one-center:         16. kBytes
   wavefun   :       1085. kBytes
 
  
  
 General timing and accounting informations for this job:
 ========================================================
  
                  Total CPU time used (sec):        5.718
                            User time (sec):        5.424
                          System time (sec):        0.294
                         Elapsed time (sec):        7.064
  
                   Maximum memory used (kb):      190008.
                   Average memory used (kb):          N/A
  
                          Minor page faults:        21863
                          Major page faults:           35
                 Voluntary context switches:         2532
