 vasp.6.4.2 20Jul23 (build Oct 12 2023 10:31:02) complex                         
 executed on              LinuxNV date 2025.05.27  13:51:54
 running   32 mpi-ranks, with    1 threads/rank, on    2 nodes
 distrk:  each k-point on   16 cores,    2 groups
 distr:  one band on NCORE=   1 cores,   16 groups


--------------------------------------------------------------------------------------------------------


 INCAR:
   ENCUT = 520.000000
   SIGMA = 0.050000
   EDIFF = 1.00e-06
   ALGO = N
   GGA = PE
   PREC = Accurate
   SYSTEM = 02_SCF
   ICHARG = 0
   ISMEAR = 0
   ISPIN = 2
   ISTART = 1
   KPAR = 2
   LORBIT = 11
   NBANDS = 220
   NELM = 100
   NELMIN = 5
   LASPH = .TRUE.
   LCHARG = .TRUE.
   LWAVE = .TRUE.
   LREAL = .FALSE.

 POTCAR:    PAW_PBE Ge 05Jan2001                  
 POTCAR:    PAW_PBE Se 06Sep2000                  
 -----------------------------------------------------------------------------
|                                                                             |
|           W    W    AA    RRRRR   N    N  II  N    N   GGGG   !!!           |
|           W    W   A  A   R    R  NN   N  II  NN   N  G    G  !!!           |
|           W    W  A    A  R    R  N N  N  II  N N  N  G       !!!           |
|           W WW W  AAAAAA  RRRRR   N  N N  II  N  N N  G  GGG   !            |
|           WW  WW  A    A  R   R   N   NN  II  N   NN  G    G                |
|           W    W  A    A  R    R  N    N  II  N    N   GGGG   !!!           |
|                                                                             |
|     You use a magnetic or noncollinear calculation, but did not specify     |
|     the initial magnetic moment with the MAGMOM tag. Note that a            |
|     default of 1 will be used for all atoms. This ferromagnetic setup       |
|     may break the symmetry of the crystal, in particular it may rule        |
|     out finding an antiferromagnetic solution. Thence, we recommend         |
|     setting the initial magnetic moment manually or verifying carefully     |
|     that this magnetic setup is desired.                                    |
|                                                                             |
 -----------------------------------------------------------------------------

 POTCAR:    PAW_PBE Ge 05Jan2001                  
   VRHFIN =Ge: s2p2                                                                                 
   LEXCH  = PE                                                                                      
   EATOM  =   104.9960 eV,    7.7170 Ry                                                             
                                                                                                    
   TITEL  = PAW_PBE Ge 05Jan2001                                                                    
   LULTRA =        F    use ultrasoft PP ?                                                          
   IUNSCR =        1    unscreen: 0-lin 1-nonlin 2-no                                               
   RPACOR =    2.170    partial core radius                                                         
   POMASS =   72.610; ZVAL   =    4.000    mass and valenz                                          
   RCORE  =    2.300    outmost cutoff radius                                                       
   RWIGS  =    2.300; RWIGS  =    1.217    wigner-seitz radius (au A)                               
   ENMAX  =  173.807; ENMIN  =  130.355 eV                                                          
   ICORE  =        3    local potential                                                             
   LCOR   =        T    correct aug charges                                                         
   LPAW   =        T    paw PP                                                                      
   EAUG   =  385.843                                                                                
   DEXC   =    0.000                                                                                
   RMAX   =    2.342    core radius for proj-oper                                                   
   RAUG   =    1.300    factor for augmentation sphere                                              
   RDEP   =    2.318    radius for radial grids                                                     
   RDEPT  =    2.103    core radius for aug-charge                                                  
                                                                                                    
   Atomic configuration                                                                             
   10 entries                                                                                       
     n  l   j            E        occ.                                                              
     1  0  0.50    -10959.8463   2.0000                                                             
     2  0  0.50     -1371.6056   2.0000                                                             
     2  1  1.50     -1198.4791   6.0000                                                             
     3  0  0.50      -168.4733   2.0000                                                             
     3  1  1.50      -115.6019   6.0000                                                             
     3  2  2.50       -29.3106  10.0000                                                             
     4  0  0.50       -11.7309   2.0000                                                             
     4  1  0.50        -3.8952   2.0000                                                             
     4  2  1.50        -4.0817   0.0000                                                             
     4  3  2.50        -4.0817   0.0000                                                             
   Description                                                                                      
     l       E           TYP  RCUT    TYP  RCUT                                                     
     0    -11.7309493     23  2.300                                                                 
     0     -7.4578696     23  2.300                                                                 
     1     -3.8952261     23  2.300                                                                 
     1      6.1178114     23  2.300                                                                 
     2     -4.0817478     23  2.300                                                                 
     3     -1.3605826      7  2.300                                                                 
  local pseudopotential read in
  partial core-charges read in
  partial kinetic energy density read in
  atomic valenz-charges read in
  non local Contribution for L=            0  read in
    real space projection operators read in
  non local Contribution for L=            0  read in
    real space projection operators read in
  non local Contribution for L=            1  read in
    real space projection operators read in
  non local Contribution for L=            1  read in
    real space projection operators read in
  non local Contribution for L=            2  read in
    real space projection operators read in
    PAW grid and wavefunctions read in
 
   number of l-projection  operators is LMAX  =            5
   number of lm-projection operators is LMMAX =           13
 
 POTCAR:    PAW_PBE Se 06Sep2000                  
   VRHFIN =Se: s2p4                                                                                 
   LEXCH  = PE                                                                                      
   EATOM  =   257.1286 eV,   18.8984 Ry                                                             
                                                                                                    
   TITEL  = PAW_PBE Se 06Sep2000                                                                    
   LULTRA =        F    use ultrasoft PP ?                                                          
   IUNSCR =        1    unscreen: 0-lin 1-nonlin 2-no                                               
   RPACOR =    1.900    partial core radius                                                         
   POMASS =   78.960; ZVAL   =    6.000    mass and valenz                                          
   RCORE  =    2.100    outmost cutoff radius                                                       
   RWIGS  =    2.200; RWIGS  =    1.164    wigner-seitz radius (au A)                               
   ENMAX  =  211.555; ENMIN  =  158.666 eV                                                          
   ICORE  =        3    local potential                                                             
   LCOR   =        T    correct aug charges                                                         
   LPAW   =        T    paw PP                                                                      
   EAUG   =  446.842                                                                                
   DEXC   =    0.000                                                                                
   RMAX   =    2.147    core radius for proj-oper                                                   
   RAUG   =    1.300    factor for augmentation sphere                                              
   RDEP   =    2.177    radius for radial grids                                                     
   RDEPT  =    1.928    core radius for aug-charge                                                  
                                                                                                    
   Atomic configuration                                                                             
   10 entries                                                                                       
     n  l   j            E        occ.                                                              
     1  0  0.50    -12503.4787   2.0000                                                             
     2  0  0.50     -1606.9547   2.0000                                                             
     2  1  1.50     -1413.3140   6.0000                                                             
     3  0  0.50      -213.4885   2.0000                                                             
     3  1  1.50      -152.9538   6.0000                                                             
     3  2  2.50       -53.1221  10.0000                                                             
     4  0  0.50       -17.2865   2.0000                                                             
     4  1  0.50        -6.5110   4.0000                                                             
     4  2  2.50        -6.8029   0.0000                                                             
     4  3  2.50        -6.8029   0.0000                                                             
   Description                                                                                      
     l       E           TYP  RCUT    TYP  RCUT                                                     
     0    -17.2865377     23  2.100                                                                 
     0    -15.3094411     23  2.100                                                                 
     1     -6.5110275     23  2.100                                                                 
     1     -0.0695192     23  2.100                                                                 
     2     -6.8029130     23  2.100                                                                 
     3     -1.3605826      7  2.100                                                                 
  local pseudopotential read in
  partial core-charges read in
  partial kinetic energy density read in
  atomic valenz-charges read in
  non local Contribution for L=            0  read in
    real space projection operators read in
  non local Contribution for L=            0  read in
    real space projection operators read in
  non local Contribution for L=            1  read in
    real space projection operators read in
  non local Contribution for L=            1  read in
    real space projection operators read in
  non local Contribution for L=            2  read in
    real space projection operators read in
    PAW grid and wavefunctions read in
 
   number of l-projection  operators is LMAX  =            5
   number of lm-projection operators is LMMAX =           13
 
  PAW_PBE Ge 05Jan2001                  :
 energy of atom  1       EATOM= -104.9960
 kinetic energy error for atom=    0.0002 (will be added to EATOM!!)
  PAW_PBE Se 06Sep2000                  :
 energy of atom  2       EATOM= -257.1286
 kinetic energy error for atom=    0.0007 (will be added to EATOM!!)
 
 
 POSCAR: Ge Se
  positions in cartesian coordinates
  No initial velocities read in
 exchange correlation table for  LEXCH =        8
   RHO(1)=    0.500       N(1)  =     2000
   RHO(2)=  100.500       N(2)  =     4000
 


--------------------------------------------------------------------------------------------------------


 ion  position               nearest neighbor table
   1  0.250  0.116  0.047-   6 2.60   6 2.60   8 2.60
   2  0.750  0.884  0.643-   5 2.60   5 2.60   7 2.60
   3  0.750  0.616  0.143-   8 2.60   8 2.60   6 2.60
   4  0.250  0.384  0.547-   7 2.60   7 2.60   5 2.60
   5  0.250  0.505  0.634-   2 2.60   2 2.60   4 2.60
   6  0.750  0.495  0.056-   1 2.60   1 2.60   3 2.60
   7  0.750  0.005  0.556-   4 2.60   4 2.60   2 2.60
   8  0.250  0.995  0.134-   3 2.60   3 2.60   1 2.60
 
  LATTYP: Found a simple orthorhombic cell.
 ALAT       =     3.8581001759
 B/A-ratio  =     1.1732653073
 C/A-ratio  =     7.5387302407
  
  Lattice vectors:
  
 A1 = (   3.8581001759,   0.0000000000,   0.0000000000)
 A2 = (   0.0000000000,   4.5265750885,   0.0000000000)
 A3 = (   0.0000000000,   0.0000000000,  29.0851764679)


Analysis of symmetry for initial positions (statically):
=====================================================================
 Subroutine PRICEL returns:
 Original cell was already a primitive cell.
 

 Routine SETGRP: Setting up the symmetry group for a 
 simple orthorhombic supercell.


 Subroutine GETGRP returns: Found  8 space group operations
 (whereof  1 operations were pure point group operations)
 out of a pool of  8 trial point group operations.


The static configuration has the point symmetry C_1 .
 The point group associated with its full space group is D_2h.


Analysis of symmetry for dynamics (positions and initial velocities):
=====================================================================
 Subroutine PRICEL returns:
 Original cell was already a primitive cell.
 

 Routine SETGRP: Setting up the symmetry group for a 
 simple orthorhombic supercell.


 Subroutine GETGRP returns: Found  8 space group operations
 (whereof  1 operations were pure point group operations)
 out of a pool of  8 trial point group operations.


The dynamic configuration has the point symmetry C_1 .
 The point group associated with its full space group is D_2h.


Analysis of structural, dynamic, and magnetic symmetry:
=====================================================================
 Subroutine PRICEL returns:
 Original cell was already a primitive cell.
 

 Routine SETGRP: Setting up the symmetry group for a 
 simple orthorhombic supercell.


 Subroutine GETGRP returns: Found  8 space group operations
 (whereof  1 operations were pure point group operations)
 out of a pool of  8 trial point group operations.


The overall configuration has the point symmetry C_1 .
 The point group associated with its full space group is D_2h.


 Subroutine INISYM returns: Found  8 space group operations
 (whereof  1 operations are pure point group operations),
 and found     1 'primitive' translations


----------------------------------------------------------------------------------------

                                     Primitive cell                                     

  volume of cell :     507.9429

  direct lattice vectors                    reciprocal lattice vectors
     3.858100176  0.000000000  0.000000000     0.259194929  0.000000000  0.000000000
     0.000000000  4.526575088  0.000000000     0.000000000  0.220917577  0.000000000
     0.000000000  0.000000000 29.085176468     0.000000000  0.000000000  0.034381775

  length of vectors
     3.858100176  4.526575088 29.085176468     0.259194929  0.220917577  0.034381775

  position of ions in fractional coordinates (direct lattice)
     0.250000000  0.115641899  0.047084664
     0.750000000  0.884358108  0.643479357
     0.750000000  0.615641892  0.143479357
     0.250000000  0.384358108  0.547084666
     0.250000000  0.504948974  0.634397213
     0.750000000  0.495050967  0.056166799
     0.750000000  0.004949023  0.556166810
     0.250000000  0.995051026  0.134397224

  ion indices of the primitive-cell ions
   primitive index   ion index
                 1           1
                 2           2
                 3           3
                 4           4
                 5           5
                 6           6
                 7           7
                 8           8

----------------------------------------------------------------------------------------

 
 
 KPOINTS: KPOINTS created by Atomic Simulation Env

Automatic generation of k-mesh.
 Grid dimensions read from file:
 generate k-points for:    6    6    2

 Generating k-lattice:

  Cartesian coordinates                     Fractional coordinates (reciprocal lattice)
     0.043199155  0.000000000  0.000000000     0.166666667  0.000000000  0.000000000
     0.000000000  0.036819596  0.000000000     0.000000000  0.166666667  0.000000000
     0.000000000  0.000000000  0.017190888     0.000000000  0.000000000  0.500000000

  Length of vectors
     0.043199155  0.036819596  0.017190888

  Shift w.r.t. Gamma in fractional coordinates (k-lattice)
     0.000000000  0.000000000  0.000000000

 
 Subroutine IBZKPT returns following result:
 ===========================================
 
 Found     32 irreducible k-points:
 
 Following reciprocal coordinates:
            Coordinates               Weight
  0.000000  0.000000  0.000000      1.000000
  0.166667  0.000000  0.000000      2.000000
  0.333333  0.000000  0.000000      2.000000
  0.500000  0.000000  0.000000      1.000000
  0.000000  0.166667  0.000000      2.000000
  0.166667  0.166667  0.000000      4.000000
  0.333333  0.166667  0.000000      4.000000
  0.500000  0.166667  0.000000      2.000000
  0.000000  0.333333  0.000000      2.000000
  0.166667  0.333333  0.000000      4.000000
  0.333333  0.333333  0.000000      4.000000
  0.500000  0.333333  0.000000      2.000000
  0.000000  0.500000  0.000000      1.000000
  0.166667  0.500000  0.000000      2.000000
  0.333333  0.500000  0.000000      2.000000
  0.500000  0.500000  0.000000      1.000000
  0.000000  0.000000  0.500000      1.000000
  0.166667  0.000000  0.500000      2.000000
  0.333333  0.000000  0.500000      2.000000
  0.500000  0.000000  0.500000      1.000000
  0.000000  0.166667  0.500000      2.000000
  0.166667  0.166667  0.500000      4.000000
  0.333333  0.166667  0.500000      4.000000
  0.500000  0.166667  0.500000      2.000000
  0.000000  0.333333  0.500000      2.000000
  0.166667  0.333333  0.500000      4.000000
  0.333333  0.333333  0.500000      4.000000
  0.500000  0.333333  0.500000      2.000000
  0.000000  0.500000  0.500000      1.000000
  0.166667  0.500000  0.500000      2.000000
  0.333333  0.500000  0.500000      2.000000
  0.500000  0.500000  0.500000      1.000000
 
 Following cartesian coordinates:
            Coordinates               Weight
  0.000000  0.000000  0.000000      1.000000
  0.043199  0.000000  0.000000      2.000000
  0.086398  0.000000  0.000000      2.000000
  0.129597  0.000000  0.000000      1.000000
  0.000000  0.036820  0.000000      2.000000
  0.043199  0.036820  0.000000      4.000000
  0.086398  0.036820  0.000000      4.000000
  0.129597  0.036820  0.000000      2.000000
  0.000000  0.073639  0.000000      2.000000
  0.043199  0.073639  0.000000      4.000000
  0.086398  0.073639  0.000000      4.000000
  0.129597  0.073639  0.000000      2.000000
  0.000000  0.110459  0.000000      1.000000
  0.043199  0.110459  0.000000      2.000000
  0.086398  0.110459  0.000000      2.000000
  0.129597  0.110459  0.000000      1.000000
  0.000000  0.000000  0.017191      1.000000
  0.043199  0.000000  0.017191      2.000000
  0.086398  0.000000  0.017191      2.000000
  0.129597  0.000000  0.017191      1.000000
  0.000000  0.036820  0.017191      2.000000
  0.043199  0.036820  0.017191      4.000000
  0.086398  0.036820  0.017191      4.000000
  0.129597  0.036820  0.017191      2.000000
  0.000000  0.073639  0.017191      2.000000
  0.043199  0.073639  0.017191      4.000000
  0.086398  0.073639  0.017191      4.000000
  0.129597  0.073639  0.017191      2.000000
  0.000000  0.110459  0.017191      1.000000
  0.043199  0.110459  0.017191      2.000000
  0.086398  0.110459  0.017191      2.000000
  0.129597  0.110459  0.017191      1.000000
 
 -----------------------------------------------------------------------------
|                                                                             |
|           W    W    AA    RRRRR   N    N  II  N    N   GGGG   !!!           |
|           W    W   A  A   R    R  NN   N  II  NN   N  G    G  !!!           |
|           W    W  A    A  R    R  N N  N  II  N N  N  G       !!!           |
|           W WW W  AAAAAA  RRRRR   N  N N  II  N  N N  G  GGG   !            |
|           WW  WW  A    A  R   R   N   NN  II  N   NN  G    G                |
|           W    W  A    A  R    R  N    N  II  N    N   GGGG   !!!           |
|                                                                             |
|     The number of bands has been changed from the values supplied in        |
|     the INCAR file. This is a result of running the parallel version.       |
|     The orbitals not found in the WAVECAR file will be initialized with     |
|     random numbers, which is usually adequate. For correlated               |
|     calculations, however, you should redo the groundstate calculation.     |
|     I found NBANDS = 220. Now, NBANDS = 224.                                |
|                                                                             |
 -----------------------------------------------------------------------------



--------------------------------------------------------------------------------------------------------




 Dimension of arrays:
   k-points           NKPTS =     32   k-points in BZ     NKDIM =     32   number of bands    NBANDS=    224
   number of dos      NEDOS =    301   number of ions     NIONS =      8
   non local maximal  LDIM  =      5   non local SUM 2l+1 LMDIM =     13
   total plane-waves  NPLWV = 233280
   max r-space proj   IRMAX =      1   max aug-charges    IRDMAX=  25158
   dimension x,y,z NGX =    30 NGY =   36 NGZ =  216
   dimension x,y,z NGXF=    60 NGYF=   72 NGZF=  432
   support grid    NGXF=    60 NGYF=   72 NGZF=  432
   ions per type =               4   4
   NGX,Y,Z   is equivalent  to a cutoff of  12.93, 13.22, 12.35 a.u.
   NGXF,Y,Z  is equivalent  to a cutoff of  25.85, 26.44, 24.69 a.u.

 SYSTEM =  02_SCF                                  
 POSCAR =  Ge Se                                   

 Startparameter for this run:
   NWRITE =      2    write-flag & timer
   PREC   = accura    normal or accurate (medium, high low for compatibility)
   ISTART =      0    job   : 0-new  1-cont  2-samecut
   ICHARG =      2    charge: 1-file 2-atom 10-const
   ISPIN  =      2    spin polarized calculation?
   LNONCOLLINEAR =      F non collinear calculations
   LSORBIT =      F    spin-orbit coupling
   INIWAV =      1    electr: 0-lowe 1-rand  2-diag
   LASPH  =      T    aspherical Exc in radial PAW
 Electronic Relaxation 1
   ENCUT  =  520.0 eV  38.22 Ry    6.18 a.u.   7.17  8.42 54.08*2*pi/ulx,y,z
   ENINI  =  520.0     initial cutoff
   ENAUG  =  446.8 eV  augmentation charge cutoff
   NELM   =    100;   NELMIN=  5; NELMDL=  0     # of ELM steps 
   EDIFF  = 0.1E-05   stopping-criterion for ELM
   LREAL  =      F    real-space projection
   NLSPLINE    = F    spline interpolate recip. space projectors
   LCOMPAT=      F    compatible to vasp.4.4
   GGA_COMPAT  = T    GGA compatible to vasp.4.4-vasp.4.6
   LMAXPAW     = -100 max onsite density
   LMAXMIX     =    2 max onsite mixed and CHGCAR
   VOSKOWN=      0    Vosko Wilk Nusair interpolation
   ROPT   =    0.00000   0.00000
 Ionic relaxation
   EDIFFG = 0.1E-04   stopping-criterion for IOM
   NSW    =      0    number of steps for IOM
   NBLOCK =      1;   KBLOCK =      1    inner block; outer block 
   IBRION =     -1    ionic relax: 0-MD 1-quasi-New 2-CG
   NFREE  =      0    steps in history (QN), initial steepest desc. (CG)
   ISIF   =      2    stress and relaxation
   IWAVPR =     10    prediction:  0-non 1-charg 2-wave 3-comb
   ISYM   =      2    0-nonsym 1-usesym 2-fastsym
   LCORR  =      T    Harris-Foulkes like correction to forces

   POTIM  = 0.5000    time-step for ionic-motion
   TEIN   =    0.0    initial temperature
   TEBEG  =    0.0;   TEEND  =   0.0 temperature during run
   SMASS  =  -3.00    Nose mass-parameter (am)
   estimated Nose-frequenzy (Omega)   =  0.10E-29 period in steps = 0.13E+47 mass=  -0.340E-27a.u.
   SCALEE = 1.0000    scale energy and forces
   NPACO  =    256;   APACO  = 10.0  distance and # of slots for P.C.
   PSTRESS=    0.0 pullay stress

  Mass of Ions in am
   POMASS =  72.61 78.96
  Ionic Valenz
   ZVAL   =   4.00  6.00
  Atomic Wigner-Seitz radii
   RWIGS  =  -1.00 -1.00
  virtual crystal weights 
   VCA    =   1.00  1.00
   NELECT =      40.0000    total number of electrons
   NUPDOWN=      -1.0000    fix difference up-down

 DOS related values:
   EMIN   =  10.00;   EMAX   =-10.00  energy-range for DOS
   EFERMI =   0.00;   METHOD = LEGACY      
   ISMEAR =     0;   SIGMA  =   0.05  broadening in eV -4-tet -1-fermi 0-gaus

 Electronic relaxation 2 (details)
   IALGO  =     38    algorithm
   LDIAG  =      T    sub-space diagonalisation (order eigenvalues)
   LSUBROT=      F    optimize rotation matrix (better conditioning)
   TURBO    =      0    0=normal 1=particle mesh
   IRESTART =      0    0=no restart 2=restart with 2 vectors
   NREBOOT  =      0    no. of reboots
   NMIN     =      0    reboot dimension
   EREF     =   0.00    reference energy to select bands
   IMIX   =      4    mixing-type and parameters
     AMIX     =   0.40;   BMIX     =  1.00
     AMIX_MAG =   1.60;   BMIX_MAG =  1.00
     AMIN     =   0.10
     WC   =   100.;   INIMIX=   1;  MIXPRE=   1;  MAXMIX= -45

 Intra band minimization:
   WEIMIN = 0.0000     energy-eigenvalue tresh-hold
   EBREAK =  0.11E-08  absolut break condition
   DEPER  =   0.30     relativ break condition  

   TIME   =   0.40     timestep for ELM

  volume/ion in A,a.u.               =      63.49       428.47
  Fermi-wavevector in a.u.,A,eV,Ry     =   0.701708  1.326036  6.699431  0.492394
  Thomas-Fermi vector in A             =   1.786209
 
 Write flags
   LWAVE        =      T    write WAVECAR
   LDOWNSAMPLE  =      F    k-point downsampling of WAVECAR
   LCHARG       =      T    write CHGCAR
   LVTOT        =      F    write LOCPOT, total local potential
   LVHAR        =      F    write LOCPOT, Hartree potential only
   LELF         =      F    write electronic localiz. function (ELF)
   LORBIT       =     11    0 simple, 1 ext, 2 COOP (PROOUT), +10 PAW based schemes


 Dipole corrections
   LMONO  =      F    monopole corrections only (constant potential shift)
   LDIPOL =      F    correct potential (dipole corrections)
   IDIPOL =      0    1-x, 2-y, 3-z, 4-all directions 
   EPSILON=  1.0000000 bulk dielectric constant

 Exchange correlation treatment:
   GGA     =    PE    GGA type
   LEXCH   =     8    internal setting for exchange type
   LIBXC   =     F    Libxc                    
   VOSKOWN =     0    Vosko Wilk Nusair interpolation
   LHFCALC =     F    Hartree Fock is set to
   LHFONE  =     F    Hartree Fock one center treatment
   AEXX    =    0.0000 exact exchange contribution

 Linear response parameters
   LEPSILON=     F    determine dielectric tensor
   LRPA    =     F    only Hartree local field effects (RPA)
   LNABLA  =     F    use nabla operator in PAW spheres
   LVEL    =     F    velocity operator in full k-point grid
   CSHIFT  =0.1000    complex shift for real part using Kramers Kronig
   OMEGAMAX=  -1.0    maximum frequency
   DEG_THRESHOLD= 0.2000000E-02 threshold for treating states as degnerate
   RTIME   =   -0.100 relaxation time in fs
  (WPLASMAI=    0.000 imaginary part of plasma frequency in eV, 0.658/RTIME)
   DFIELD  = 0.0000000 0.0000000 0.0000000 field for delta impulse in time
 
  Optional k-point grid parameters
   LKPOINTS_OPT  =     F    use optional k-point grid
   KPOINTS_OPT_MODE=     1    mode for optional k-point grid
 
 Orbital magnetization related:
   ORBITALMAG=     F  switch on orbital magnetization
   LCHIMAG   =     F  perturbation theory with respect to B field
   DQ        =  0.001000  dq finite difference perturbation B field
   LLRAUG    =     F  two centre corrections for induced B field
   LBONE     =     F  B-component reconstruction in AE one-centre
   LVGVCALC  =     T  calculate vGv susceptibility
   LVGVAPPL  =     F  apply vGv susceptibility instead of pGv for G=0

 Random number generation:
   RANDOM_GENERATOR = DEFAULT
   PCG_SEED         = not used


--------------------------------------------------------------------------------------------------------


 Static calculation
 charge density and potential will be updated during run
 spin polarized calculation
 Variant of blocked Davidson
 Davidson routine will perform the subspace rotation
 perform sub-space diagonalisation
    after iterative eigenvector-optimisation
 modified Broyden-mixing scheme, WC =      100.0
 initial mixing is a Kerker type mixing with AMIX =  0.4000 and BMIX =      1.0000
 Hartree-type preconditioning will be used
 using additional bands           204
 reciprocal scheme for non local part
 use partial core corrections
 calculate Harris-corrections to forces 
   (improved forces if not selfconsistent)
 use gradient corrections 
 use of overlap-Matrix (Vanderbilt PP)
 Gauss-broadening in eV      SIGMA  =   0.05


--------------------------------------------------------------------------------------------------------


  energy-cutoff  :      520.00
  volume of cell :      507.94
      direct lattice vectors                 reciprocal lattice vectors
     3.858100176  0.000000000  0.000000000     0.259194929  0.000000000  0.000000000
     0.000000000  4.526575088  0.000000000     0.000000000  0.220917577  0.000000000
     0.000000000  0.000000000 29.085176468     0.000000000  0.000000000  0.034381775

  length of vectors
     3.858100176  4.526575088 29.085176468     0.259194929  0.220917577  0.034381775


 
 k-points in units of 2pi/SCALE and weight: KPOINTS created by Atomic Simulation Env
   0.00000000  0.00000000  0.00000000       0.014
   0.04319915  0.00000000  0.00000000       0.028
   0.08639831  0.00000000  0.00000000       0.028
   0.12959746  0.00000000  0.00000000       0.014
   0.00000000  0.03681960  0.00000000       0.028
   0.04319915  0.03681960  0.00000000       0.056
   0.08639831  0.03681960  0.00000000       0.056
   0.12959746  0.03681960  0.00000000       0.028
   0.00000000  0.07363919  0.00000000       0.028
   0.04319915  0.07363919  0.00000000       0.056
   0.08639831  0.07363919  0.00000000       0.056
   0.12959746  0.07363919  0.00000000       0.028
   0.00000000  0.11045879  0.00000000       0.014
   0.04319915  0.11045879  0.00000000       0.028
   0.08639831  0.11045879  0.00000000       0.028
   0.12959746  0.11045879  0.00000000       0.014
   0.00000000  0.00000000  0.01719089       0.014
   0.04319915  0.00000000  0.01719089       0.028
   0.08639831  0.00000000  0.01719089       0.028
   0.12959746  0.00000000  0.01719089       0.014
   0.00000000  0.03681960  0.01719089       0.028
   0.04319915  0.03681960  0.01719089       0.056
   0.08639831  0.03681960  0.01719089       0.056
   0.12959746  0.03681960  0.01719089       0.028
   0.00000000  0.07363919  0.01719089       0.028
   0.04319915  0.07363919  0.01719089       0.056
   0.08639831  0.07363919  0.01719089       0.056
   0.12959746  0.07363919  0.01719089       0.028
   0.00000000  0.11045879  0.01719089       0.014
   0.04319915  0.11045879  0.01719089       0.028
   0.08639831  0.11045879  0.01719089       0.028
   0.12959746  0.11045879  0.01719089       0.014
 
 k-points in reciprocal lattice and weights: KPOINTS created by Atomic Simulation Env
   0.00000000  0.00000000  0.00000000       0.014
   0.16666667  0.00000000  0.00000000       0.028
   0.33333333  0.00000000  0.00000000       0.028
   0.50000000  0.00000000  0.00000000       0.014
   0.00000000  0.16666667  0.00000000       0.028
   0.16666667  0.16666667  0.00000000       0.056
   0.33333333  0.16666667  0.00000000       0.056
   0.50000000  0.16666667  0.00000000       0.028
   0.00000000  0.33333333  0.00000000       0.028
   0.16666667  0.33333333  0.00000000       0.056
   0.33333333  0.33333333  0.00000000       0.056
   0.50000000  0.33333333  0.00000000       0.028
   0.00000000  0.50000000  0.00000000       0.014
   0.16666667  0.50000000  0.00000000       0.028
   0.33333333  0.50000000  0.00000000       0.028
   0.50000000  0.50000000  0.00000000       0.014
   0.00000000  0.00000000  0.50000000       0.014
   0.16666667  0.00000000  0.50000000       0.028
   0.33333333  0.00000000  0.50000000       0.028
   0.50000000  0.00000000  0.50000000       0.014
   0.00000000  0.16666667  0.50000000       0.028
   0.16666667  0.16666667  0.50000000       0.056
   0.33333333  0.16666667  0.50000000       0.056
   0.50000000  0.16666667  0.50000000       0.028
   0.00000000  0.33333333  0.50000000       0.028
   0.16666667  0.33333333  0.50000000       0.056
   0.33333333  0.33333333  0.50000000       0.056
   0.50000000  0.33333333  0.50000000       0.028
   0.00000000  0.50000000  0.50000000       0.014
   0.16666667  0.50000000  0.50000000       0.028
   0.33333333  0.50000000  0.50000000       0.028
   0.50000000  0.50000000  0.50000000       0.014
 
 position of ions in fractional coordinates (direct lattice) 
   0.25000000  0.11564190  0.04708466
   0.75000000  0.88435811  0.64347936
   0.75000000  0.61564189  0.14347936
   0.25000000  0.38435811  0.54708467
   0.25000000  0.50494897  0.63439721
   0.75000000  0.49505097  0.05616680
   0.75000000  0.00494902  0.55616681
   0.25000000  0.99505103  0.13439722
 
 position of ions in cartesian coordinates  (Angst):
   0.96452504  0.52346174  1.36946575
   2.89357513  4.00311338 18.71571064
   2.89357513  2.78674925  4.17312240
   0.96452504  1.73982584 15.91205406
   0.96452504  2.28568945 18.45155488
   2.89357513  2.24088537  1.63362125
   2.89357513  0.02240212 16.17620982
   0.96452504  4.50417319  3.90896698
 


--------------------------------------------------------------------------------------------------------


 k-point   1 :   0.0000 0.0000 0.0000  plane waves:   13631
 k-point   2 :   0.1667 0.0000 0.0000  plane waves:   13673
 k-point   3 :   0.3333 0.0000 0.0000  plane waves:   13720
 k-point   4 :   0.5000 0.0000 0.0000  plane waves:   13766
 k-point   5 :   0.0000 0.1667 0.0000  plane waves:   13689
 k-point   6 :   0.1667 0.1667 0.0000  plane waves:   13675
 k-point   7 :   0.3333 0.1667 0.0000  plane waves:   13694
 k-point   8 :   0.5000 0.1667 0.0000  plane waves:   13748
 k-point   9 :   0.0000 0.3333 0.0000  plane waves:   13667
 k-point  10 :   0.1667 0.3333 0.0000  plane waves:   13649
 k-point  11 :   0.3333 0.3333 0.0000  plane waves:   13685
 k-point  12 :   0.5000 0.3333 0.0000  plane waves:   13670
 k-point  13 :   0.0000 0.5000 0.0000  plane waves:   13684
 k-point  14 :   0.1667 0.5000 0.0000  plane waves:   13628
 k-point  15 :   0.3333 0.5000 0.0000  plane waves:   13646
 k-point  16 :   0.5000 0.5000 0.0000  plane waves:   13628
 k-point  17 :   0.0000 0.0000 0.5000  plane waves:   13668
 k-point  18 :   0.1667 0.0000 0.5000  plane waves:   13690
 k-point  19 :   0.3333 0.0000 0.5000  plane waves:   13726
 k-point  20 :   0.5000 0.0000 0.5000  plane waves:   13716
 k-point  21 :   0.0000 0.1667 0.5000  plane waves:   13690
 k-point  22 :   0.1667 0.1667 0.5000  plane waves:   13660
 k-point  23 :   0.3333 0.1667 0.5000  plane waves:   13692
 k-point  24 :   0.5000 0.1667 0.5000  plane waves:   13756
 k-point  25 :   0.0000 0.3333 0.5000  plane waves:   13642
 k-point  26 :   0.1667 0.3333 0.5000  plane waves:   13652
 k-point  27 :   0.3333 0.3333 0.5000  plane waves:   13670
 k-point  28 :   0.5000 0.3333 0.5000  plane waves:   13676
 k-point  29 :   0.0000 0.5000 0.5000  plane waves:   13696
 k-point  30 :   0.1667 0.5000 0.5000  plane waves:   13652
 k-point  31 :   0.3333 0.5000 0.5000  plane waves:   13656
 k-point  32 :   0.5000 0.5000 0.5000  plane waves:   13632

 maximum and minimum number of plane-waves per node :     13766    13628

 maximum number of plane-waves:     13766
 maximum index in each direction: 
   IXMAX=    7   IYMAX=    8   IZMAX=   54
   IXMIN=   -7   IYMIN=   -8   IZMIN=  -54


 serial   3D FFT for wavefunctions
 parallel 3D FFT for charge:
    minimum data exchange during FFTs selected (reduces bandwidth)


 total amount of memory used by VASP MPI-rank0   356441. kBytes
=======================================================================

   base      :      30000. kBytes
   nonl-proj :      93456. kBytes
   fftplans  :       5071. kBytes
   grid      :      28687. kBytes
   one-center:        129. kBytes
   wavefun   :     199098. kBytes
 
     INWAV:  cpu time      0.0000: real time      0.0001
 Broyden mixing: mesh for mixing (old mesh)
   NGX = 15   NGY = 17   NGZ =109
  (NGX  = 60   NGY  = 72   NGZ  =432)
  gives a total of  27795 points

 initial charge density was supplied:
 charge density of overlapping atoms calculated
 number of electron      40.0000000 magnetization       8.0000000
 keeping initial charge density in first step


--------------------------------------------------------------------------------------------------------


 Maximum index for augmentation-charges          1775 (set IRDMAX)


--------------------------------------------------------------------------------------------------------


 First call to EWALD:  gamma=   0.222
 Maximum number of real-space cells 5x 4x 1
 Maximum number of reciprocal cells 2x 2x 9

    FEWALD:  cpu time      0.0020: real time      0.0020


--------------------------------------- Ionic step        1  -------------------------------------------




--------------------------------------- Iteration      1(   1)  ---------------------------------------


    POTLOK:  cpu time      0.2567: real time      0.2588
    SETDIJ:  cpu time      1.1468: real time      1.1492
     EDDAV:  cpu time     32.3538: real time     32.6479
       DOS:  cpu time      0.0025: real time      0.0025
    --------------------------------------------
      LOOP:  cpu time     33.7599: real time     34.0584

 eigenvalue-minimisations  : 28672
 total energy-change (2. order) : 0.1815591E+03  (-0.9136677E+03)
 number of electron      40.0000000 magnetization       8.0000000
 augmentation part       40.0000000 magnetization       8.0000000

 Free energy of the ion-electron system (eV)
  ---------------------------------------------------
  alpha Z        PSCENC =        33.35895425
  Ewald energy   TEWEN  =       968.87234337
  -Hartree energ DENC   =     -2247.24720904
  -exchange      EXHF   =         0.00000000
  -V(xc)+E(xc)   XCENC  =       -34.02486969
  PAW double counting   =      1193.15788873    -1079.99237720
  entropy T*S    EENTRO =        -0.00261499
  eigenvalues    EBANDS =      -101.05758381
  atomic energy  EATOM  =      1448.49460871
  Solvation  Ediel_sol  =         0.00000000
  ---------------------------------------------------
  free energy    TOTEN  =       181.55914033 eV

  energy without entropy =      181.56175532  energy(sigma->0) =      181.56044783


--------------------------------------------------------------------------------------------------------




--------------------------------------- Iteration      1(   2)  ---------------------------------------


     EDDAV:  cpu time     37.4440: real time     37.7679
       DOS:  cpu time      0.0019: real time      0.0019
    --------------------------------------------
      LOOP:  cpu time     37.4460: real time     37.7698

 eigenvalue-minimisations  : 34576
 total energy-change (2. order) :-0.2013887E+03  (-0.1806035E+03)
 number of electron      40.0000000 magnetization       8.0000000
 augmentation part       40.0000000 magnetization       8.0000000

 Free energy of the ion-electron system (eV)
  ---------------------------------------------------
  alpha Z        PSCENC =        33.35895425
  Ewald energy   TEWEN  =       968.87234337
  -Hartree energ DENC   =     -2247.24720904
  -exchange      EXHF   =         0.00000000
  -V(xc)+E(xc)   XCENC  =       -34.02486969
  PAW double counting   =      1193.15788873    -1079.99237720
  entropy T*S    EENTRO =        -0.00000000
  eigenvalues    EBANDS =      -302.44892907
  atomic energy  EATOM  =      1448.49460871
  Solvation  Ediel_sol  =         0.00000000
  ---------------------------------------------------
  free energy    TOTEN  =       -19.82958994 eV

  energy without entropy =      -19.82958994  energy(sigma->0) =      -19.82958994


--------------------------------------------------------------------------------------------------------




--------------------------------------- Iteration      1(   3)  ---------------------------------------


     EDDAV:  cpu time     37.2331: real time     37.5696
       DOS:  cpu time      0.0020: real time      0.0020
    --------------------------------------------
      LOOP:  cpu time     37.2350: real time     37.5715

 eigenvalue-minimisations  : 34656
 total energy-change (2. order) :-0.1254494E+02  (-0.1233374E+02)
 number of electron      40.0000000 magnetization       8.0000000
 augmentation part       40.0000000 magnetization       8.0000000

 Free energy of the ion-electron system (eV)
  ---------------------------------------------------
  alpha Z        PSCENC =        33.35895425
  Ewald energy   TEWEN  =       968.87234337
  -Hartree energ DENC   =     -2247.24720904
  -exchange      EXHF   =         0.00000000
  -V(xc)+E(xc)   XCENC  =       -34.02486969
  PAW double counting   =      1193.15788873    -1079.99237720
  entropy T*S    EENTRO =        -0.00000000
  eigenvalues    EBANDS =      -314.99386722
  atomic energy  EATOM  =      1448.49460871
  Solvation  Ediel_sol  =         0.00000000
  ---------------------------------------------------
  free energy    TOTEN  =       -32.37452809 eV

  energy without entropy =      -32.37452809  energy(sigma->0) =      -32.37452809


--------------------------------------------------------------------------------------------------------




--------------------------------------- Iteration      1(   4)  ---------------------------------------


     EDDAV:  cpu time     36.5722: real time     36.9014
       DOS:  cpu time      0.0020: real time      0.0020
    --------------------------------------------
      LOOP:  cpu time     36.5742: real time     36.9033

 eigenvalue-minimisations  : 33744
 total energy-change (2. order) :-0.1013290E+00  (-0.1013001E+00)
 number of electron      40.0000000 magnetization       8.0000000
 augmentation part       40.0000000 magnetization       8.0000000

 Free energy of the ion-electron system (eV)
  ---------------------------------------------------
  alpha Z        PSCENC =        33.35895425
  Ewald energy   TEWEN  =       968.87234337
  -Hartree energ DENC   =     -2247.24720904
  -exchange      EXHF   =         0.00000000
  -V(xc)+E(xc)   XCENC  =       -34.02486969
  PAW double counting   =      1193.15788873    -1079.99237720
  entropy T*S    EENTRO =        -0.00000000
  eigenvalues    EBANDS =      -315.09519627
  atomic energy  EATOM  =      1448.49460871
  Solvation  Ediel_sol  =         0.00000000
  ---------------------------------------------------
  free energy    TOTEN  =       -32.47585714 eV

  energy without entropy =      -32.47585714  energy(sigma->0) =      -32.47585714


--------------------------------------------------------------------------------------------------------




--------------------------------------- Iteration      1(   5)  ---------------------------------------


     EDDAV:  cpu time     36.1601: real time     36.4612
       DOS:  cpu time      0.0020: real time      0.0020
    CHARGE:  cpu time      0.4182: real time      0.4205
    MIXING:  cpu time      0.0099: real time      0.0100
    --------------------------------------------
      LOOP:  cpu time     36.5902: real time     36.8936

 eigenvalue-minimisations  : 33424
 total energy-change (2. order) :-0.6437178E-03  (-0.6437013E-03)
 number of electron      40.0000001 magnetization       7.4292874
 augmentation part       -7.4657378 magnetization       7.4467759

 Broyden mixing:
  rms(total) = 0.96742E+00    rms(broyden)= 0.96742E+00
  rms(prec ) = 0.97946E+00
  weight for this iteration     100.00

 Free energy of the ion-electron system (eV)
  ---------------------------------------------------
  alpha Z        PSCENC =        33.35895425
  Ewald energy   TEWEN  =       968.87234337
  -Hartree energ DENC   =     -2247.24720904
  -exchange      EXHF   =         0.00000000
  -V(xc)+E(xc)   XCENC  =       -34.02486969
  PAW double counting   =      1193.15788873    -1079.99237720
  entropy T*S    EENTRO =        -0.00000000
  eigenvalues    EBANDS =      -315.09583999
  atomic energy  EATOM  =      1448.49460871
  Solvation  Ediel_sol  =         0.00000000
  ---------------------------------------------------
  free energy    TOTEN  =       -32.47650085 eV

  energy without entropy =      -32.47650085  energy(sigma->0) =      -32.47650085


--------------------------------------------------------------------------------------------------------




--------------------------------------- Iteration      1(   6)  ---------------------------------------


    POTLOK:  cpu time      0.2469: real time      0.2493
    SETDIJ:  cpu time      1.1311: real time      1.1331
     EDDAV:  cpu time     34.6690: real time     34.9761
       DOS:  cpu time      0.0020: real time      0.0020
    CHARGE:  cpu time      0.4169: real time      0.4197
    MIXING:  cpu time      0.0098: real time      0.0098
    --------------------------------------------
      LOOP:  cpu time     36.4756: real time     36.7900

 eigenvalue-minimisations  : 31520
 total energy-change (2. order) : 0.8240724E+01  (-0.4589152E+00)
 number of electron      40.0000001 magnetization       6.7242815
 augmentation part       -7.4628331 magnetization       6.9367481

 Broyden mixing:
  rms(total) = 0.63033E+00    rms(broyden)= 0.63033E+00
  rms(prec ) = 0.63735E+00
  weight for this iteration     100.00

 eigenvalues of (default mixing * dielectric matrix)
  average eigenvalue GAMMA=   1.0467
  1.0467

 Free energy of the ion-electron system (eV)
  ---------------------------------------------------
  alpha Z        PSCENC =        33.35895425
  Ewald energy   TEWEN  =       968.87234337
  -Hartree energ DENC   =     -2258.85112445
  -exchange      EXHF   =         0.00000000
  -V(xc)+E(xc)   XCENC  =       -27.49059644
  PAW double counting   =      1450.41463568    -1337.66711846
  entropy T*S    EENTRO =        -0.00000000
  eigenvalues    EBANDS =      -301.36747979
  atomic energy  EATOM  =      1448.49460871
  Solvation  Ediel_sol  =         0.00000000
  ---------------------------------------------------
  free energy    TOTEN  =       -24.23577714 eV

  energy without entropy =      -24.23577714  energy(sigma->0) =      -24.23577714


--------------------------------------------------------------------------------------------------------




--------------------------------------- Iteration      1(   7)  ---------------------------------------


    POTLOK:  cpu time      0.2401: real time      0.2418
    SETDIJ:  cpu time      1.1403: real time      1.1424
     EDDAV:  cpu time     34.9479: real time     35.2629
       DOS:  cpu time      0.0020: real time      0.0020
    CHARGE:  cpu time      0.4154: real time      0.4186
    MIXING:  cpu time      0.0102: real time      0.0102
    --------------------------------------------
      LOOP:  cpu time     36.7558: real time     37.0778

 eigenvalue-minimisations  : 31920
 total energy-change (2. order) : 0.1087325E+01  (-0.9105614E-01)
 number of electron      40.0000001 magnetization       5.6757879
 augmentation part       -7.4401139 magnetization       5.9011305

 Broyden mixing:
  rms(total) = 0.43015E+00    rms(broyden)= 0.43015E+00
  rms(prec ) = 0.43435E+00
  weight for this iteration     100.00

 eigenvalues of (default mixing * dielectric matrix)
  average eigenvalue GAMMA=   1.4262
  0.8575  1.9950

 Free energy of the ion-electron system (eV)
  ---------------------------------------------------
  alpha Z        PSCENC =        33.35895425
  Ewald energy   TEWEN  =       968.87234337
  -Hartree energ DENC   =     -2271.03505121
  -exchange      EXHF   =         0.00000000
  -V(xc)+E(xc)   XCENC  =       -26.30585265
  PAW double counting   =      1706.53865825    -1594.04223585
  entropy T*S    EENTRO =        -0.00000000
  eigenvalues    EBANDS =      -289.02987722
  atomic energy  EATOM  =      1448.49460871
  Solvation  Ediel_sol  =         0.00000000
  ---------------------------------------------------
  free energy    TOTEN  =       -23.14845236 eV

  energy without entropy =      -23.14845236  energy(sigma->0) =      -23.14845236


--------------------------------------------------------------------------------------------------------




--------------------------------------- Iteration      1(   8)  ---------------------------------------


    POTLOK:  cpu time      0.2409: real time      0.2425
    SETDIJ:  cpu time      1.1352: real time      1.1375
     EDDAV:  cpu time     36.7668: real time     37.1095
       DOS:  cpu time      0.0020: real time      0.0020
    CHARGE:  cpu time      0.4165: real time      0.4185
    MIXING:  cpu time      0.0098: real time      0.0099
    --------------------------------------------
      LOOP:  cpu time     38.5711: real time     38.9199

 eigenvalue-minimisations  : 34032
 total energy-change (2. order) :-0.1226579E+01  (-0.2336334E-01)
 number of electron      40.0000001 magnetization       5.0519605
 augmentation part       -7.4101247 magnetization       5.2766493

 Broyden mixing:
  rms(total) = 0.27956E+00    rms(broyden)= 0.27956E+00
  rms(prec ) = 0.28087E+00
  weight for this iteration     100.00

 eigenvalues of (default mixing * dielectric matrix)
  average eigenvalue GAMMA=   1.4619
  2.6211  1.0607  0.7039

 Free energy of the ion-electron system (eV)
  ---------------------------------------------------
  alpha Z        PSCENC =        33.35895425
  Ewald energy   TEWEN  =       968.87234337
  -Hartree energ DENC   =     -2284.59817454
  -exchange      EXHF   =         0.00000000
  -V(xc)+E(xc)   XCENC  =       -26.84713625
  PAW double counting   =      1964.59440813    -1852.23011957
  entropy T*S    EENTRO =        -0.00000000
  eigenvalues    EBANDS =      -276.01991547
  atomic energy  EATOM  =      1448.49460871
  Solvation  Ediel_sol  =         0.00000000
  ---------------------------------------------------
  free energy    TOTEN  =       -24.37503137 eV

  energy without entropy =      -24.37503137  energy(sigma->0) =      -24.37503137


--------------------------------------------------------------------------------------------------------




--------------------------------------- Iteration      1(   9)  ---------------------------------------


    POTLOK:  cpu time      0.2403: real time      0.2415
    SETDIJ:  cpu time      1.1304: real time      1.1324
     EDDAV:  cpu time     35.2138: real time     35.5291
       DOS:  cpu time      0.0020: real time      0.0020
    CHARGE:  cpu time      0.4174: real time      0.4201
    MIXING:  cpu time      0.0100: real time      0.0103
    --------------------------------------------
      LOOP:  cpu time     37.0139: real time     37.3353

 eigenvalue-minimisations  : 32144
 total energy-change (2. order) :-0.1883880E+01  (-0.1990022E-01)
 number of electron      40.0000001 magnetization       4.0480278
 augmentation part       -7.3871224 magnetization       4.2363250

 Broyden mixing:
  rms(total) = 0.23621E+00    rms(broyden)= 0.23621E+00
  rms(prec ) = 0.23699E+00
  weight for this iteration     100.00

 eigenvalues of (default mixing * dielectric matrix)
  average eigenvalue GAMMA=   1.4801
  2.6907  1.6640  0.8991  0.6667

 Free energy of the ion-electron system (eV)
  ---------------------------------------------------
  alpha Z        PSCENC =        33.35895425
  Ewald energy   TEWEN  =       968.87234337
  -Hartree energ DENC   =     -2289.04173034
  -exchange      EXHF   =         0.00000000
  -V(xc)+E(xc)   XCENC  =       -27.95871942
  PAW double counting   =      1998.71255842    -1886.39988019
  entropy T*S    EENTRO =        -0.00000000
  eigenvalues    EBANDS =      -272.29704621
  atomic energy  EATOM  =      1448.49460871
  Solvation  Ediel_sol  =         0.00000000
  ---------------------------------------------------
  free energy    TOTEN  =       -26.25891143 eV

  energy without entropy =      -26.25891143  energy(sigma->0) =      -26.25891143


--------------------------------------------------------------------------------------------------------




--------------------------------------- Iteration      1(  10)  ---------------------------------------


    POTLOK:  cpu time      0.2394: real time      0.2418
    SETDIJ:  cpu time      1.1314: real time      1.1346
     EDDAV:  cpu time     34.6516: real time     34.9630
       DOS:  cpu time      0.0020: real time      0.0020
    CHARGE:  cpu time      0.4202: real time      0.4222
    MIXING:  cpu time      0.0103: real time      0.0104
    --------------------------------------------
      LOOP:  cpu time     36.4549: real time     36.7740

 eigenvalue-minimisations  : 31568
 total energy-change (2. order) :-0.2857773E+01  (-0.5980318E-01)
 number of electron      40.0000001 magnetization       2.7549642
 augmentation part       -7.3644034 magnetization       2.8789197

 Broyden mixing:
  rms(total) = 0.18529E+00    rms(broyden)= 0.18529E+00
  rms(prec ) = 0.18591E+00
  weight for this iteration     100.00

 eigenvalues of (default mixing * dielectric matrix)
  average eigenvalue GAMMA=   1.7181
  3.5565  2.5703  1.0154  0.8167  0.6314

 Free energy of the ion-electron system (eV)
  ---------------------------------------------------
  alpha Z        PSCENC =        33.35895425
  Ewald energy   TEWEN  =       968.87234337
  -Hartree energ DENC   =     -2292.18489715
  -exchange      EXHF   =         0.00000000
  -V(xc)+E(xc)   XCENC  =       -29.69172938
  PAW double counting   =      1963.71060100    -1851.33062689
  entropy T*S    EENTRO =        -0.00000000
  eigenvalues    EBANDS =      -270.34593817
  atomic energy  EATOM  =      1448.49460871
  Solvation  Ediel_sol  =         0.00000000
  ---------------------------------------------------
  free energy    TOTEN  =       -29.11668427 eV

  energy without entropy =      -29.11668427  energy(sigma->0) =      -29.11668427


--------------------------------------------------------------------------------------------------------




--------------------------------------- Iteration      1(  11)  ---------------------------------------


    POTLOK:  cpu time      0.2391: real time      0.2405
    SETDIJ:  cpu time      1.1297: real time      1.1319
     EDDAV:  cpu time     34.7112: real time     35.0171
       DOS:  cpu time      0.0020: real time      0.0020
    CHARGE:  cpu time      0.4139: real time      0.4160
    MIXING:  cpu time      0.0100: real time      0.0100
    --------------------------------------------
      LOOP:  cpu time     36.5058: real time     36.8175

 eigenvalue-minimisations  : 31504
 total energy-change (2. order) :-0.2399657E+01  (-0.4734818E-01)
 number of electron      40.0000001 magnetization       1.7579012
 augmentation part       -7.3464494 magnetization       1.8227329

 Broyden mixing:
  rms(total) = 0.13465E+00    rms(broyden)= 0.13465E+00
  rms(prec ) = 0.13587E+00
  weight for this iteration     100.00

 eigenvalues of (default mixing * dielectric matrix)
  average eigenvalue GAMMA=   1.8571
  4.8285  2.6722  1.2703  0.9882  0.7588  0.6243

 Free energy of the ion-electron system (eV)
  ---------------------------------------------------
  alpha Z        PSCENC =        33.35895425
  Ewald energy   TEWEN  =       968.87234337
  -Hartree energ DENC   =     -2294.25524427
  -exchange      EXHF   =         0.00000000
  -V(xc)+E(xc)   XCENC  =       -31.18929233
  PAW double counting   =      1923.35637473    -1810.93553048
  entropy T*S    EENTRO =        -0.00000000
  eigenvalues    EBANDS =      -269.21855537
  atomic energy  EATOM  =      1448.49460871
  Solvation  Ediel_sol  =         0.00000000
  ---------------------------------------------------
  free energy    TOTEN  =       -31.51634139 eV

  energy without entropy =      -31.51634139  energy(sigma->0) =      -31.51634139


--------------------------------------------------------------------------------------------------------




--------------------------------------- Iteration      1(  12)  ---------------------------------------


    POTLOK:  cpu time      0.2423: real time      0.2442
    SETDIJ:  cpu time      1.1291: real time      1.1319
     EDDAV:  cpu time     35.5756: real time     35.9076
       DOS:  cpu time      0.0022: real time      0.0022
    CHARGE:  cpu time      0.4149: real time      0.4176
    MIXING:  cpu time      0.0104: real time      0.0104
    --------------------------------------------
      LOOP:  cpu time     37.3745: real time     37.7139

 eigenvalue-minimisations  : 32544
 total energy-change (2. order) :-0.9351073E+00  (-0.1339249E-01)
 number of electron      40.0000001 magnetization       0.7290168
 augmentation part       -7.3430940 magnetization       0.7585673

 Broyden mixing:
  rms(total) = 0.93228E-01    rms(broyden)= 0.93228E-01
  rms(prec ) = 0.94596E-01
  weight for this iteration     100.00

 eigenvalues of (default mixing * dielectric matrix)
  average eigenvalue GAMMA=   2.1420
  6.9028  2.8173  2.0061  1.0470  0.8714  0.7280  0.6213

 Free energy of the ion-electron system (eV)
  ---------------------------------------------------
  alpha Z        PSCENC =        33.35895425
  Ewald energy   TEWEN  =       968.87234337
  -Hartree energ DENC   =     -2292.88456336
  -exchange      EXHF   =         0.00000000
  -V(xc)+E(xc)   XCENC  =       -31.85733234
  PAW double counting   =      1900.76801062    -1788.32804018
  entropy T*S    EENTRO =        -0.00000000
  eigenvalues    EBANDS =      -270.87542972
  atomic energy  EATOM  =      1448.49460871
  Solvation  Ediel_sol  =         0.00000000
  ---------------------------------------------------
  free energy    TOTEN  =       -32.45144867 eV

  energy without entropy =      -32.45144867  energy(sigma->0) =      -32.45144867


--------------------------------------------------------------------------------------------------------




--------------------------------------- Iteration      1(  13)  ---------------------------------------


    POTLOK:  cpu time      0.2372: real time      0.2387
    SETDIJ:  cpu time      1.1223: real time      1.1310
     EDDAV:  cpu time     35.0350: real time     35.3563
       DOS:  cpu time      0.0020: real time      0.0020
    CHARGE:  cpu time      0.4152: real time      0.4178
    MIXING:  cpu time      0.0101: real time      0.0102
    --------------------------------------------
      LOOP:  cpu time     36.8217: real time     37.1558

 eigenvalue-minimisations  : 32016
 total energy-change (2. order) :-0.1736591E+00  (-0.7234455E-02)
 number of electron      40.0000001 magnetization       0.3173026
 augmentation part       -7.3468635 magnetization       0.3274695

 Broyden mixing:
  rms(total) = 0.49916E-01    rms(broyden)= 0.49916E-01
  rms(prec ) = 0.51671E-01
  weight for this iteration     100.00

 eigenvalues of (default mixing * dielectric matrix)
  average eigenvalue GAMMA=   2.3861
  9.4957  2.9733  2.4236  1.1465  0.9881  0.7631  0.6257  0.6724

 Free energy of the ion-electron system (eV)
  ---------------------------------------------------
  alpha Z        PSCENC =        33.35895425
  Ewald energy   TEWEN  =       968.87234337
  -Hartree energ DENC   =     -2289.64557785
  -exchange      EXHF   =         0.00000000
  -V(xc)+E(xc)   XCENC  =       -32.00703042
  PAW double counting   =      1891.69396370    -1779.24978525
  entropy T*S    EENTRO =        -0.00000000
  eigenvalues    EBANDS =      -274.14258432
  atomic energy  EATOM  =      1448.49460871
  Solvation  Ediel_sol  =         0.00000000
  ---------------------------------------------------
  free energy    TOTEN  =       -32.62510781 eV

  energy without entropy =      -32.62510781  energy(sigma->0) =      -32.62510781


--------------------------------------------------------------------------------------------------------




--------------------------------------- Iteration      1(  14)  ---------------------------------------


    POTLOK:  cpu time      0.2413: real time      0.2431
    SETDIJ:  cpu time      1.1288: real time      1.1313
     EDDAV:  cpu time     35.0065: real time     35.3400
       DOS:  cpu time      0.0020: real time      0.0020
    CHARGE:  cpu time      0.4172: real time      0.4203
    MIXING:  cpu time      0.0105: real time      0.0105
    --------------------------------------------
      LOOP:  cpu time     36.8063: real time     37.1473

 eigenvalue-minimisations  : 32048
 total energy-change (2. order) :-0.1436465E+00  (-0.1630401E-02)
 number of electron      40.0000001 magnetization       0.1101147
 augmentation part       -7.3467405 magnetization       0.1151496

 Broyden mixing:
  rms(total) = 0.27676E-01    rms(broyden)= 0.27676E-01
  rms(prec ) = 0.30036E-01
  weight for this iteration     100.00

 eigenvalues of (default mixing * dielectric matrix)
  average eigenvalue GAMMA=   2.5982
 12.0221  3.2632  2.6665  1.5208  1.0378  0.8739  0.7472  0.6260  0.6260

 Free energy of the ion-electron system (eV)
  ---------------------------------------------------
  alpha Z        PSCENC =        33.35895425
  Ewald energy   TEWEN  =       968.87234337
  -Hartree energ DENC   =     -2287.91008454
  -exchange      EXHF   =         0.00000000
  -V(xc)+E(xc)   XCENC  =       -32.16339240
  PAW double counting   =      1899.31348545    -1786.87651214
  entropy T*S    EENTRO =        -0.00000000
  eigenvalues    EBANDS =      -275.85815703
  atomic energy  EATOM  =      1448.49460871
  Solvation  Ediel_sol  =         0.00000000
  ---------------------------------------------------
  free energy    TOTEN  =       -32.76875434 eV

  energy without entropy =      -32.76875434  energy(sigma->0) =      -32.76875434


--------------------------------------------------------------------------------------------------------




--------------------------------------- Iteration      1(  15)  ---------------------------------------


    POTLOK:  cpu time      0.2384: real time      0.2398
    SETDIJ:  cpu time      1.1268: real time      1.1293
     EDDAV:  cpu time     34.0939: real time     34.4097
       DOS:  cpu time      0.0020: real time      0.0020
    CHARGE:  cpu time      0.4132: real time      0.4161
    MIXING:  cpu time      0.0106: real time      0.0106
    --------------------------------------------
      LOOP:  cpu time     35.8849: real time     36.2074

 eigenvalue-minimisations  : 30640
 total energy-change (2. order) :-0.5977920E+00  (-0.3880234E-03)
 number of electron      40.0000001 magnetization       0.0317027
 augmentation part       -7.3442461 magnetization       0.0339831

 Broyden mixing:
  rms(total) = 0.12636E-01    rms(broyden)= 0.12636E-01
  rms(prec ) = 0.15697E-01
  weight for this iteration     100.00

 eigenvalues of (default mixing * dielectric matrix)
  average eigenvalue GAMMA=   2.6481
 13.3447  3.5764  2.6793  1.9439  1.0690  1.0690  0.7928  0.7595  0.6234  0.6234

 Free energy of the ion-electron system (eV)
  ---------------------------------------------------
  alpha Z        PSCENC =        33.35895425
  Ewald energy   TEWEN  =       968.87234337
  -Hartree energ DENC   =     -2286.26677787
  -exchange      EXHF   =         0.00000000
  -V(xc)+E(xc)   XCENC  =       -32.77289559
  PAW double counting   =      1907.38333320    -1794.95346805
  entropy T*S    EENTRO =        -0.00000000
  eigenvalues    EBANDS =      -277.48264440
  atomic energy  EATOM  =      1448.49460871
  Solvation  Ediel_sol  =         0.00000000
  ---------------------------------------------------
  free energy    TOTEN  =       -33.36654639 eV

  energy without entropy =      -33.36654639  energy(sigma->0) =      -33.36654639


--------------------------------------------------------------------------------------------------------




--------------------------------------- Iteration      1(  16)  ---------------------------------------


    POTLOK:  cpu time      0.2222: real time      0.2239
    SETDIJ:  cpu time      1.1343: real time      1.1368
     EDDAV:  cpu time     35.4044: real time     35.7325
       DOS:  cpu time      0.0020: real time      0.0020
    CHARGE:  cpu time      0.4138: real time      0.4167
    MIXING:  cpu time      0.0108: real time      0.0108
    --------------------------------------------
      LOOP:  cpu time     37.1874: real time     37.5227

 eigenvalue-minimisations  : 32496
 total energy-change (2. order) :-0.1482404E+00  (-0.2167793E-03)
 number of electron      40.0000001 magnetization       0.0130579
 augmentation part       -7.3438593 magnetization       0.0135680

 Broyden mixing:
  rms(total) = 0.60156E-02    rms(broyden)= 0.60156E-02
  rms(prec ) = 0.92707E-02
  weight for this iteration     100.00

 eigenvalues of (default mixing * dielectric matrix)
  average eigenvalue GAMMA=   2.6082
 13.8539  3.7746  2.5927  2.4613  1.3140  1.0375  0.9300  0.7711  0.7066  0.6241
  0.6241

 Free energy of the ion-electron system (eV)
  ---------------------------------------------------
  alpha Z        PSCENC =        33.35895425
  Ewald energy   TEWEN  =       968.87234337
  -Hartree energ DENC   =     -2284.69526607
  -exchange      EXHF   =         0.00000000
  -V(xc)+E(xc)   XCENC  =       -32.93985367
  PAW double counting   =      1909.17034034    -1796.74091869
  entropy T*S    EENTRO =        -0.00000000
  eigenvalues    EBANDS =      -279.03499506
  atomic energy  EATOM  =      1448.49460871
  Solvation  Ediel_sol  =         0.00000000
  ---------------------------------------------------
  free energy    TOTEN  =       -33.51478682 eV

  energy without entropy =      -33.51478682  energy(sigma->0) =      -33.51478682


--------------------------------------------------------------------------------------------------------




--------------------------------------- Iteration      1(  17)  ---------------------------------------


    POTLOK:  cpu time      0.2222: real time      0.2236
    SETDIJ:  cpu time      1.1337: real time      1.1362
     EDDAV:  cpu time     35.7890: real time     36.1418
       DOS:  cpu time      0.0020: real time      0.0020
    CHARGE:  cpu time      0.4200: real time      0.4234
    MIXING:  cpu time      0.0110: real time      0.0110
    --------------------------------------------
      LOOP:  cpu time     37.5778: real time     37.9381

 eigenvalue-minimisations  : 32864
 total energy-change (2. order) :-0.3803610E-02  (-0.4371897E-04)
 number of electron      40.0000001 magnetization       0.0063174
 augmentation part       -7.3443440 magnetization       0.0065696

 Broyden mixing:
  rms(total) = 0.36197E-02    rms(broyden)= 0.36197E-02
  rms(prec ) = 0.64812E-02
  weight for this iteration     100.00

 eigenvalues of (default mixing * dielectric matrix)
  average eigenvalue GAMMA=   2.5347
 13.9308  3.8725  2.8027  2.5351  1.5928  1.0411  1.0411  0.8939  0.7771  0.6836
  0.6297  0.6159

 Free energy of the ion-electron system (eV)
  ---------------------------------------------------
  alpha Z        PSCENC =        33.35895425
  Ewald energy   TEWEN  =       968.87234337
  -Hartree energ DENC   =     -2283.60109076
  -exchange      EXHF   =         0.00000000
  -V(xc)+E(xc)   XCENC  =       -32.95344520
  PAW double counting   =      1910.21686030    -1797.78689542
  entropy T*S    EENTRO =        -0.00000000
  eigenvalues    EBANDS =      -280.11992568
  atomic energy  EATOM  =      1448.49460871
  Solvation  Ediel_sol  =         0.00000000
  ---------------------------------------------------
  free energy    TOTEN  =       -33.51859043 eV

  energy without entropy =      -33.51859043  energy(sigma->0) =      -33.51859043


--------------------------------------------------------------------------------------------------------




--------------------------------------- Iteration      1(  18)  ---------------------------------------


    POTLOK:  cpu time      0.2237: real time      0.2257
    SETDIJ:  cpu time      1.1312: real time      1.1337
     EDDAV:  cpu time     35.2562: real time     35.5808
       DOS:  cpu time      0.0020: real time      0.0020
    CHARGE:  cpu time      0.4146: real time      0.4172
    MIXING:  cpu time      0.0111: real time      0.0112
    --------------------------------------------
      LOOP:  cpu time     37.0388: real time     37.3706

 eigenvalue-minimisations  : 32032
 total energy-change (2. order) :-0.9241015E-03  (-0.1990843E-04)
 number of electron      40.0000001 magnetization       0.0026652
 augmentation part       -7.3451266 magnetization       0.0028882

 Broyden mixing:
  rms(total) = 0.23074E-02    rms(broyden)= 0.23074E-02
  rms(prec ) = 0.41832E-02
  weight for this iteration     100.00

 eigenvalues of (default mixing * dielectric matrix)
  average eigenvalue GAMMA=   2.4845
 13.9856  4.0166  3.0979  2.6060  1.8973  1.1904  1.0473  0.9556  0.8224  0.7616
  0.6756  0.6326  0.6102

 Free energy of the ion-electron system (eV)
  ---------------------------------------------------
  alpha Z        PSCENC =        33.35895425
  Ewald energy   TEWEN  =       968.87234337
  -Hartree energ DENC   =     -2282.30473776
  -exchange      EXHF   =         0.00000000
  -V(xc)+E(xc)   XCENC  =       -32.96663259
  PAW double counting   =      1911.08065656    -1798.65074014
  entropy T*S    EENTRO =        -0.00000000
  eigenvalues    EBANDS =      -281.40396692
  atomic energy  EATOM  =      1448.49460871
  Solvation  Ediel_sol  =         0.00000000
  ---------------------------------------------------
  free energy    TOTEN  =       -33.51951453 eV

  energy without entropy =      -33.51951453  energy(sigma->0) =      -33.51951453


--------------------------------------------------------------------------------------------------------




--------------------------------------- Iteration      1(  19)  ---------------------------------------


    POTLOK:  cpu time      0.2252: real time      0.2266
    SETDIJ:  cpu time      1.1328: real time      1.1348
     EDDAV:  cpu time     35.3916: real time     35.6979
       DOS:  cpu time      0.0020: real time      0.0020
    CHARGE:  cpu time      0.4171: real time      0.4202
    MIXING:  cpu time      0.0111: real time      0.0112
    --------------------------------------------
      LOOP:  cpu time     37.1798: real time     37.4927

 eigenvalue-minimisations  : 32432
 total energy-change (2. order) :-0.2429526E-04  (-0.6704248E-05)
 number of electron      40.0000001 magnetization       0.0009000
 augmentation part       -7.3458503 magnetization       0.0010505

 Broyden mixing:
  rms(total) = 0.17453E-02    rms(broyden)= 0.17453E-02
  rms(prec ) = 0.28673E-02
  weight for this iteration     100.00

 eigenvalues of (default mixing * dielectric matrix)
  average eigenvalue GAMMA=   2.4410
 13.9982  4.2001  3.3794  2.5339  2.0808  1.4951  1.0779  1.0779  0.9090  0.8000
  0.7092  0.6714  0.6323  0.6086

 Free energy of the ion-electron system (eV)
  ---------------------------------------------------
  alpha Z        PSCENC =        33.35895425
  Ewald energy   TEWEN  =       968.87234337
  -Hartree energ DENC   =     -2281.41553194
  -exchange      EXHF   =         0.00000000
  -V(xc)+E(xc)   XCENC  =       -32.97805197
  PAW double counting   =      1910.84225358    -1798.41262638
  entropy T*S    EENTRO =        -0.00000000
  eigenvalues    EBANDS =      -282.28148844
  atomic energy  EATOM  =      1448.49460871
  Solvation  Ediel_sol  =         0.00000000
  ---------------------------------------------------
  free energy    TOTEN  =       -33.51953883 eV

  energy without entropy =      -33.51953883  energy(sigma->0) =      -33.51953883


--------------------------------------------------------------------------------------------------------




--------------------------------------- Iteration      1(  20)  ---------------------------------------


    POTLOK:  cpu time      0.2267: real time      0.2282
    SETDIJ:  cpu time      1.1320: real time      1.1348
     EDDAV:  cpu time     34.8657: real time     35.1591
       DOS:  cpu time      0.0020: real time      0.0020
    CHARGE:  cpu time      0.4122: real time      0.4139
    MIXING:  cpu time      0.0113: real time      0.0113
    --------------------------------------------
      LOOP:  cpu time     36.6498: real time     36.9493

 eigenvalue-minimisations  : 31760
 total energy-change (2. order) : 0.3528360E-04  (-0.4054095E-05)
 number of electron      40.0000001 magnetization       0.0005627
 augmentation part       -7.3463658 magnetization       0.0006533

 Broyden mixing:
  rms(total) = 0.10945E-02    rms(broyden)= 0.10945E-02
  rms(prec ) = 0.15679E-02
  weight for this iteration     100.00

 eigenvalues of (default mixing * dielectric matrix)
  average eigenvalue GAMMA=   2.4669
 14.0037  4.8672  3.7556  2.5319  2.5319  1.8729  1.1691  1.0249  1.0249  0.8336
  0.8032  0.6935  0.6089  0.6489  0.6329

 Free energy of the ion-electron system (eV)
  ---------------------------------------------------
  alpha Z        PSCENC =        33.35895425
  Ewald energy   TEWEN  =       968.87234337
  -Hartree energ DENC   =     -2280.58833608
  -exchange      EXHF   =         0.00000000
  -V(xc)+E(xc)   XCENC  =       -32.98949391
  PAW double counting   =      1910.74498744    -1798.31649177
  entropy T*S    EENTRO =        -0.00000000
  eigenvalues    EBANDS =      -283.09607554
  atomic energy  EATOM  =      1448.49460871
  Solvation  Ediel_sol  =         0.00000000
  ---------------------------------------------------
  free energy    TOTEN  =       -33.51950354 eV

  energy without entropy =      -33.51950354  energy(sigma->0) =      -33.51950354


--------------------------------------------------------------------------------------------------------




--------------------------------------- Iteration      1(  21)  ---------------------------------------


    POTLOK:  cpu time      0.2272: real time      0.2283
    SETDIJ:  cpu time      1.1315: real time      1.1335
     EDDAV:  cpu time     35.2193: real time     35.5352
       DOS:  cpu time      0.0020: real time      0.0020
    CHARGE:  cpu time      0.4171: real time      0.4196
    MIXING:  cpu time      0.0117: real time      0.0118
    --------------------------------------------
      LOOP:  cpu time     37.0088: real time     37.3305

 eigenvalue-minimisations  : 32176
 total energy-change (2. order) : 0.1830400E-04  (-0.1706684E-05)
 number of electron      40.0000001 magnetization       0.0004030
 augmentation part       -7.3466078 magnetization       0.0004077

 Broyden mixing:
  rms(total) = 0.59986E-03    rms(broyden)= 0.59986E-03
  rms(prec ) = 0.76987E-03
  weight for this iteration     100.00

 eigenvalues of (default mixing * dielectric matrix)
  average eigenvalue GAMMA=   2.5213
 14.0046  6.4473  3.9130  2.7378  2.7378  1.9612  1.3522  1.0435  1.0435  0.9441
  0.8187  0.7783  0.6928  0.6086  0.6292  0.6292

 Free energy of the ion-electron system (eV)
  ---------------------------------------------------
  alpha Z        PSCENC =        33.35895425
  Ewald energy   TEWEN  =       968.87234337
  -Hartree energ DENC   =     -2280.14455009
  -exchange      EXHF   =         0.00000000
  -V(xc)+E(xc)   XCENC  =       -32.99525253
  PAW double counting   =      1910.75638278    -1798.32862286
  entropy T*S    EENTRO =        -0.00000000
  eigenvalues    EBANDS =      -283.53334886
  atomic energy  EATOM  =      1448.49460871
  Solvation  Ediel_sol  =         0.00000000
  ---------------------------------------------------
  free energy    TOTEN  =       -33.51948524 eV

  energy without entropy =      -33.51948524  energy(sigma->0) =      -33.51948524


--------------------------------------------------------------------------------------------------------




--------------------------------------- Iteration      1(  22)  ---------------------------------------


    POTLOK:  cpu time      0.2332: real time      0.2421
    SETDIJ:  cpu time      1.1231: real time      1.1253
     EDDAV:  cpu time     35.4419: real time     35.7397
       DOS:  cpu time      0.0020: real time      0.0020
    CHARGE:  cpu time      0.4144: real time      0.4166
    MIXING:  cpu time      0.0117: real time      0.0119
    --------------------------------------------
      LOOP:  cpu time     37.2264: real time     37.5376

 eigenvalue-minimisations  : 32512
 total energy-change (2. order) :-0.9092696E-05  (-0.4143494E-06)
 number of electron      40.0000001 magnetization       0.0001691
 augmentation part       -7.3466900 magnetization       0.0001776

 Broyden mixing:
  rms(total) = 0.34178E-03    rms(broyden)= 0.34178E-03
  rms(prec ) = 0.42849E-03
  weight for this iteration     100.00

 eigenvalues of (default mixing * dielectric matrix)
  average eigenvalue GAMMA=   2.5445
 14.0123  7.5674  3.9699  2.8282  2.8282  2.0979  1.6947  1.1899  1.0406  1.0406
  0.8810  0.8036  0.7505  0.6908  0.6290  0.6107  0.6214

 Free energy of the ion-electron system (eV)
  ---------------------------------------------------
  alpha Z        PSCENC =        33.35895425
  Ewald energy   TEWEN  =       968.87234337
  -Hartree energ DENC   =     -2280.01482576
  -exchange      EXHF   =         0.00000000
  -V(xc)+E(xc)   XCENC  =       -32.99696522
  PAW double counting   =      1910.70733239    -1798.27960887
  entropy T*S    EENTRO =        -0.00000000
  eigenvalues    EBANDS =      -283.66133319
  atomic energy  EATOM  =      1448.49460871
  Solvation  Ediel_sol  =         0.00000000
  ---------------------------------------------------
  free energy    TOTEN  =       -33.51949433 eV

  energy without entropy =      -33.51949433  energy(sigma->0) =      -33.51949433


--------------------------------------------------------------------------------------------------------




[...]
     50       7.5740      0.00000
     51       7.5741      0.00000
     52       7.5741      0.00000
     53       8.0074      0.00000
     54       8.0074      0.00000
     55       8.0075      0.00000
     56       8.0075      0.00000
     57       8.8401      0.00000
     58       8.8401      0.00000
     59       8.8401      0.00000
     60       8.8401      0.00000
     61       9.1168      0.00000
     62       9.1168      0.00000
     63       9.1169      0.00000
     64       9.1169      0.00000
     65       9.9181      0.00000
     66       9.9181      0.00000
     67       9.9182      0.00000
     68       9.9182      0.00000
     69      10.4973      0.00000
     70      10.4974      0.00000
     71      10.4974      0.00000
     72      10.4974      0.00000
     73      11.7014      0.00000
     74      11.7014      0.00000
     75      11.7015      0.00000
     76      11.7015      0.00000
     77      12.0943      0.00000
     78      12.0943      0.00000
     79      12.0943      0.00000
     80      12.0943      0.00000
     81      12.5448      0.00000
     82      12.5448      0.00000
     83      12.5448      0.00000
     84      12.5448      0.00000
     85      12.8574      0.00000
     86      12.8574      0.00000
     87      12.8574      0.00000
     88      12.8574      0.00000
     89      13.9507      0.00000
     90      13.9507      0.00000
     91      13.9507      0.00000
     92      13.9508      0.00000
     93      14.4888      0.00000
     94      14.4888      0.00000
     95      14.4888      0.00000
     96      14.4888      0.00000
     97      15.1007      0.00000
     98      15.1007      0.00000
     99      15.1007      0.00000
    100      15.1007      0.00000
    101      15.7196      0.00000
    102      15.7196      0.00000
    103      15.7196      0.00000
    104      15.7196      0.00000
    105      16.6314      0.00000
    106      16.6314      0.00000
    107      16.6314      0.00000
    108      16.6314      0.00000
    109      16.8265      0.00000
    110      16.8265      0.00000
    111      16.8266      0.00000
    112      16.8266      0.00000
    113      17.3783      0.00000
    114      17.3783      0.00000
    115      17.3784      0.00000
    116      17.3784      0.00000
    117      17.9605      0.00000
    118      17.9605      0.00000
    119      17.9605      0.00000
    120      17.9605      0.00000
    121      18.8444      0.00000
    122      18.8444      0.00000
    123      18.8444      0.00000
    124      18.8444      0.00000
    125      19.6324      0.00000
    126      19.6324      0.00000
    127      19.6324      0.00000
    128      19.6324      0.00000
    129      20.6650      0.00000
    130      20.6650      0.00000
    131      20.6650      0.00000
    132      20.6650      0.00000
    133      20.8695      0.00000
    134      20.8695      0.00000
    135      20.8695      0.00000
    136      20.8695      0.00000
    137      21.2206      0.00000
    138      21.2206      0.00000
    139      21.2207      0.00000
    140      21.2207      0.00000
    141      21.5416      0.00000
    142      21.5416      0.00000
    143      21.5417      0.00000
    144      21.5417      0.00000
    145      21.9234      0.00000
    146      21.9234      0.00000
    147      21.9234      0.00000
    148      21.9234      0.00000
    149      22.1760      0.00000
    150      22.1760      0.00000
    151      22.1761      0.00000
    152      22.1761      0.00000
    153      22.5524      0.00000
    154      22.5524      0.00000
    155      22.5524      0.00000
    156      22.5524      0.00000
    157      22.8224      0.00000
    158      22.8224      0.00000
    159      22.8225      0.00000
    160      22.8225      0.00000
    161      23.8436      0.00000
    162      23.8436      0.00000
    163      23.8436      0.00000
    164      23.8436      0.00000
    165      23.9817      0.00000
    166      23.9817      0.00000
    167      23.9817      0.00000
    168      23.9817      0.00000
    169      24.2818      0.00000
    170      24.2818      0.00000
    171      24.2818      0.00000
    172      24.2818      0.00000
    173      24.6334      0.00000
    174      24.6334      0.00000
    175      24.6334      0.00000
    176      24.6334      0.00000
    177      25.0073      0.00000
    178      25.0073      0.00000
    179      25.0073      0.00000
    180      25.0073      0.00000
    181      25.2928      0.00000
    182      25.2928      0.00000
    183      25.2929      0.00000
    184      25.2929      0.00000
    185      25.8011      0.00000
    186      25.8011      0.00000
    187      25.8012      0.00000
    188      25.8012      0.00000
    189      26.1921      0.00000
    190      26.1921      0.00000
    191      26.1921      0.00000
    192      26.1921      0.00000
    193      26.3700      0.00000
    194      26.3700      0.00000
    195      26.3700      0.00000
    196      26.3700      0.00000
    197      26.8131      0.00000
    198      26.8131      0.00000
    199      26.8131      0.00000
    200      26.8131      0.00000
    201      27.1506      0.00000
    202      27.1507      0.00000
    203      27.1507      0.00000
    204      27.1507      0.00000
    205      27.3681      0.00000
    206      27.3681      0.00000
    207      27.3682      0.00000
    208      27.3682      0.00000
    209      27.5206      0.00000
    210      27.5206      0.00000
    211      27.5206      0.00000
    212      27.5206      0.00000
    213      28.1942      0.00000
    214      28.1942      0.00000
    215      28.1942      0.00000
    216      28.1942      0.00000
    217      28.2619      0.00000
    218      28.2619      0.00000
    219      28.2619      0.00000
    220      28.2620      0.00000
    221      28.4332      0.00000
    222      28.4332      0.00000
    223      28.4332      0.00000
    224      28.4332      0.00000


--------------------------------------------------------------------------------------------------------


 soft charge-density along one line, spin component            1
         0         1         2         3         4         5         6         7         8         9
 total charge-density along one line
 
 soft charge-density along one line, spin component            2
         0         1         2         3         4         5         6         7         8         9
 total charge-density along one line
 
 pseudopotential strength for first ion, spin component:            1
 15.979  19.980   0.042   0.053  -0.000   0.076   0.095  -0.000
 19.980  25.000   0.053   0.066  -0.000   0.096   0.119  -0.000
  0.042   0.053   3.468  -0.003  -0.000   5.925  -0.005  -0.000
  0.053   0.066  -0.003   3.466  -0.000  -0.005   5.921  -0.000
 -0.000  -0.000  -0.000  -0.000   3.469  -0.000  -0.000   5.927
  0.076   0.096   5.925  -0.005  -0.000  10.184  -0.009  -0.000
  0.095   0.119  -0.005   5.921  -0.000  -0.009  10.177  -0.000
 -0.000  -0.000  -0.000  -0.000   5.927  -0.000  -0.000  10.188
 -0.000  -0.000  -0.000  -0.000   0.007  -0.000  -0.000   0.013
 -0.007  -0.008   0.013   0.013  -0.000   0.024   0.024  -0.000
 -0.003  -0.004  -0.004   0.013   0.000  -0.007   0.025   0.000
 -0.000  -0.000  -0.000  -0.000   0.013  -0.000  -0.000   0.024
  0.001   0.002  -0.013   0.000  -0.000  -0.023   0.000  -0.000
 pseudopotential strength for first ion, spin component:            2
 15.979  19.980   0.042   0.053  -0.000   0.076   0.095  -0.000
 19.980  25.000   0.053   0.066  -0.000   0.096   0.119  -0.000
  0.042   0.053   3.468  -0.003  -0.000   5.925  -0.005  -0.000
  0.053   0.066  -0.003   3.466  -0.000  -0.005   5.921  -0.000
 -0.000  -0.000  -0.000  -0.000   3.469  -0.000  -0.000   5.927
  0.076   0.096   5.925  -0.005  -0.000  10.184  -0.009  -0.000
  0.095   0.119  -0.005   5.921  -0.000  -0.009  10.177  -0.000
 -0.000  -0.000  -0.000  -0.000   5.927  -0.000  -0.000  10.188
 -0.000  -0.000  -0.000  -0.000   0.007  -0.000  -0.000   0.013
 -0.007  -0.008   0.013   0.013  -0.000   0.024   0.024  -0.000
 -0.003  -0.004  -0.004   0.013   0.000  -0.007   0.025   0.000
 -0.000  -0.000  -0.000  -0.000   0.013  -0.000  -0.000   0.024
  0.001   0.002  -0.013   0.000  -0.000  -0.023   0.000  -0.000
 total augmentation occupancy for first ion, spin component:            1
  2.687  -0.651   0.352   0.400  -0.000  -0.066  -0.073   0.000   0.000  -0.009  -0.014  -0.000   0.009
 -0.651   0.614  -0.445  -0.550   0.000   0.071   0.087  -0.000   0.000   0.002   0.017  -0.000  -0.005
  0.352  -0.445   1.226   0.076   0.000  -0.198   0.000  -0.000   0.000   0.051  -0.099  -0.000   0.001
  0.400  -0.550   0.076   1.275   0.000   0.000  -0.199  -0.000   0.000  -0.016   0.111   0.000  -0.003
  0.000  -0.000  -0.000   0.000   1.240   0.000   0.000  -0.211   0.148   0.000  -0.000   0.045  -0.000
 -0.066   0.071  -0.198   0.000   0.000   0.036  -0.002  -0.000  -0.000  -0.009   0.017   0.000   0.000
 -0.073   0.087   0.000  -0.199   0.000  -0.002   0.035   0.000   0.000   0.003  -0.020  -0.000   0.001
  0.000  -0.000   0.000   0.000  -0.211   0.000  -0.000   0.040  -0.026   0.000  -0.000  -0.008   0.000
  0.000   0.000   0.000   0.000   0.148   0.000  -0.000  -0.026   0.030   0.000   0.000   0.003   0.000
 -0.009   0.002   0.051  -0.016   0.000  -0.009   0.003   0.000   0.000   0.010  -0.007   0.000   0.001
 -0.014   0.017  -0.099   0.111  -0.000   0.017  -0.020  -0.000   0.000  -0.007   0.028   0.000  -0.002
 -0.000   0.000  -0.000  -0.000   0.045  -0.000  -0.000  -0.008   0.003   0.000  -0.000   0.009  -0.000
  0.009  -0.005   0.001  -0.003  -0.000   0.000   0.001   0.000   0.000   0.001  -0.002   0.000   0.008
 total augmentation occupancy for first ion, spin component:            2
 -0.000   0.000   0.000  -0.000   0.000  -0.000   0.000   0.000   0.000   0.000  -0.000  -0.000   0.000
  0.000  -0.000  -0.000   0.000   0.000  -0.000  -0.000   0.000   0.000  -0.000   0.000   0.000  -0.000
  0.000  -0.000  -0.000   0.000  -0.000   0.000  -0.000   0.000  -0.000  -0.000  -0.000  -0.000   0.000
 -0.000   0.000   0.000   0.000   0.000  -0.000  -0.000   0.000   0.000  -0.000  -0.000   0.000   0.000
  0.000   0.000  -0.000   0.000  -0.000  -0.000   0.000   0.000   0.000   0.000  -0.000  -0.000  -0.000
 -0.000  -0.000   0.000  -0.000  -0.000  -0.000   0.000   0.000   0.000   0.000  -0.000   0.000  -0.000
  0.000  -0.000  -0.000  -0.000   0.000   0.000   0.000   0.000   0.000  -0.000   0.000  -0.000  -0.000
  0.000   0.000   0.000   0.000   0.000   0.000   0.000  -0.000   0.000   0.000   0.000   0.000  -0.000
  0.000   0.000  -0.000   0.000   0.000   0.000   0.000   0.000   0.000  -0.000   0.000  -0.000  -0.000
  0.000  -0.000  -0.000  -0.000   0.000   0.000  -0.000   0.000  -0.000  -0.000   0.000   0.000   0.000
 -0.000   0.000  -0.000  -0.000  -0.000  -0.000   0.000   0.000   0.000   0.000  -0.000  -0.000  -0.000
 -0.000   0.000  -0.000   0.000  -0.000   0.000  -0.000   0.000  -0.000   0.000  -0.000  -0.000   0.000
  0.000  -0.000   0.000   0.000  -0.000  -0.000  -0.000  -0.000  -0.000   0.000  -0.000   0.000  -0.000


------------------------ aborting loop because EDIFF is reached ----------------------------------------





 total charge

# of ion       s       p       d       tot
------------------------------------------
    1        1.318   0.790   0.051   2.158
    2        1.318   0.790   0.051   2.158
    3        1.318   0.790   0.051   2.158
    4        1.318   0.790   0.051   2.158
    5        1.472   2.313   0.029   3.813
    6        1.472   2.313   0.029   3.813
    7        1.472   2.313   0.029   3.813
    8        1.472   2.313   0.029   3.813
--------------------------------------------------
tot         11.157  12.410   0.319  23.886



 magnetization (x)

# of ion       s       p       d       tot
------------------------------------------
    1       -0.000  -0.000  -0.000  -0.000
    2       -0.000  -0.000  -0.000  -0.000
    3       -0.000  -0.000  -0.000  -0.000
    4       -0.000  -0.000  -0.000  -0.000
    5        0.000   0.000  -0.000   0.000
    6        0.000   0.000  -0.000   0.000
    7        0.000   0.000  -0.000   0.000
    8        0.000   0.000  -0.000   0.000
--------------------------------------------------
tot         -0.000   0.000  -0.000   0.000
 
    CHARGE:  cpu time      0.4211: real time      0.4236
    FORLOC:  cpu time      0.0089: real time      0.0089
    FORNL :  cpu time      4.2472: real time      4.2701
    STRESS:  cpu time     11.0825: real time     11.2007
    FORCOR:  cpu time      0.2234: real time      0.2247
    FORHAR:  cpu time      0.0249: real time      0.0250
    MIXING:  cpu time      0.0208: real time      0.0209
    OFIELD:  cpu time      0.0000: real time      0.0000

  FORCE on cell =-STRESS in cart. coord.  units (eV):
  Direction    XX          YY          ZZ          XY          YZ          ZX
  --------------------------------------------------------------------------------------
  Alpha Z    33.35895    33.35895    33.35895
  Ewald    1946.48527  1890.11989 -2867.73465     0.00000     0.00000    -0.00000
  Hartree  2204.07889  2180.79132 -2104.88798    -0.00000    -0.00000    -0.00000
  E(xc)    -140.51302  -140.54842  -141.78269     0.00000    -0.00000     0.00000
  Local   -4660.39533 -4587.38987  4451.76535     0.00000    -0.00000    -0.00000
  n-local   240.24367   239.63043   241.75498     0.86168     0.00000     0.00000
  augment   -11.30457   -11.74958   -12.16226     0.00000     0.00000     0.00000
  Kinetic   388.86033   396.48759   398.05199     6.68818    -0.00000    -0.00000
  Fock        0.00000     0.00000     0.00000     0.00000     0.00000     0.00000
  -------------------------------------------------------------------------------------
  Total       0.81420     0.70030    -1.63629     0.00000     0.00000     0.00000
  in kB       2.56820     2.20893    -5.16127     0.00000     0.00000     0.00000
  external pressure =       -0.13 kB  Pullay stress =        0.00 kB


 VOLUME and BASIS-vectors are now :
 -----------------------------------------------------------------------------
  energy-cutoff  :      520.00
  volume of cell :      507.94
      direct lattice vectors                 reciprocal lattice vectors
     3.858100176  0.000000000  0.000000000     0.259194929  0.000000000  0.000000000
     0.000000000  4.526575088  0.000000000     0.000000000  0.220917577  0.000000000
     0.000000000  0.000000000 29.085176468     0.000000000  0.000000000  0.034381775

  length of vectors
     3.858100176  4.526575088 29.085176468     0.259194929  0.220917577  0.034381775


 FORCES acting on ions
    electron-ion (+dipol)            ewald-force                    non-local-force                 convergence-correction
 -----------------------------------------------------------------------------------------------
   0.384E-09 0.159E+02 0.152E+03   0.206E-08 -.186E+02 -.156E+03   0.000E+00 0.254E+01 0.364E+01   -.172E-13 -.453E-05 -.591E-04
   -.408E-08 -.159E+02 -.152E+03   -.206E-08 0.186E+02 0.156E+03   0.000E+00 -.254E+01 -.364E+01   0.163E-13 0.453E-05 0.591E-04
   -.408E-08 0.159E+02 -.152E+03   -.206E-08 -.186E+02 0.156E+03   0.000E+00 0.254E+01 -.364E+01   0.146E-13 -.453E-05 0.591E-04
   0.384E-09 -.159E+02 0.152E+03   0.206E-08 0.186E+02 -.156E+03   0.000E+00 -.254E+01 0.364E+01   -.145E-13 0.453E-05 -.591E-04
   0.417E-09 0.170E+02 -.182E+03   0.238E-08 -.186E+02 0.184E+03   0.139E-16 0.149E+01 -.185E+01   -.177E-13 -.731E-05 0.863E-04
   -.197E-07 -.170E+02 0.182E+03   -.238E-08 0.186E+02 -.184E+03   -.139E-16 -.149E+01 0.185E+01   0.530E-13 0.731E-05 -.863E-04
   -.197E-07 0.170E+02 0.182E+03   -.238E-08 -.186E+02 -.184E+03   -.139E-16 0.149E+01 0.185E+01   0.524E-13 -.731E-05 -.863E-04
   0.417E-09 -.170E+02 -.182E+03   0.238E-08 0.186E+02 0.184E+03   0.139E-16 -.149E+01 -.185E+01   -.174E-13 0.731E-05 0.863E-04
 -----------------------------------------------------------------------------------------------
   -.461E-07 0.791E-04 -.195E-03   0.623E-14 0.000E+00 -.568E-13   0.000E+00 0.666E-15 0.000E+00   0.694E-13 -.797E-10 -.702E-07
 
 
 POSITION                                       TOTAL-FORCE (eV/Angst)
 -----------------------------------------------------------------------------------
      0.96453      0.52346      1.36947        -0.000000     -0.082546      0.271928
      2.89358      4.00311     18.71571         0.000000      0.082546     -0.271928
      2.89358      2.78675      4.17312         0.000000     -0.082546     -0.271928
      0.96453      1.73983     15.91205        -0.000000      0.082546      0.271928
      0.96453      2.28569     18.45155        -0.000000     -0.082551     -0.023539
      2.89358      2.24089      1.63362         0.000000      0.082551      0.023539
      2.89358      0.02240     16.17621         0.000000     -0.082551      0.023539
      0.96453      4.50417      3.90897        -0.000000      0.082551     -0.023539
 -----------------------------------------------------------------------------------
    total drift:                               -0.000000      0.000079     -0.000195


--------------------------------------------------------------------------------------------------------



  FREE ENERGIE OF THE ION-ELECTRON SYSTEM (eV)
  ---------------------------------------------------
  free  energy   TOTEN  =       -33.51956643 eV

  energy  without entropy=      -33.51956643  energy(sigma->0) =      -33.51956643
 


--------------------------------------------------------------------------------------------------------


    POTLOK:  cpu time      1.3435: real time      1.3469


--------------------------------------------------------------------------------------------------------


 writing wavefunctions
     LOOP+:  cpu time   1054.1423: real time   1076.2329
    4ORBIT:  cpu time      0.0000: real time      0.0000



 total charge

# of ion       s       p       d       tot
------------------------------------------
    1        1.318   0.790   0.051   2.158
    2        1.318   0.790   0.051   2.158
    3        1.318   0.790   0.051   2.158
    4        1.318   0.790   0.051   2.158
    5        1.472   2.313   0.029   3.813
    6        1.472   2.313   0.029   3.813
    7        1.472   2.313   0.029   3.813
    8        1.472   2.313   0.029   3.813
--------------------------------------------------
tot         11.157  12.410   0.319  23.886



 magnetization (x)

# of ion       s       p       d       tot
------------------------------------------
    1       -0.000  -0.000  -0.000  -0.000
    2       -0.000  -0.000  -0.000  -0.000
    3       -0.000  -0.000  -0.000  -0.000
    4       -0.000  -0.000  -0.000  -0.000
    5        0.000   0.000  -0.000   0.000
    6        0.000   0.000  -0.000   0.000
    7        0.000   0.000  -0.000   0.000
    8        0.000   0.000  -0.000   0.000
--------------------------------------------------
tot         -0.000   0.000  -0.000   0.000
 

 total amount of memory used by VASP MPI-rank0   356441. kBytes
=======================================================================

   base      :      30000. kBytes
   nonl-proj :      93456. kBytes
   fftplans  :       5071. kBytes
   grid      :      28687. kBytes
   one-center:        129. kBytes
   wavefun   :     199098. kBytes
 
  
  
 General timing and accounting informations for this job:
 ========================================================
  
                  Total CPU time used (sec):     1071.349
                            User time (sec):     1050.188
                          System time (sec):       21.161
                         Elapsed time (sec):     1094.401
  
                   Maximum memory used (kb):      522864.
                   Average memory used (kb):          N/A
  
                          Minor page faults:       363817
                          Major page faults:           40
                 Voluntary context switches:       192104
