 running  128 mpi-ranks, with    1 threads/rank, on    2 nodes
 distrk:  each k-point on  128 cores,    1 groups
 distr:  one band on    1 cores,  128 groups
 vasp.6.4.2 20Jul23 (build Oct 12 2023 10:31:02) complex                         
 POSCAR found type information on POSCAR GeSe
 POSCAR found :  2 types and     576 ions
 Reading from existing POTCAR
 -----------------------------------------------------------------------------
|                                                                             |
|           W    W    AA    RRRRR   N    N  II  N    N   GGGG   !!!           |
|           W    W   A  A   R    R  NN   N  II  NN   N  G    G  !!!           |
|           W    W  A    A  R    R  N N  N  II  N N  N  G       !!!           |
|           W WW W  AAAAAA  RRRRR   N  N N  II  N  N N  G  GGG   !            |
|           WW  WW  A    A  R   R   N   NN  II  N   NN  G    G                |
|           W    W  A    A  R    R  N    N  II  N    N   GGGG   !!!           |
|                                                                             |
|     You use a magnetic or noncollinear calculation, but did not specify     |
|     the initial magnetic moment with the MAGMOM tag. Note that a            |
|     default of 1 will be used for all atoms. This ferromagnetic setup       |
|     may break the symmetry of the crystal, in particular it may rule        |
|     out finding an antiferromagnetic solution. Thence, we recommend         |
|     setting the initial magnetic moment manually or verifying carefully     |
|     that this magnetic setup is desired.                                    |
|                                                                             |
 -----------------------------------------------------------------------------

 scaLAPACK will be used
 Reading from existing POTCAR
 -----------------------------------------------------------------------------
|                                                                             |
|               ----> ADVICE to this user running VASP <----                  |
|                                                                             |
|     You have a (more or less) 'large supercell' and for larger cells it     |
|     might be more efficient to use real-space projection operators.         |
|     Therefore, try LREAL= Auto in the INCAR file.                           |
|     Mind: For very accurate calculation, you might also keep the            |
|     reciprocal projection scheme (i.e. LREAL=.FALSE.).                      |
|                                                                             |
 -----------------------------------------------------------------------------

 LDA part: xc-table for Pade appr. of Perdew
 -----------------------------------------------------------------------------
|                                                                             |
|           W    W    AA    RRRRR   N    N  II  N    N   GGGG   !!!           |
|           W    W   A  A   R    R  NN   N  II  NN   N  G    G  !!!           |
|           W    W  A    A  R    R  N N  N  II  N N  N  G       !!!           |
|           W WW W  AAAAAA  RRRRR   N  N N  II  N  N N  G  GGG   !            |
|           WW  WW  A    A  R   R   N   NN  II  N   NN  G    G                |
|           W    W  A    A  R    R  N    N  II  N    N   GGGG   !!!           |
|                                                                             |
|     The number of bands has been changed from the values supplied in        |
|     the INCAR file. This is a result of running the parallel version.       |
|     The orbitals not found in the WAVECAR file will be initialized with     |
|     random numbers, which is usually adequate. For correlated               |
|     calculations, however, you should redo the groundstate calculation.     |
|     I found NBANDS = 1728. Now, NBANDS = 1792.                              |
|                                                                             |
 -----------------------------------------------------------------------------

 POSCAR, INCAR and KPOINTS ok, starting setup
 FFT: planning ... GRIDC
 FFT: planning ... GRID_SOFT
 FFT: planning ... GRID
 WAVECAR not read
 WARNING: random wavefunctions but no delay for mixing, default for NELMDL
 entering main loop
       N       E                     dE             d eps       ncg     rms          rms(c)
DAV:   1     0.144443908954E+05    0.14444E+05   -0.11353E+06  7168   0.135E+03
DAV:   2    -0.594394235705E+03   -0.15039E+05   -0.14476E+05  8448   0.202E+02
DAV:   3    -0.228599399089E+04   -0.16916E+04   -0.16552E+04  8704   0.679E+01
DAV:   4    -0.234184999421E+04   -0.55856E+02   -0.55263E+02  8576   0.126E+01
DAV:   5    -0.234420849756E+04   -0.23585E+01   -0.23542E+01  9216   0.214E+00    0.824E+01
DAV:   6    -0.225391949777E+04    0.90289E+02   -0.28549E+02  8448   0.935E+00    0.572E+01
DAV:   7    -0.228724674268E+04   -0.33327E+02   -0.54576E+01  8192   0.465E+00    0.441E+01
DAV:   8    -0.234792337692E+04   -0.60677E+02   -0.22185E+01  8064   0.343E+00    0.335E+01
DAV:   9    -0.237129809618E+04   -0.23375E+02   -0.14305E+01  8192   0.285E+00    0.286E+01
DAV:  10    -0.240353000226E+04   -0.32232E+02   -0.88187E+00  7936   0.200E+00    0.196E+01
DAV:  11    -0.243373231977E+04   -0.30202E+02   -0.22628E+01  8064   0.260E+00    0.422E+00
DAV:  12    -0.243495444274E+04   -0.12221E+01   -0.26899E+00  9088   0.112E+00    0.190E+00
DAV:  13    -0.243502628947E+04   -0.71847E-01   -0.27145E-01  9856   0.304E-01    0.881E-01
DAV:  14    -0.243504426717E+04   -0.17978E-01   -0.43379E-02  8576   0.165E-01    0.432E-01
DAV:  15    -0.243505183410E+04   -0.75669E-02   -0.89350E-03  8320   0.882E-02    0.188E-01
DAV:  16    -0.243505308005E+04   -0.12460E-02   -0.18115E-03  8192   0.308E-02    0.766E-02
DAV:  17    -0.243505310266E+04   -0.22608E-04   -0.37477E-04  8576   0.158E-02    0.270E-02
DAV:  18    -0.243505311463E+04   -0.11975E-04   -0.76104E-05  8192   0.814E-03    0.110E-02
DAV:  19    -0.243505311782E+04   -0.31876E-05   -0.63012E-06  8448   0.238E-03    0.507E-03
DAV:  20    -0.243505311994E+04   -0.21252E-05   -0.82635E-07  5376   0.107E-03    0.244E-03
DAV:  21    -0.243505311980E+04    0.14347E-06    0.24181E-07  4352   0.558E-04
   1 F= -.25636141E+04 E0= -.25636141E+04  d E =-.145120E-15  mag=     0.0000
 writing wavefunctions
