 vasp.6.4.2 20Jul23 (build Oct 12 2023 10:31:02) complex                         
 executed on              LinuxNV date 2024.11.01  22:28:52
 running  128 mpi-ranks, with    1 threads/rank, on    2 nodes
 distrk:  each k-point on   64 cores,    2 groups
 distr:  one band on NCORE=   8 cores,    8 groups


--------------------------------------------------------------------------------------------------------


 INCAR:
   ENCUT = 520.000000
   SIGMA = 0.050000
   EDIFF = 1.00e-06
   ALGO = N
   GGA = PE
   PREC = Accurate
   SYSTEM = 01_AOPT
   ICHARG = 0
   ISMEAR = 0
   ISPIN = 2
   ISTART = 1
   ISYM = -1
   KPAR = 2
   LORBIT = 11
   NBANDS = 220
   NELM = 100
   NELMIN = 5
   NPAR = 8
   LASPH = .TRUE.
   LCHARG = .FALSE.
   LWAVE = .FALSE.
   LREAL = .FALSE.

 POTCAR:    PAW_PBE Ge 05Jan2001                  
 POTCAR:    PAW_PBE Se 06Sep2000                  
 -----------------------------------------------------------------------------
|                                                                             |
|           W    W    AA    RRRRR   N    N  II  N    N   GGGG   !!!           |
|           W    W   A  A   R    R  NN   N  II  NN   N  G    G  !!!           |
|           W    W  A    A  R    R  N N  N  II  N N  N  G       !!!           |
|           W WW W  AAAAAA  RRRRR   N  N N  II  N  N N  G  GGG   !            |
|           WW  WW  A    A  R   R   N   NN  II  N   NN  G    G                |
|           W    W  A    A  R    R  N    N  II  N    N   GGGG   !!!           |
|                                                                             |
|     You use a magnetic or noncollinear calculation, but did not specify     |
|     the initial magnetic moment with the MAGMOM tag. Note that a            |
|     default of 1 will be used for all atoms. This ferromagnetic setup       |
|     may break the symmetry of the crystal, in particular it may rule        |
|     out finding an antiferromagnetic solution. Thence, we recommend         |
|     setting the initial magnetic moment manually or verifying carefully     |
|     that this magnetic setup is desired.                                    |
|                                                                             |
 -----------------------------------------------------------------------------

 POTCAR:    PAW_PBE Ge 05Jan2001                  
   VRHFIN =Ge: s2p2                                                                                 
   LEXCH  = PE                                                                                      
   EATOM  =   104.9960 eV,    7.7170 Ry                                                             
                                                                                                    
   TITEL  = PAW_PBE Ge 05Jan2001                                                                    
   LULTRA =        F    use ultrasoft PP ?                                                          
   IUNSCR =        1    unscreen: 0-lin 1-nonlin 2-no                                               
   RPACOR =    2.170    partial core radius                                                         
   POMASS =   72.610; ZVAL   =    4.000    mass and valenz                                          
   RCORE  =    2.300    outmost cutoff radius                                                       
   RWIGS  =    2.300; RWIGS  =    1.217    wigner-seitz radius (au A)                               
   ENMAX  =  173.807; ENMIN  =  130.355 eV                                                          
   ICORE  =        3    local potential                                                             
   LCOR   =        T    correct aug charges                                                         
   LPAW   =        T    paw PP                                                                      
   EAUG   =  385.843                                                                                
   DEXC   =    0.000                                                                                
   RMAX   =    2.342    core radius for proj-oper                                                   
   RAUG   =    1.300    factor for augmentation sphere                                              
   RDEP   =    2.318    radius for radial grids                                                     
   RDEPT  =    2.103    core radius for aug-charge                                                  
                                                                                                    
   Atomic configuration                                                                             
   10 entries                                                                                       
     n  l   j            E        occ.                                                              
     1  0  0.50    -10959.8463   2.0000                                                             
     2  0  0.50     -1371.6056   2.0000                                                             
     2  1  1.50     -1198.4791   6.0000                                                             
     3  0  0.50      -168.4733   2.0000                                                             
     3  1  1.50      -115.6019   6.0000                                                             
     3  2  2.50       -29.3106  10.0000                                                             
     4  0  0.50       -11.7309   2.0000                                                             
     4  1  0.50        -3.8952   2.0000                                                             
     4  2  1.50        -4.0817   0.0000                                                             
     4  3  2.50        -4.0817   0.0000                                                             
   Description                                                                                      
     l       E           TYP  RCUT    TYP  RCUT                                                     
     0    -11.7309493     23  2.300                                                                 
     0     -7.4578696     23  2.300                                                                 
     1     -3.8952261     23  2.300                                                                 
     1      6.1178114     23  2.300                                                                 
     2     -4.0817478     23  2.300                                                                 
     3     -1.3605826      7  2.300                                                                 
  local pseudopotential read in
  partial core-charges read in
  partial kinetic energy density read in
  atomic valenz-charges read in
  non local Contribution for L=            0  read in
    real space projection operators read in
  non local Contribution for L=            0  read in
    real space projection operators read in
  non local Contribution for L=            1  read in
    real space projection operators read in
  non local Contribution for L=            1  read in
    real space projection operators read in
  non local Contribution for L=            2  read in
    real space projection operators read in
    PAW grid and wavefunctions read in
 
   number of l-projection  operators is LMAX  =            5
   number of lm-projection operators is LMMAX =           13
 
 POTCAR:    PAW_PBE Se 06Sep2000                  
   VRHFIN =Se: s2p4                                                                                 
   LEXCH  = PE                                                                                      
   EATOM  =   257.1286 eV,   18.8984 Ry                                                             
                                                                                                    
   TITEL  = PAW_PBE Se 06Sep2000                                                                    
   LULTRA =        F    use ultrasoft PP ?                                                          
   IUNSCR =        1    unscreen: 0-lin 1-nonlin 2-no                                               
   RPACOR =    1.900    partial core radius                                                         
   POMASS =   78.960; ZVAL   =    6.000    mass and valenz                                          
   RCORE  =    2.100    outmost cutoff radius                                                       
   RWIGS  =    2.200; RWIGS  =    1.164    wigner-seitz radius (au A)                               
   ENMAX  =  211.555; ENMIN  =  158.666 eV                                                          
   ICORE  =        3    local potential                                                             
   LCOR   =        T    correct aug charges                                                         
   LPAW   =        T    paw PP                                                                      
   EAUG   =  446.842                                                                                
   DEXC   =    0.000                                                                                
   RMAX   =    2.147    core radius for proj-oper                                                   
   RAUG   =    1.300    factor for augmentation sphere                                              
   RDEP   =    2.177    radius for radial grids                                                     
   RDEPT  =    1.928    core radius for aug-charge                                                  
                                                                                                    
   Atomic configuration                                                                             
   10 entries                                                                                       
     n  l   j            E        occ.                                                              
     1  0  0.50    -12503.4787   2.0000                                                             
     2  0  0.50     -1606.9547   2.0000                                                             
     2  1  1.50     -1413.3140   6.0000                                                             
     3  0  0.50      -213.4885   2.0000                                                             
     3  1  1.50      -152.9538   6.0000                                                             
     3  2  2.50       -53.1221  10.0000                                                             
     4  0  0.50       -17.2865   2.0000                                                             
     4  1  0.50        -6.5110   4.0000                                                             
     4  2  2.50        -6.8029   0.0000                                                             
     4  3  2.50        -6.8029   0.0000                                                             
   Description                                                                                      
     l       E           TYP  RCUT    TYP  RCUT                                                     
     0    -17.2865377     23  2.100                                                                 
     0    -15.3094411     23  2.100                                                                 
     1     -6.5110275     23  2.100                                                                 
     1     -0.0695192     23  2.100                                                                 
     2     -6.8029130     23  2.100                                                                 
     3     -1.3605826      7  2.100                                                                 
  local pseudopotential read in
  partial core-charges read in
  partial kinetic energy density read in
  atomic valenz-charges read in
  non local Contribution for L=            0  read in
    real space projection operators read in
  non local Contribution for L=            0  read in
    real space projection operators read in
  non local Contribution for L=            1  read in
    real space projection operators read in
  non local Contribution for L=            1  read in
    real space projection operators read in
  non local Contribution for L=            2  read in
    real space projection operators read in
    PAW grid and wavefunctions read in
 
   number of l-projection  operators is LMAX  =            5
   number of lm-projection operators is LMMAX =           13
 
 -----------------------------------------------------------------------------
|                                                                             |
|               ----> ADVICE to this user running VASP <----                  |
|                                                                             |
|     You have a (more or less) 'large supercell' and for larger cells it     |
|     might be more efficient to use real-space projection operators.         |
|     Therefore, try LREAL= Auto in the INCAR file.                           |
|     Mind: For very accurate calculation, you might also keep the            |
|     reciprocal projection scheme (i.e. LREAL=.FALSE.).                      |
|                                                                             |
 -----------------------------------------------------------------------------

  PAW_PBE Ge 05Jan2001                  :
 energy of atom  1       EATOM= -104.9960
 kinetic energy error for atom=    0.0002 (will be added to EATOM!!)
  PAW_PBE Se 06Sep2000                  :
 energy of atom  2       EATOM= -257.1286
 kinetic energy error for atom=    0.0007 (will be added to EATOM!!)
 
 
 POSCAR: Ge Se
  positions in cartesian coordinates
  No initial velocities read in
 exchange correlation table for  LEXCH =        8
   RHO(1)=    0.500       N(1)  =     2000
   RHO(2)=  100.500       N(2)  =     4000
 


--------------------------------------------------------------------------------------------------------


 ion  position               nearest neighbor table
   1  0.056  0.053  0.124-  45 2.61  55 2.62  54 2.83
   2  0.262  0.884  0.371-  48 2.51  67 2.54  45 2.83
   3  0.567  0.219  0.377-  56 2.45  49 2.59  68 2.69
   4  0.554  0.540  0.371-  69 2.46  50 2.58
   5  0.587  0.875  0.380-  70 2.50  44 2.64
   6  0.895  0.203  0.364-  55 2.60  56 2.68
   7  0.920  0.547  0.354-  71 2.43  47 2.54  72 2.77
   8  0.913  0.880  0.366-  53 2.48  44 2.65  45 2.74
   9  0.075  0.165  0.637-  57 2.58  37 2.71
  10  0.083  0.479  0.643-  58 2.49  38 2.62  43 2.67
  11  0.074  0.820  0.647-  59 2.48  39 2.67  52 2.71
  12  0.390  0.153  0.621-  60 2.61  51 2.65  40 2.74
  13  0.417  0.492  0.625-  41 2.63  38 2.65  61 2.69
  14  0.397  0.824  0.652-  62 2.46  39 2.72  42 2.85
  15  0.725  0.173  0.643-  63 2.46  40 2.67
  16  0.740  0.490  0.625-  64 2.64  41 2.69  43 2.78
  17  0.227  0.531  0.367-  66 2.64  47 2.65  50 2.76
  18  0.215  0.197  0.387-  54 2.57  46 2.59  45 2.79
  19  0.748  0.816  0.646-  65 2.55  42 2.67  52 2.70
  20  0.905  0.639  0.884-  58 2.59  64 2.60  52 2.72
  21  0.902  0.004  0.871-  37 2.61  59 2.73  65 2.77
  22  0.055  0.371  0.125-  71 2.61  66 2.72  46 2.77
  23  0.070  0.715  0.134-  53 2.56  47 2.66  67 2.78
  24  0.382  0.037  0.132-  48 2.56  54 2.66
  25  0.397  0.376  0.141-  49 2.56  66 2.64
  26  0.716  0.051  0.132-  68 2.60  44 2.61  55 2.73
  27  0.711  0.380  0.136-  69 2.50  56 2.61
  28  0.392  0.707  0.126-  67 2.49  50 2.64  70 2.73
  29  0.254  0.320  0.873-  38 2.53  60 2.63  57 2.71
  30  0.234  0.652  0.870-  39 2.48  58 2.57  61 2.71
  31  0.234  0.003  0.860-  51 2.53  59 2.67  57 2.77
  32  0.552  0.327  0.859-  41 2.44  60 2.60
  33  0.561  0.660  0.867-  42 2.57  61 2.65
  34  0.572  0.962  0.884-  62 2.51  65 2.61
  35  0.885  0.330  0.854-  63 2.54  43 2.64  64 2.82
  36  0.718  0.705  0.137-  72 2.53  70 2.63  69 2.84
  37  0.908  0.025  0.637-  21 2.61   9 2.71
  38  0.254  0.358  0.648-  29 2.53  10 2.62  13 2.65
  39  0.235  0.678  0.648-  30 2.48  11 2.67  14 2.72
  40  0.569  0.026  0.634-  15 2.67  12 2.74
  41  0.574  0.351  0.642-  32 2.44  13 2.63  16 2.69
  42  0.579  0.685  0.637-  33 2.57  19 2.67  14 2.85
  43  0.913  0.350  0.619-  35 2.64  10 2.67  16 2.78
  44  0.747  0.014  0.361-  26 2.61   5 2.64   8 2.65
  45  0.082  0.020  0.355-   1 2.61   8 2.74  18 2.79   2 2.83
  46  0.076  0.351  0.373-  18 2.59  22 2.77
  47  0.075  0.679  0.370-   7 2.54  17 2.65  23 2.66
  48  0.399  0.031  0.362-   2 2.51  24 2.56
  49  0.413  0.359  0.370-  25 2.56   3 2.59
  50  0.396  0.674  0.361-   4 2.58  28 2.64  17 2.76
  51  0.240  0.003  0.632-  31 2.53  12 2.65
  52  0.913  0.675  0.642-  19 2.70  11 2.71  20 2.72
  53  0.921  0.856  0.144-   8 2.48  23 2.56
  54  0.235  0.190  0.156-  18 2.57  24 2.66   1 2.83
  55  0.891  0.183  0.131-   6 2.60   1 2.62  26 2.73
  56  0.725  0.335  0.366-   3 2.45  27 2.61   6 2.68
  57  0.093  0.174  0.869-   9 2.58  29 2.71  31 2.77
  58  0.075  0.521  0.862-  10 2.49  30 2.57  20 2.59
  59  0.070  0.864  0.865-  11 2.48  31 2.67  21 2.73
  60  0.408  0.177  0.855-  32 2.60  12 2.61  29 2.63
  61  0.404  0.516  0.866-  33 2.65  13 2.69  30 2.71
  62  0.411  0.841  0.872-  14 2.46  34 2.51
  63  0.736  0.190  0.864-  15 2.46  35 2.54
  64  0.745  0.507  0.863-  20 2.60  16 2.64  35 2.82
  65  0.746  0.846  0.874-  19 2.55  34 2.61  21 2.77
  66  0.228  0.504  0.131-  25 2.64  17 2.64  22 2.72
  67  0.250  0.847  0.146-  28 2.49   2 2.54  23 2.78
  68  0.560  0.190  0.137-  26 2.60   3 2.69
  69  0.575  0.528  0.150-   4 2.46  27 2.50  36 2.84
  70  0.560  0.844  0.159-   5 2.50  36 2.63  28 2.73
  71  0.912  0.524  0.137-   7 2.43  22 2.61
  72  0.744  0.683  0.362-  36 2.53   7 2.77
 

IMPORTANT INFORMATION: All symmetrisations will be switched off!
NOSYMM: (Re-)initialisation of all symmetry stuff for point group C_1.


----------------------------------------------------------------------------------------

                                     Primitive cell                                     

  volume of cell :    1719.7457

  direct lattice vectors                    reciprocal lattice vectors
    12.416900215 -0.000008135  0.000003058     0.080535398  0.000000053 -0.000000026
    -0.000008197 12.510806223  0.000000082     0.000000052  0.079930900 -0.000000001
     0.000003510  0.000000093 11.070461698    -0.000000022 -0.000000001  0.090330469

  length of vectors
    12.416900215 12.510806223 11.070461698     0.080535398  0.079930900  0.090330469

  position of ions in fractional coordinates (direct lattice)
     0.056300518  0.053000920  0.123825106
     0.262441068  0.883788307  0.371298490
     0.566682791  0.219236423  0.376681514
     0.554134006  0.539882155  0.370582688
     0.586663930  0.875327748  0.379783178
     0.895207952  0.203287096  0.364021992
     0.919895024  0.546680190  0.354427546
     0.912710151  0.880355335  0.366134054
     0.074714608  0.164901140  0.636965652
     0.082610356  0.479267821  0.642869778
     0.074166587  0.820156678  0.646757717
     0.390306742  0.153098540  0.621383469
     0.417422992  0.491887625  0.624853868
     0.397098089  0.823991862  0.651884721
     0.725220774  0.172703824  0.642795272
     0.739633620  0.489732918  0.625328043
     0.227363631  0.530649653  0.367208635
     0.214914885  0.197318263  0.387004129
     0.747946608  0.816098060  0.646351932
     0.904599803  0.639430723  0.884439546
     0.901823445  0.003956959  0.871425459
     0.054867372  0.371389846  0.124612236
     0.070259439  0.715489966  0.133921755
     0.382111160  0.037033462  0.131645819
     0.397014575  0.376015783  0.140520801
     0.715974183  0.051255802  0.131587056
     0.710700733  0.380305719  0.136276389
     0.391522549  0.707183206  0.125504012
     0.253856054  0.320084335  0.872842984
     0.234011327  0.651544008  0.870362475
     0.234349998  0.002982536  0.860352906
     0.552083758  0.327344905  0.859185203
     0.560986865  0.660443973  0.866935261
     0.571837404  0.962220625  0.883930985
     0.884804037  0.329659333  0.854429274
     0.717936795  0.705012801  0.137222033
     0.908012258  0.024838512  0.636953803
     0.254036705  0.357736429  0.648297892
     0.234998807  0.678179417  0.648323077
     0.569322733  0.025570078  0.634174742
     0.574112088  0.351271285  0.641567570
     0.578621642  0.685421065  0.637160201
     0.913017534  0.349733538  0.619096232
     0.746575706  0.013537126  0.361163259
     0.081861869  0.020380470  0.354791900
     0.076269334  0.351488795  0.373096948
     0.074938391  0.678819900  0.370130770
     0.399417929  0.031493693  0.362017483
     0.412752077  0.358597902  0.370032874
     0.396478145  0.674159246  0.361106915
     0.239991254  0.003268216  0.632288366
     0.912566764  0.674955848  0.642009994
     0.920897661  0.855837724  0.144394296
     0.235036867  0.190392136  0.155840389
     0.891203359  0.183310643  0.130560937
     0.725239564  0.334841416  0.366235154
     0.093065426  0.173785487  0.868820505
     0.074752185  0.520652764  0.862238795
     0.070476099  0.864309117  0.865135756
     0.407892378  0.176736067  0.854751263
     0.404448399  0.516174623  0.866005992
     0.410864322  0.841078204  0.872475089
     0.736227163  0.190015809  0.864233048
     0.744755108  0.506604563  0.863415110
     0.746224357  0.845797922  0.874179495
     0.228380270  0.503582347  0.130562462
     0.249963511  0.847104884  0.146186481
     0.560099836  0.189536824  0.136555127
     0.575496759  0.527945539  0.150050704
     0.560412397  0.843968195  0.158739283
     0.911972908  0.523533741  0.136799815
     0.743847964  0.682853877  0.362152609

  ion indices of the primitive-cell ions
   primitive index   ion index
                 1           1
                 2           2
                 3           3
                 4           4
                 5           5
                 6           6
                 7           7
                 8           8
                 9           9
                10          10
                11          11
                12          12
                13          13
                14          14
                15          15
                16          16
                17          17
                18          18
                19          19
                20          20
                21          21
                22          22
                23          23
                24          24
                25          25
                26          26
                27          27
                28          28
                29          29
                30          30
                31          31
                32          32
                33          33
                34          34
                35          35
                36          36
                37          37
                38          38
                39          39
                40          40
                41          41
                42          42
                43          43
                44          44
                45          45
                46          46
                47          47
                48          48
                49          49
                50          50
                51          51
                52          52
                53          53
                54          54
                55          55
                56          56
                57          57
                58          58
                59          59
                60          60
                61          61
                62          62
                63          63
                64          64
                65          65
                66          66
                67          67
                68          68
                69          69
                70          70
                71          71
                72          72

----------------------------------------------------------------------------------------

 
 
 KPOINTS: KPOINTS created by Atomic Simulation Env

Automatic generation of k-mesh.
 Grid dimensions read from file:
 generate k-points for:    2    2    2

 Generating k-lattice:

  Cartesian coordinates                     Fractional coordinates (reciprocal lattice)
     0.040267699  0.000000026 -0.000000013     0.500000000 -0.000000000  0.000000000
     0.000000026  0.039965450 -0.000000000     0.000000000  0.500000000 -0.000000000
    -0.000000011 -0.000000000  0.045165235     0.000000000  0.000000000  0.500000000

  Length of vectors
     0.040267699  0.039965450  0.045165235

  Shift w.r.t. Gamma in fractional coordinates (k-lattice)
     0.000000000  0.000000000  0.000000000

 
 Subroutine IBZKPT returns following result:
 ===========================================
 
 Found      8 irreducible k-points:
 
 Following reciprocal coordinates:
            Coordinates               Weight
  0.000000  0.000000  0.000000      1.000000
  0.500000  0.000000  0.000000      1.000000
  0.000000  0.500000  0.000000      1.000000
  0.500000  0.500000  0.000000      1.000000
  0.000000  0.000000  0.500000      1.000000
  0.500000  0.000000  0.500000      1.000000
  0.000000  0.500000  0.500000      1.000000
  0.500000  0.500000  0.500000      1.000000
 
 Following cartesian coordinates:
            Coordinates               Weight
  0.000000  0.000000  0.000000      1.000000
  0.040268  0.000000 -0.000000      1.000000
  0.000000  0.039965 -0.000000      1.000000
  0.040268  0.039965 -0.000000      1.000000
 -0.000000 -0.000000  0.045165      1.000000
  0.040268  0.000000  0.045165      1.000000
  0.000000  0.039965  0.045165      1.000000
  0.040268  0.039965  0.045165      1.000000
 
 -----------------------------------------------------------------------------
|                                                                             |
|           W    W    AA    RRRRR   N    N  II  N    N   GGGG   !!!           |
|           W    W   A  A   R    R  NN   N  II  NN   N  G    G  !!!           |
|           W    W  A    A  R    R  N N  N  II  N N  N  G       !!!           |
|           W WW W  AAAAAA  RRRRR   N  N N  II  N  N N  G  GGG   !            |
|           WW  WW  A    A  R   R   N   NN  II  N   NN  G    G                |
|           W    W  A    A  R    R  N    N  II  N    N   GGGG   !!!           |
|                                                                             |
|     The number of bands has been changed from the values supplied in        |
|     the INCAR file. This is a result of running the parallel version.       |
|     The orbitals not found in the WAVECAR file will be initialized with     |
|     random numbers, which is usually adequate. For correlated               |
|     calculations, however, you should redo the groundstate calculation.     |
|     I found NBANDS = 220. Now, NBANDS = 224.                                |
|                                                                             |
 -----------------------------------------------------------------------------



--------------------------------------------------------------------------------------------------------




 Dimension of arrays:
   k-points           NKPTS =      8   k-points in BZ     NKDIM =      8   number of bands    NBANDS=    224
   number of dos      NEDOS =    301   number of ions     NIONS =     72
   non local maximal  LDIM  =      5   non local SUM 2l+1 LMDIM =     13
   total plane-waves  NPLWV = 774144
   max r-space proj   IRMAX =      1   max aug-charges    IRDMAX=  24662
   dimension x,y,z NGX =    96 NGY =   96 NGZ =   84
   dimension x,y,z NGXF=   192 NGYF=  192 NGZF=  168
   support grid    NGXF=   192 NGYF=  192 NGZF=  168
   ions per type =              36  36
   NGX,Y,Z   is equivalent  to a cutoff of  12.85, 12.76, 12.61 a.u.
   NGXF,Y,Z  is equivalent  to a cutoff of  25.71, 25.51, 25.23 a.u.

 SYSTEM =  01_AOPT                                 
 POSCAR =  Ge Se                                   

 Startparameter for this run:
   NWRITE =      2    write-flag & timer
   PREC   = accura    normal or accurate (medium, high low for compatibility)
   ISTART =      0    job   : 0-new  1-cont  2-samecut
   ICHARG =      2    charge: 1-file 2-atom 10-const
   ISPIN  =      2    spin polarized calculation?
   LNONCOLLINEAR =      F non collinear calculations
   LSORBIT =      F    spin-orbit coupling
   INIWAV =      1    electr: 0-lowe 1-rand  2-diag
   LASPH  =      T    aspherical Exc in radial PAW
 Electronic Relaxation 1
   ENCUT  =  520.0 eV  38.22 Ry    6.18 a.u.  23.09 23.26 20.58*2*pi/ulx,y,z
   ENINI  =  520.0     initial cutoff
   ENAUG  =  446.8 eV  augmentation charge cutoff
   NELM   =    100;   NELMIN=  5; NELMDL=  0     # of ELM steps 
   EDIFF  = 0.1E-05   stopping-criterion for ELM
   LREAL  =      F    real-space projection
   NLSPLINE    = F    spline interpolate recip. space projectors
   LCOMPAT=      F    compatible to vasp.4.4
   GGA_COMPAT  = T    GGA compatible to vasp.4.4-vasp.4.6
   LMAXPAW     = -100 max onsite density
   LMAXMIX     =    2 max onsite mixed and CHGCAR
   VOSKOWN=      0    Vosko Wilk Nusair interpolation
   ROPT   =    0.00000   0.00000
 Ionic relaxation
   EDIFFG = 0.1E-04   stopping-criterion for IOM
   NSW    =      0    number of steps for IOM
   NBLOCK =      1;   KBLOCK =      1    inner block; outer block 
   IBRION =     -1    ionic relax: 0-MD 1-quasi-New 2-CG
   NFREE  =      0    steps in history (QN), initial steepest desc. (CG)
   ISIF   =      2    stress and relaxation
   IWAVPR =     10    prediction:  0-non 1-charg 2-wave 3-comb
   ISYM   =     -1    0-nonsym 1-usesym 2-fastsym
   LCORR  =      T    Harris-Foulkes like correction to forces

   POTIM  = 0.5000    time-step for ionic-motion
   TEIN   =    0.0    initial temperature
   TEBEG  =    0.0;   TEEND  =   0.0 temperature during run
   SMASS  =  -3.00    Nose mass-parameter (am)
   estimated Nose-frequenzy (Omega)   =  0.10E-29 period in steps = 0.13E+47 mass=  -0.352E-26a.u.
   SCALEE = 1.0000    scale energy and forces
   NPACO  =    256;   APACO  = 10.0  distance and # of slots for P.C.
   PSTRESS=    0.0 pullay stress

  Mass of Ions in am
   POMASS =  72.61 78.96
  Ionic Valenz
   ZVAL   =   4.00  6.00
  Atomic Wigner-Seitz radii
   RWIGS  =  -1.00 -1.00
  virtual crystal weights 
   VCA    =   1.00  1.00
   NELECT =     360.0000    total number of electrons
   NUPDOWN=      -1.0000    fix difference up-down

 DOS related values:
   EMIN   =  10.00;   EMAX   =-10.00  energy-range for DOS
   EFERMI =   0.00;   METHOD = LEGACY      
   ISMEAR =     0;   SIGMA  =   0.05  broadening in eV -4-tet -1-fermi 0-gaus

 Electronic relaxation 2 (details)
   IALGO  =     38    algorithm
   LDIAG  =      T    sub-space diagonalisation (order eigenvalues)
   LSUBROT=      F    optimize rotation matrix (better conditioning)
   TURBO    =      0    0=normal 1=particle mesh
   IRESTART =      0    0=no restart 2=restart with 2 vectors
   NREBOOT  =      0    no. of reboots
   NMIN     =      0    reboot dimension
   EREF     =   0.00    reference energy to select bands
   IMIX   =      4    mixing-type and parameters
     AMIX     =   0.40;   BMIX     =  1.00
     AMIX_MAG =   1.60;   BMIX_MAG =  1.00
     AMIN     =   0.10
     WC   =   100.;   INIMIX=   1;  MIXPRE=   1;  MAXMIX= -45

 Intra band minimization:
   WEIMIN = 0.0000     energy-eigenvalue tresh-hold
   EBREAK =  0.11E-08  absolut break condition
   DEPER  =   0.30     relativ break condition  

   TIME   =   0.40     timestep for ELM

  volume/ion in A,a.u.               =      23.89       161.19
  Fermi-wavevector in a.u.,A,eV,Ry     =   0.972048  1.836904 12.855829  0.944877
  Thomas-Fermi vector in A             =   2.102315
 
 Write flags
   LWAVE        =      F    write WAVECAR
   LDOWNSAMPLE  =      F    k-point downsampling of WAVECAR
   LCHARG       =      F    write CHGCAR
   LVTOT        =      F    write LOCPOT, total local potential
   LVHAR        =      F    write LOCPOT, Hartree potential only
   LELF         =      F    write electronic localiz. function (ELF)
   LORBIT       =     11    0 simple, 1 ext, 2 COOP (PROOUT), +10 PAW based schemes


 Dipole corrections
   LMONO  =      F    monopole corrections only (constant potential shift)
   LDIPOL =      F    correct potential (dipole corrections)
   IDIPOL =      0    1-x, 2-y, 3-z, 4-all directions 
   EPSILON=  1.0000000 bulk dielectric constant

 Exchange correlation treatment:
   GGA     =    PE    GGA type
   LEXCH   =     8    internal setting for exchange type
   LIBXC   =     F    Libxc                    
   VOSKOWN =     0    Vosko Wilk Nusair interpolation
   LHFCALC =     F    Hartree Fock is set to
   LHFONE  =     F    Hartree Fock one center treatment
   AEXX    =    0.0000 exact exchange contribution

 Linear response parameters
   LEPSILON=     F    determine dielectric tensor
   LRPA    =     F    only Hartree local field effects (RPA)
   LNABLA  =     F    use nabla operator in PAW spheres
   LVEL    =     F    velocity operator in full k-point grid
   CSHIFT  =0.1000    complex shift for real part using Kramers Kronig
   OMEGAMAX=  -1.0    maximum frequency
   DEG_THRESHOLD= 0.2000000E-02 threshold for treating states as degnerate
   RTIME   =   -0.100 relaxation time in fs
  (WPLASMAI=    0.000 imaginary part of plasma frequency in eV, 0.658/RTIME)
   DFIELD  = 0.0000000 0.0000000 0.0000000 field for delta impulse in time
 
  Optional k-point grid parameters
   LKPOINTS_OPT  =     F    use optional k-point grid
   KPOINTS_OPT_MODE=     1    mode for optional k-point grid
 
 Orbital magnetization related:
   ORBITALMAG=     F  switch on orbital magnetization
   LCHIMAG   =     F  perturbation theory with respect to B field
   DQ        =  0.001000  dq finite difference perturbation B field
   LLRAUG    =     F  two centre corrections for induced B field
   LBONE     =     F  B-component reconstruction in AE one-centre
   LVGVCALC  =     T  calculate vGv susceptibility
   LVGVAPPL  =     F  apply vGv susceptibility instead of pGv for G=0

 Random number generation:
   RANDOM_GENERATOR = DEFAULT
   PCG_SEED         = not used


--------------------------------------------------------------------------------------------------------


 Static calculation
 charge density and potential will be updated during run
 spin polarized calculation
 Variant of blocked Davidson
 Davidson routine will perform the subspace rotation
 perform sub-space diagonalisation
    after iterative eigenvector-optimisation
 modified Broyden-mixing scheme, WC =      100.0
 initial mixing is a Kerker type mixing with AMIX =  0.4000 and BMIX =      1.0000
 Hartree-type preconditioning will be used
 using additional bands            44
 reciprocal scheme for non local part
 use partial core corrections
 calculate Harris-corrections to forces 
   (improved forces if not selfconsistent)
 use gradient corrections 
 use of overlap-Matrix (Vanderbilt PP)
 Gauss-broadening in eV      SIGMA  =   0.05


--------------------------------------------------------------------------------------------------------


  energy-cutoff  :      520.00
  volume of cell :     1719.75
      direct lattice vectors                 reciprocal lattice vectors
    12.416900215 -0.000008135  0.000003058     0.080535398  0.000000053 -0.000000026
    -0.000008197 12.510806223  0.000000082     0.000000052  0.079930900 -0.000000001
     0.000003510  0.000000093 11.070461698    -0.000000022 -0.000000001  0.090330469

  length of vectors
    12.416900215 12.510806223 11.070461698     0.080535398  0.079930900  0.090330469


 
 k-points in units of 2pi/SCALE and weight: KPOINTS created by Atomic Simulation Env
   0.00000000  0.00000000  0.00000000       0.125
   0.04026770  0.00000003 -0.00000001       0.125
   0.00000003  0.03996545 -0.00000000       0.125
   0.04026773  0.03996548 -0.00000001       0.125
  -0.00000001 -0.00000000  0.04516523       0.125
   0.04026769  0.00000003  0.04516522       0.125
   0.00000002  0.03996545  0.04516523       0.125
   0.04026771  0.03996548  0.04516522       0.125
 
 k-points in reciprocal lattice and weights: KPOINTS created by Atomic Simulation Env
   0.00000000  0.00000000  0.00000000       0.125
   0.50000000  0.00000000  0.00000000       0.125
   0.00000000  0.50000000  0.00000000       0.125
   0.50000000  0.50000000  0.00000000       0.125
   0.00000000  0.00000000  0.50000000       0.125
   0.50000000  0.00000000  0.50000000       0.125
   0.00000000  0.50000000  0.50000000       0.125
   0.50000000  0.50000000  0.50000000       0.125
 
 position of ions in fractional coordinates (direct lattice) 
   0.05630052  0.05300092  0.12382511
   0.26244107  0.88378831  0.37129849
   0.56668279  0.21923642  0.37668151
   0.55413401  0.53988215  0.37058269
   0.58666393  0.87532775  0.37978318
   0.89520795  0.20328710  0.36402199
   0.91989502  0.54668019  0.35442755
   0.91271015  0.88035534  0.36613405
   0.07471461  0.16490114  0.63696565
   0.08261036  0.47926782  0.64286978
   0.07416659  0.82015668  0.64675772
   0.39030674  0.15309854  0.62138347
   0.41742299  0.49188763  0.62485387
   0.39709809  0.82399186  0.65188472
   0.72522077  0.17270382  0.64279527
   0.73963362  0.48973292  0.62532804
   0.22736363  0.53064965  0.36720864
   0.21491488  0.19731826  0.38700413
   0.74794661  0.81609806  0.64635193
   0.90459980  0.63943072  0.88443955
   0.90182345  0.00395696  0.87142546
   0.05486737  0.37138985  0.12461224
   0.07025944  0.71548997  0.13392175
   0.38211116  0.03703346  0.13164582
   0.39701457  0.37601578  0.14052080
   0.71597418  0.05125580  0.13158706
   0.71070073  0.38030572  0.13627639
   0.39152255  0.70718321  0.12550401
   0.25385605  0.32008433  0.87284298
   0.23401133  0.65154401  0.87036247
   0.23435000  0.00298254  0.86035291
   0.55208376  0.32734490  0.85918520
   0.56098687  0.66044397  0.86693526
   0.57183740  0.96222063  0.88393098
   0.88480404  0.32965933  0.85442927
   0.71793680  0.70501280  0.13722203
   0.90801226  0.02483851  0.63695380
   0.25403671  0.35773643  0.64829789
   0.23499881  0.67817942  0.64832308
   0.56932273  0.02557008  0.63417474
   0.57411209  0.35127129  0.64156757
   0.57862164  0.68542106  0.63716020
   0.91301753  0.34973354  0.61909623
   0.74657571  0.01353713  0.36116326
   0.08186187  0.02038047  0.35479190
   0.07626933  0.35148880  0.37309695
   0.07493839  0.67881990  0.37013077
   0.39941793  0.03149369  0.36201748
   0.41275208  0.35859790  0.37003287
   0.39647814  0.67415925  0.36110692
   0.23999125  0.00326822  0.63228837
   0.91256676  0.67495585  0.64200999
   0.92089766  0.85583772  0.14439430
   0.23503687  0.19039214  0.15584039
   0.89120336  0.18331064  0.13056094
   0.72523956  0.33484142  0.36623515
   0.09306543  0.17378549  0.86882051
   0.07475219  0.52065276  0.86223880
   0.07047610  0.86430912  0.86513576
   0.40789238  0.17673607  0.85475126
   0.40444840  0.51617462  0.86600599
   0.41086432  0.84107820  0.87247509
   0.73622716  0.19001581  0.86423305
   0.74475511  0.50660456  0.86341511
   0.74622436  0.84579792  0.87417949
   0.22838027  0.50358235  0.13056246
   0.24996351  0.84710488  0.14618648
   0.56009984  0.18953682  0.13655513
   0.57549676  0.52794554  0.15005070
   0.56041240  0.84396820  0.15873928
   0.91197291  0.52353374  0.13679982
   0.74384796  0.68285388  0.36215261
 
 position of ions in cartesian coordinates  (Angst):
   0.69907792  0.66308379  1.37080127
   3.25869861 11.05690215  4.11044659
   7.03644320  2.74281983  4.17004002
   6.88062353  6.75435655  4.10252319
   7.28454164 10.95105110  4.20437699
  11.11570742  2.54327821  4.02989427
  11.42224149  6.83940247  3.92367943
  11.33302494 11.01394762  4.05327588
   0.92772471  2.06304566  7.05150410
   1.02576287  5.99602622  7.11686555
   0.92091466 10.26082073  7.15990683
   4.84640080  1.91538305  6.87900310
   5.18309780  6.15390743  6.91742213
   4.93072288 10.30879935  7.21666611
   9.00499483  2.16065824  7.11604267
   9.18395503  6.12694768  6.92267245
   2.82314845  6.63885317  4.06516987
   2.66857642  2.46860884  4.28431506
   9.28717397 10.21003867  7.15541666
  11.23232335  7.99978660  9.79115693
  11.19785475  0.04949750  9.64708493
   0.68128008  4.64638596  1.37951519
   0.87239905  8.95135576  1.48257593
   4.74463631  0.46331537  1.45738117
   4.92968777  4.70425738  1.55563138
   8.89018003  0.64124559  1.45673165
   8.82469744  4.75792539  1.50864474
   4.86149107  8.84742888  1.38938861
   3.15210573  4.00451110  9.66277562
   2.90569301  8.15133901  9.63531521
   2.90990354  0.03731210  9.52450461
   6.85516927  4.09534426  9.51157859
   6.96571555  8.26268209  9.59737537
   7.10044320 12.03815122  9.78552594
  10.98652374  4.12429692  9.45892929
   8.91454425  8.82027271  1.51911352
  11.27469964  0.31074249  7.05137545
   3.15434776  4.47556913  7.17695779
   2.91795346  8.48456942  7.17723657
   7.06922558  0.31989772  7.02060894
   7.12869188  4.39468237  7.10245100
   7.18468381  8.57516548  7.05365943
  11.33684692  4.37544116  6.85368395
   9.27015720  0.16935432  3.99824631
   1.01647173  0.25497547  3.92771039
   0.94702714  4.39740762  4.13035574
   0.93049826  8.49258366  4.09751880
   4.95953358  0.39400828  4.00770191
   5.12509971  4.48634554  4.09643605
   4.92302530  8.43427250  3.99762154
   2.97994965  0.04088613  6.99972487
  11.33124717  8.44423445  7.10734989
  11.43468786 10.70721245  1.59851441
   2.91842831  2.38195723  1.72522579
  11.06598214  2.29335669  1.44537259
   9.00522584  4.18913021  4.05439449
   1.15558574  2.17419588  9.61824442
   0.92818918  6.51378531  9.54538183
   0.87509064 10.81320339  9.57745254
   5.06476050  2.21110745  9.46249238
   5.02199422  6.45775748  9.58708744
   5.10165746 10.52256317  9.65870338
   9.14166069  2.37724506  9.56746113
   9.24754874  6.33802554  9.55840623
   9.26578951 10.58160791  9.67757296
   2.83577135  6.30021931  1.44538747
   3.10376554 10.59796304  1.61835267
   6.95470270  2.37125394  1.51173003
   7.14588204  6.60501967  1.66113237
   6.95857845 10.55871801  1.75731894
  11.32387279  6.54982178  1.51443995
   9.23628162  8.54304652  4.00919891
 


--------------------------------------------------------------------------------------------------------


 k-point   1 :   0.0000 0.0000 0.0000  plane waves:   46289
 k-point   2 :   0.5000 0.0000 0.0000  plane waves:   46330
 k-point   3 :   0.0000 0.5000 0.0000  plane waves:   46306
 k-point   4 :   0.5000 0.5000 0.0000  plane waves:   46388
 k-point   5 :   0.0000 0.0000 0.5000  plane waves:   46318
 k-point   6 :   0.5000 0.0000 0.5000  plane waves:   46296
 k-point   7 :   0.0000 0.5000 0.5000  plane waves:   46268
 k-point   8 :   0.5000 0.5000 0.5000  plane waves:   46288

 maximum and minimum number of plane-waves per node :      5845     5734

 maximum number of plane-waves:     46388
 maximum index in each direction: 
   IXMAX=   23   IYMAX=   23   IZMAX=   20
   IXMIN=  -23   IYMIN=  -23   IZMIN=  -21


 parallel 3D FFT for wavefunctions:
    minimum data exchange during FFTs selected (reduces bandwidth)
 parallel 3D FFT for charge:
    minimum data exchange during FFTs selected (reduces bandwidth)


 total amount of memory used by VASP MPI-rank0   110605. kBytes
=======================================================================

   base      :      30000. kBytes
   nonl-proj :      16310. kBytes
   fftplans  :       6179. kBytes
   grid      :      15593. kBytes
   one-center:        146. kBytes
   wavefun   :      42377. kBytes
 
     INWAV:  cpu time      0.0000: real time      0.0001
 Broyden mixing: mesh for mixing (old mesh)
   NGX = 47   NGY = 47   NGZ = 41
  (NGX  =192   NGY  =192   NGZ  =168)
  gives a total of  90569 points

 initial charge density was supplied:
 charge density of overlapping atoms calculated
 number of electron     360.0000000 magnetization      72.0000000
 keeping initial charge density in first step


--------------------------------------------------------------------------------------------------------


 Maximum index for augmentation-charges           770 (set IRDMAX)


--------------------------------------------------------------------------------------------------------


 First call to EWALD:  gamma=   0.148
 Maximum number of real-space cells 3x 3x 3
 Maximum number of reciprocal cells 3x 3x 3

    FEWALD:  cpu time      0.0029: real time      0.0029


--------------------------------------- Ionic step        1  -------------------------------------------




--------------------------------------- Iteration      1(   1)  ---------------------------------------


    POTLOK:  cpu time      0.1373: real time      0.1382
    SETDIJ:  cpu time      0.5985: real time      0.6002
     EDDAV:  cpu time      8.5775: real time      8.6202
       DOS:  cpu time      0.0024: real time      0.0024
    --------------------------------------------
      LOOP:  cpu time      9.3157: real time      9.3610

 eigenvalue-minimisations  :  7168
 total energy-change (2. order) : 0.1811242E+04  (-0.1416892E+05)
 number of electron     360.0000000 magnetization      72.0000000
 augmentation part      360.0000000 magnetization      72.0000000

 Free energy of the ion-electron system (eV)
  ---------------------------------------------------
  alpha Z        PSCENC =       798.08317731
  Ewald energy   TEWEN  =    -12898.07692941
  -Hartree energ DENC   =     -1087.96412154
  -exchange      EXHF   =         0.00000000
  -V(xc)+E(xc)   XCENC  =      -294.09516612
  PAW double counting   =     10738.42099860    -9719.93139476
  entropy T*S    EENTRO =        -0.02325310
  eigenvalues    EBANDS =      1238.37705723
  atomic energy  EATOM  =     13036.45147835
  Solvation  Ediel_sol  =         0.00000000
  ---------------------------------------------------
  free energy    TOTEN  =      1811.24184656 eV

  energy without entropy =     1811.26509966  energy(sigma->0) =     1811.25347311


--------------------------------------------------------------------------------------------------------




--------------------------------------- Iteration      1(   2)  ---------------------------------------


     EDDAV:  cpu time      9.7778: real time      9.8328
       DOS:  cpu time      0.0013: real time      0.0013
    --------------------------------------------
      LOOP:  cpu time      9.7791: real time      9.8341

 eigenvalue-minimisations  :  8480
 total energy-change (2. order) :-0.1874802E+04  (-0.1799640E+04)
 number of electron     360.0000000 magnetization      72.0000000
 augmentation part      360.0000000 magnetization      72.0000000

 Free energy of the ion-electron system (eV)
  ---------------------------------------------------
  alpha Z        PSCENC =       798.08317731
  Ewald energy   TEWEN  =    -12898.07692941
  -Hartree energ DENC   =     -1087.96412154
  -exchange      EXHF   =         0.00000000
  -V(xc)+E(xc)   XCENC  =      -294.09516612
  PAW double counting   =     10738.42099860    -9719.93139476
  entropy T*S    EENTRO =        -0.01699559
  eigenvalues    EBANDS =      -636.43167365
  atomic energy  EATOM  =     13036.45147835
  Solvation  Ediel_sol  =         0.00000000
  ---------------------------------------------------
  free energy    TOTEN  =       -63.56062681 eV

  energy without entropy =      -63.54363122  energy(sigma->0) =      -63.55212901


--------------------------------------------------------------------------------------------------------




--------------------------------------- Iteration      1(   3)  ---------------------------------------


     EDDAV:  cpu time      9.7727: real time      9.8225
       DOS:  cpu time      0.0012: real time      0.0012
    --------------------------------------------
      LOOP:  cpu time      9.7739: real time      9.8237

 eigenvalue-minimisations  :  8568
 total energy-change (2. order) :-0.2181654E+03  (-0.2121025E+03)
 number of electron     360.0000000 magnetization      72.0000000
 augmentation part      360.0000000 magnetization      72.0000000

 Free energy of the ion-electron system (eV)
  ---------------------------------------------------
  alpha Z        PSCENC =       798.08317731
  Ewald energy   TEWEN  =    -12898.07692941
  -Hartree energ DENC   =     -1087.96412154
  -exchange      EXHF   =         0.00000000
  -V(xc)+E(xc)   XCENC  =      -294.09516612
  PAW double counting   =     10738.42099860    -9719.93139476
  entropy T*S    EENTRO =        -0.00004520
  eigenvalues    EBANDS =      -854.61404209
  atomic energy  EATOM  =     13036.45147835
  Solvation  Ediel_sol  =         0.00000000
  ---------------------------------------------------
  free energy    TOTEN  =      -281.72604485 eV

  energy without entropy =     -281.72599965  energy(sigma->0) =     -281.72602225


--------------------------------------------------------------------------------------------------------




--------------------------------------- Iteration      1(   4)  ---------------------------------------


     EDDAV:  cpu time     10.0131: real time     10.0629
       DOS:  cpu time      0.0011: real time      0.0011
    --------------------------------------------
      LOOP:  cpu time     10.0142: real time     10.0640

 eigenvalue-minimisations  :  8768
 total energy-change (2. order) :-0.8047182E+01  (-0.7955822E+01)
 number of electron     360.0000000 magnetization      72.0000000
 augmentation part      360.0000000 magnetization      72.0000000

 Free energy of the ion-electron system (eV)
  ---------------------------------------------------
  alpha Z        PSCENC =       798.08317731
  Ewald energy   TEWEN  =    -12898.07692941
  -Hartree energ DENC   =     -1087.96412154
  -exchange      EXHF   =         0.00000000
  -V(xc)+E(xc)   XCENC  =      -294.09516612
  PAW double counting   =     10738.42099860    -9719.93139476
  entropy T*S    EENTRO =        -0.00001438
  eigenvalues    EBANDS =      -862.66125482
  atomic energy  EATOM  =     13036.45147835
  Solvation  Ediel_sol  =         0.00000000
  ---------------------------------------------------
  free energy    TOTEN  =      -289.77322677 eV

  energy without entropy =     -289.77321239  energy(sigma->0) =     -289.77321958


--------------------------------------------------------------------------------------------------------




--------------------------------------- Iteration      1(   5)  ---------------------------------------


     EDDAV:  cpu time     10.1834: real time     10.2350
       DOS:  cpu time      0.0010: real time      0.0010
    CHARGE:  cpu time      0.4273: real time      0.4289
    MIXING:  cpu time      0.0071: real time      0.0072
    --------------------------------------------
      LOOP:  cpu time     10.6189: real time     10.6721

 eigenvalue-minimisations  :  9032
 total energy-change (2. order) :-0.2951992E+00  (-0.2943870E+00)
 number of electron     359.9999993 magnetization      48.7962462
 augmentation part      -66.8851846 magnetization      49.0088403

 Broyden mixing:
  rms(total) = 0.29102E+01    rms(broyden)= 0.29101E+01
  rms(prec ) = 0.30667E+01
  weight for this iteration     100.00

 Free energy of the ion-electron system (eV)
  ---------------------------------------------------
  alpha Z        PSCENC =       798.08317731
  Ewald energy   TEWEN  =    -12898.07692941
  -Hartree energ DENC   =     -1087.96412154
  -exchange      EXHF   =         0.00000000
  -V(xc)+E(xc)   XCENC  =      -294.09516612
  PAW double counting   =     10738.42099860    -9719.93139476
  entropy T*S    EENTRO =        -0.00001657
  eigenvalues    EBANDS =      -862.95645183
  atomic energy  EATOM  =     13036.45147835
  Solvation  Ediel_sol  =         0.00000000
  ---------------------------------------------------
  free energy    TOTEN  =      -290.06842597 eV

  energy without entropy =     -290.06840940  energy(sigma->0) =     -290.06841768


--------------------------------------------------------------------------------------------------------




--------------------------------------- Iteration      1(   6)  ---------------------------------------


    POTLOK:  cpu time      0.1333: real time      0.1353
    SETDIJ:  cpu time      0.6017: real time      0.6041
     EDDAV:  cpu time      9.2523: real time      9.2998
       DOS:  cpu time      0.0011: real time      0.0011
    CHARGE:  cpu time      0.4242: real time      0.4264
    MIXING:  cpu time      0.0078: real time      0.0078
    --------------------------------------------
      LOOP:  cpu time     10.4205: real time     10.4745

 eigenvalue-minimisations  :  7920
 total energy-change (2. order) : 0.5780663E+00  (-0.2714569E+01)
 number of electron     359.9999993 magnetization      27.9015531
 augmentation part      -66.2800931 magnetization      29.0893373

 Broyden mixing:
  rms(total) = 0.17259E+01    rms(broyden)= 0.17259E+01
  rms(prec ) = 0.17617E+01
  weight for this iteration     100.00

 eigenvalues of (default mixing * dielectric matrix)
  average eigenvalue GAMMA=   1.0087
  1.0087

 Free energy of the ion-electron system (eV)
  ---------------------------------------------------
  alpha Z        PSCENC =       798.08317731
  Ewald energy   TEWEN  =    -12898.07692941
  -Hartree energ DENC   =     -1141.09508992
  -exchange      EXHF   =         0.00000000
  -V(xc)+E(xc)   XCENC  =      -287.70192537
  PAW double counting   =     12989.66746856   -11974.61517535
  entropy T*S    EENTRO =        -0.00003428
  eigenvalues    EBANDS =      -812.20332954
  atomic energy  EATOM  =     13036.45147835
  Solvation  Ediel_sol  =         0.00000000
  ---------------------------------------------------
  free energy    TOTEN  =      -289.49035964 eV

  energy without entropy =     -289.49032536  energy(sigma->0) =     -289.49034250


--------------------------------------------------------------------------------------------------------




--------------------------------------- Iteration      1(   7)  ---------------------------------------


    POTLOK:  cpu time      0.1294: real time      0.1303
    SETDIJ:  cpu time      0.6020: real time      0.6036
     EDDAV:  cpu time      9.3666: real time      9.4397
       DOS:  cpu time      0.0011: real time      0.0011
    CHARGE:  cpu time      0.4234: real time      0.4250
    MIXING:  cpu time      0.0073: real time      0.0073
    --------------------------------------------
      LOOP:  cpu time     10.5298: real time     10.6070

 eigenvalue-minimisations  :  8056
 total energy-change (2. order) :-0.7459143E+01  (-0.8588153E+00)
 number of electron     359.9999993 magnetization       9.3633086
 augmentation part      -66.2570029 magnetization      10.0419980

 Broyden mixing:
  rms(total) = 0.90662E+00    rms(broyden)= 0.90662E+00
  rms(prec ) = 0.92209E+00
  weight for this iteration     100.00

 eigenvalues of (default mixing * dielectric matrix)
  average eigenvalue GAMMA=   1.4429
  0.8633  2.0225

 Free energy of the ion-electron system (eV)
  ---------------------------------------------------
  alpha Z        PSCENC =       798.08317731
  Ewald energy   TEWEN  =    -12898.07692941
  -Hartree energ DENC   =     -1158.00136111
  -exchange      EXHF   =         0.00000000
  -V(xc)+E(xc)   XCENC  =      -290.65915677
  PAW double counting   =     15052.13531178   -14038.64002770
  entropy T*S    EENTRO =        -0.00000001
  eigenvalues    EBANDS =      -798.24199488
  atomic energy  EATOM  =     13036.45147835
  Solvation  Ediel_sol  =         0.00000000
  ---------------------------------------------------
  free energy    TOTEN  =      -296.94950243 eV

  energy without entropy =     -296.94950243  energy(sigma->0) =     -296.94950243


--------------------------------------------------------------------------------------------------------




--------------------------------------- Iteration      1(   8)  ---------------------------------------


    POTLOK:  cpu time      0.1294: real time      0.1301
    SETDIJ:  cpu time      0.6037: real time      0.6054
     EDDAV:  cpu time      9.4474: real time      9.4977
       DOS:  cpu time      0.0009: real time      0.0009
    CHARGE:  cpu time      0.4143: real time      0.4162
    MIXING:  cpu time      0.0078: real time      0.0079
    --------------------------------------------
      LOOP:  cpu time     10.6035: real time     10.6582

 eigenvalue-minimisations  :  8136
 total energy-change (2. order) :-0.3236866E+01  (-0.1718968E+00)
 number of electron     359.9999993 magnetization       4.4459919
 augmentation part      -66.2723250 magnetization       4.7573026

 Broyden mixing:
  rms(total) = 0.33709E+00    rms(broyden)= 0.33709E+00
  rms(prec ) = 0.34227E+00
  weight for this iteration     100.00

 eigenvalues of (default mixing * dielectric matrix)
  average eigenvalue GAMMA=   1.3550
  2.4911  0.9250  0.6487

 Free energy of the ion-electron system (eV)
  ---------------------------------------------------
  alpha Z        PSCENC =       798.08317731
  Ewald energy   TEWEN  =    -12898.07692941
  -Hartree energ DENC   =     -1161.82646071
  -exchange      EXHF   =         0.00000000
  -V(xc)+E(xc)   XCENC  =      -290.47221167
  PAW double counting   =     16773.91405761   -15761.28818268
  entropy T*S    EENTRO =        -0.00000000
  eigenvalues    EBANDS =      -796.97129726
  atomic energy  EATOM  =     13036.45147835
  Solvation  Ediel_sol  =         0.00000000
  ---------------------------------------------------
  free energy    TOTEN  =      -300.18636846 eV

  energy without entropy =     -300.18636846  energy(sigma->0) =     -300.18636846


--------------------------------------------------------------------------------------------------------




--------------------------------------- Iteration      1(   9)  ---------------------------------------


    POTLOK:  cpu time      0.1298: real time      0.1305
    SETDIJ:  cpu time      0.6024: real time      0.6047
     EDDAV:  cpu time     10.2813: real time     10.3363
       DOS:  cpu time      0.0008: real time      0.0008
    CHARGE:  cpu time      0.4217: real time      0.4233
    MIXING:  cpu time      0.0080: real time      0.0080
    --------------------------------------------
      LOOP:  cpu time     11.4440: real time     11.5036

 eigenvalue-minimisations  :  9112
 total energy-change (2. order) :-0.3865079E+00  (-0.4324544E-01)
 number of electron     359.9999993 magnetization       2.2749810
 augmentation part      -66.3130782 magnetization       2.4299603

 Broyden mixing:
  rms(total) = 0.14842E+00    rms(broyden)= 0.14842E+00
  rms(prec ) = 0.15004E+00
  weight for this iteration     100.00

 eigenvalues of (default mixing * dielectric matrix)
  average eigenvalue GAMMA=   1.3296
  2.6337  1.2331  0.8338  0.6180

 Free energy of the ion-electron system (eV)
  ---------------------------------------------------
  alpha Z        PSCENC =       798.08317731
  Ewald energy   TEWEN  =    -12898.07692941
  -Hartree energ DENC   =     -1160.62715367
  -exchange      EXHF   =         0.00000000
  -V(xc)+E(xc)   XCENC  =      -290.52496910
  PAW double counting   =     17063.54077431   -16051.25233356
  entropy T*S    EENTRO =        -0.00000000
  eigenvalues    EBANDS =      -798.16692063
  atomic energy  EATOM  =     13036.45147835
  Solvation  Ediel_sol  =         0.00000000
  ---------------------------------------------------
  free energy    TOTEN  =      -300.57287640 eV

  energy without entropy =     -300.57287640  energy(sigma->0) =     -300.57287640


--------------------------------------------------------------------------------------------------------




--------------------------------------- Iteration      1(  10)  ---------------------------------------


    POTLOK:  cpu time      0.1288: real time      0.1295
    SETDIJ:  cpu time      0.6023: real time      0.6041
     EDDAV:  cpu time      9.4310: real time      9.4861
       DOS:  cpu time      0.0009: real time      0.0009
    CHARGE:  cpu time      0.4260: real time      0.4280
    MIXING:  cpu time      0.0079: real time      0.0080
    --------------------------------------------
      LOOP:  cpu time     10.5970: real time     10.6566

 eigenvalue-minimisations  :  8152
 total energy-change (2. order) :-0.1102524E+00  (-0.9996567E-02)
 number of electron     359.9999993 magnetization       0.7290355
 augmentation part      -66.3168824 magnetization       0.7968412

 Broyden mixing:
  rms(total) = 0.72892E-01    rms(broyden)= 0.72892E-01
  rms(prec ) = 0.73914E-01
  weight for this iteration     100.00

 eigenvalues of (default mixing * dielectric matrix)
  average eigenvalue GAMMA=   1.3742
  2.7090  1.7445  0.9698  0.8223  0.6256

 Free energy of the ion-electron system (eV)
  ---------------------------------------------------
  alpha Z        PSCENC =       798.08317731
  Ewald energy   TEWEN  =    -12898.07692941
  -Hartree energ DENC   =     -1160.70944948
  -exchange      EXHF   =         0.00000000
  -V(xc)+E(xc)   XCENC  =      -290.52553314
  PAW double counting   =     17075.98174250   -16063.70421480
  entropy T*S    EENTRO =        -0.00000000
  eigenvalues    EBANDS =      -798.18340015
  atomic energy  EATOM  =     13036.45147835
  Solvation  Ediel_sol  =         0.00000000
  ---------------------------------------------------
  free energy    TOTEN  =      -300.68312882 eV

  energy without entropy =     -300.68312882  energy(sigma->0) =     -300.68312882


--------------------------------------------------------------------------------------------------------




--------------------------------------- Iteration      1(  11)  ---------------------------------------


    POTLOK:  cpu time      0.1291: real time      0.1298
    SETDIJ:  cpu time      0.6039: real time      0.6057
     EDDAV:  cpu time     10.1762: real time     10.2372
       DOS:  cpu time      0.0009: real time      0.0009
    CHARGE:  cpu time      0.4272: real time      0.4288
    MIXING:  cpu time      0.0077: real time      0.0077
    --------------------------------------------
      LOOP:  cpu time     11.3449: real time     11.4100

 eigenvalue-minimisations  :  8952
 total energy-change (2. order) :-0.3094247E-01  (-0.3639498E-02)
 number of electron     359.9999993 magnetization       0.1763705
 augmentation part      -66.3025252 magnetization       0.1949474

 Broyden mixing:
  rms(total) = 0.28482E-01    rms(broyden)= 0.28482E-01
  rms(prec ) = 0.28998E-01
  weight for this iteration     100.00

 eigenvalues of (default mixing * dielectric matrix)
  average eigenvalue GAMMA=   1.4079
  2.9189  2.1769  1.1737  0.8576  0.6953  0.6248

 Free energy of the ion-electron system (eV)
  ---------------------------------------------------
  alpha Z        PSCENC =       798.08317731
  Ewald energy   TEWEN  =    -12898.07692941
  -Hartree energ DENC   =     -1161.79035705
  -exchange      EXHF   =         0.00000000
  -V(xc)+E(xc)   XCENC  =      -290.48723719
  PAW double counting   =     16999.25745040   -15986.95388030
  entropy T*S    EENTRO =        -0.00000000
  eigenvalues    EBANDS =      -797.19777340
  atomic energy  EATOM  =     13036.45147835
  Solvation  Ediel_sol  =         0.00000000
  ---------------------------------------------------
  free energy    TOTEN  =      -300.71407129 eV

  energy without entropy =     -300.71407129  energy(sigma->0) =     -300.71407129


--------------------------------------------------------------------------------------------------------




--------------------------------------- Iteration      1(  12)  ---------------------------------------


    POTLOK:  cpu time      0.1293: real time      0.1313
    SETDIJ:  cpu time      0.6025: real time      0.6049
     EDDAV:  cpu time      9.8161: real time      9.8752
       DOS:  cpu time      0.0010: real time      0.0010
    CHARGE:  cpu time      0.4275: real time      0.4293
    MIXING:  cpu time      0.0078: real time      0.0078
    --------------------------------------------
      LOOP:  cpu time     10.9842: real time     11.0495

 eigenvalue-minimisations  :  8528
 total energy-change (2. order) :-0.3145567E-02  (-0.4346703E-03)
 number of electron     359.9999993 magnetization       0.0593559
 augmentation part      -66.3017327 magnetization       0.0637620

 Broyden mixing:
  rms(total) = 0.10673E-01    rms(broyden)= 0.10673E-01
  rms(prec ) = 0.11278E-01
  weight for this iteration     100.00

 eigenvalues of (default mixing * dielectric matrix)
  average eigenvalue GAMMA=   1.3671
  3.0074  2.3335  1.2001  0.8819  0.8819  0.6094  0.6554

 Free energy of the ion-electron system (eV)
  ---------------------------------------------------
  alpha Z        PSCENC =       798.08317731
  Ewald energy   TEWEN  =    -12898.07692941
  -Hartree energ DENC   =     -1161.89061278
  -exchange      EXHF   =         0.00000000
  -V(xc)+E(xc)   XCENC  =      -290.49178578
  PAW double counting   =     16962.44034120   -15950.11426634
  entropy T*S    EENTRO =        -0.00000000
  eigenvalues    EBANDS =      -797.11861941
  atomic energy  EATOM  =     13036.45147835
  Solvation  Ediel_sol  =         0.00000000
  ---------------------------------------------------
  free energy    TOTEN  =      -300.71721686 eV

  energy without entropy =     -300.71721686  energy(sigma->0) =     -300.71721686


--------------------------------------------------------------------------------------------------------




--------------------------------------- Iteration      1(  13)  ---------------------------------------


    POTLOK:  cpu time      0.1289: real time      0.1296
    SETDIJ:  cpu time      0.6024: real time      0.6042
     EDDAV:  cpu time     10.9696: real time     11.0260
       DOS:  cpu time      0.0009: real time      0.0009
    CHARGE:  cpu time      0.4266: real time      0.4285
    MIXING:  cpu time      0.0076: real time      0.0077
    --------------------------------------------
      LOOP:  cpu time     12.1360: real time     12.1970

 eigenvalue-minimisations  :  9824
 total energy-change (2. order) :-0.1061082E-03  (-0.6265247E-04)
 number of electron     359.9999993 magnetization       0.0164117
 augmentation part      -66.3030699 magnetization       0.0172274

 Broyden mixing:
  rms(total) = 0.43567E-02    rms(broyden)= 0.43567E-02
  rms(prec ) = 0.45584E-02
  weight for this iteration     100.00

 eigenvalues of (default mixing * dielectric matrix)
  average eigenvalue GAMMA=   1.3477
  3.0540  2.4345  1.0780  1.0780  1.0176  0.8621  0.6487  0.6085

 Free energy of the ion-electron system (eV)
  ---------------------------------------------------
  alpha Z        PSCENC =       798.08317731
  Ewald energy   TEWEN  =    -12898.07692941
  -Hartree energ DENC   =     -1161.78938007
  -exchange      EXHF   =         0.00000000
  -V(xc)+E(xc)   XCENC  =      -290.50300931
  PAW double counting   =     16948.27499850   -15935.93786967
  entropy T*S    EENTRO =        -0.00000000
  eigenvalues    EBANDS =      -797.21978868
  atomic energy  EATOM  =     13036.45147835
  Solvation  Ediel_sol  =         0.00000000
  ---------------------------------------------------
  free energy    TOTEN  =      -300.71732297 eV

  energy without entropy =     -300.71732297  energy(sigma->0) =     -300.71732297


--------------------------------------------------------------------------------------------------------




--------------------------------------- Iteration      1(  14)  ---------------------------------------


    POTLOK:  cpu time      0.1286: real time      0.1292
    SETDIJ:  cpu time      0.6038: real time      0.6055
     EDDAV:  cpu time      9.5542: real time      9.6068
       DOS:  cpu time      0.0008: real time      0.0008
    CHARGE:  cpu time      0.4268: real time      0.4285
    MIXING:  cpu time      0.0079: real time      0.0080
    --------------------------------------------
      LOOP:  cpu time     10.7221: real time     10.7788

 eigenvalue-minimisations  :  8240
 total energy-change (2. order) :-0.1527925E-04  (-0.8517313E-05)
 number of electron     359.9999993 magnetization       0.0054535
 augmentation part      -66.3027369 magnetization       0.0058199

 Broyden mixing:
  rms(total) = 0.17145E-02    rms(broyden)= 0.17145E-02
  rms(prec ) = 0.18160E-02
  weight for this iteration     100.00

 eigenvalues of (default mixing * dielectric matrix)
  average eigenvalue GAMMA=   1.3310
  3.0797  2.4649  1.4324  1.2126  0.8813  0.8813  0.7754  0.6116  0.6400

 Free energy of the ion-electron system (eV)
  ---------------------------------------------------
  alpha Z        PSCENC =       798.08317731
  Ewald energy   TEWEN  =    -12898.07692941
  -Hartree energ DENC   =     -1161.79356352
  -exchange      EXHF   =         0.00000000
  -V(xc)+E(xc)   XCENC  =      -290.50359345
  PAW double counting   =     16944.09946194   -15931.75975635
  entropy T*S    EENTRO =        -0.00000000
  eigenvalues    EBANDS =      -797.21761312
  atomic energy  EATOM  =     13036.45147835
  Solvation  Ediel_sol  =         0.00000000
  ---------------------------------------------------
  free energy    TOTEN  =      -300.71733825 eV

  energy without entropy =     -300.71733825  energy(sigma->0) =     -300.71733825


--------------------------------------------------------------------------------------------------------




--------------------------------------- Iteration      1(  15)  ---------------------------------------


    POTLOK:  cpu time      0.1287: real time      0.1294
    SETDIJ:  cpu time      0.6022: real time      0.6048
     EDDAV:  cpu time     10.0225: real time     10.0768
       DOS:  cpu time      0.0007: real time      0.0007
    CHARGE:  cpu time      0.4200: real time      0.4219
    MIXING:  cpu time      0.0084: real time      0.0084
    --------------------------------------------
      LOOP:  cpu time     11.1825: real time     11.2419

 eigenvalue-minimisations  :  8768
 total energy-change (2. order) :-0.2933547E-05  (-0.1582680E-05)
 number of electron     359.9999993 magnetization       0.0018677
 augmentation part      -66.3028904 magnetization       0.0020741

 Broyden mixing:
  rms(total) = 0.77348E-03    rms(broyden)= 0.77348E-03
  rms(prec ) = 0.82109E-03
  weight for this iteration     100.00

 eigenvalues of (default mixing * dielectric matrix)
  average eigenvalue GAMMA=   1.3010
  3.0913  2.4359  1.6664  1.1162  0.9661  0.9661  0.8311  0.7004  0.6182  0.6182

 Free energy of the ion-electron system (eV)
  ---------------------------------------------------
  alpha Z        PSCENC =       798.08317731
  Ewald energy   TEWEN  =    -12898.07692941
  -Hartree energ DENC   =     -1161.77872673
  -exchange      EXHF   =         0.00000000
  -V(xc)+E(xc)   XCENC  =      -290.50416838
  PAW double counting   =     16943.65410893   -15931.31362676
  entropy T*S    EENTRO =        -0.00000000
  eigenvalues    EBANDS =      -797.23265450
  atomic energy  EATOM  =     13036.45147835
  Solvation  Ediel_sol  =         0.00000000
  ---------------------------------------------------
  free energy    TOTEN  =      -300.71734118 eV

  energy without entropy =     -300.71734118  energy(sigma->0) =     -300.71734118


--------------------------------------------------------------------------------------------------------




--------------------------------------- Iteration      1(  16)  ---------------------------------------


    POTLOK:  cpu time      0.1285: real time      0.1292
    SETDIJ:  cpu time      0.6035: real time      0.6051
     EDDAV:  cpu time      6.5456: real time      6.5807
       DOS:  cpu time      0.0007: real time      0.0007
    --------------------------------------------
      LOOP:  cpu time      7.2782: real time      7.3156

 eigenvalue-minimisations  :  4808
 total energy-change (2. order) :-0.5246598E-06  (-0.1425471E-06)
 number of electron     359.9999993 magnetization       0.0018677
 augmentation part      -66.3028904 magnetization       0.0020741

 Free energy of the ion-electron system (eV)
  ---------------------------------------------------
  alpha Z        PSCENC =       798.08317731
  Ewald energy   TEWEN  =    -12898.07692941
  -Hartree energ DENC   =     -1161.77043015
  -exchange      EXHF   =         0.00000000
  -V(xc)+E(xc)   XCENC  =      -290.50458245
  PAW double counting   =     16943.59626347   -15931.25548456
  entropy T*S    EENTRO =        -0.00000000
  eigenvalues    EBANDS =      -797.24083427
  atomic energy  EATOM  =     13036.45147835
  Solvation  Ediel_sol  =         0.00000000
  ---------------------------------------------------
  free energy    TOTEN  =      -300.71734170 eV

  energy without entropy =     -300.71734170  energy(sigma->0) =     -300.71734170


--------------------------------------------------------------------------------------------------------




 average (electrostatic) potential at core
  the test charge radii are     1.1631  1.0808
  (the norm of the test charge is              1.0000)
       1 -33.4634       2 -33.3747       3 -33.2821       4 -33.3418       5 -33.5606
       6 -33.6129       7 -33.2173       8 -33.3461       9 -33.6194      10 -33.3160
      11 -33.3047      12 -33.4427      13 -33.6707      14 -33.5074      15 -33.3876
      16 -33.6965      17 -33.4198      18 -33.4430      19 -33.3696      20 -33.4387
      21 -33.5467      22 -33.5731      23 -33.4671      24 -33.5136      25 -33.5530
      26 -33.4581      27 -33.5732      28 -33.4725      29 -33.3870      30 -33.4273
      31 -33.4985      32 -33.4895      33 -33.6177      34 -33.4916      35 -33.5276
      36 -33.4701      37 -54.6039      38 -54.9036      39 -54.8756      40 -54.5025
      41 -55.1156      42 -54.8015      43 -54.8835      44 -54.8557      45 -54.7795
      46 -54.7313      47 -54.7842      48 -54.7509      49 -54.7877      50 -54.6816
      51 -54.9660      52 -54.6139      53 -54.6601      54 -54.7546      55 -54.8885
      56 -54.8666      57 -54.8224      58 -54.9365      59 -54.7354      60 -54.8993
      61 -54.9339      62 -55.0810      63 -54.9128      64 -54.9121      65 -54.8609
      66 -54.7421      67 -54.9428      68 -54.7398      69 -55.0687      70 -54.8794
      71 -54.8124      72 -54.5504
 
 
 
 E-fermi :   3.5405     XC(G=0):  -9.3903     alpha+bet : -8.8341

 Fermi energy:         3.5404879337

 spin component 1

 k-point     1 :       0.0000    0.0000    0.0000
  band No.  band energies     occupation 
      1     -10.8791      1.00000
      2     -10.5160      1.00000
      3     -10.4612      1.00000
      4     -10.3300      1.00000
      5     -10.2932      1.00000
      6     -10.1876      1.00000
      7     -10.1151      1.00000
      8      -9.9928      1.00000
      9      -9.9609      1.00000
     10      -9.9306      1.00000
     11      -9.8581      1.00000
     12      -9.8045      1.00000
     13      -9.7678      1.00000
     14      -9.7177      1.00000
     15      -9.6949      1.00000
     16      -9.6421      1.00000
     17      -9.5632      1.00000
     18      -9.5530      1.00000
     19      -9.5035      1.00000
     20      -9.4616      1.00000
     21      -9.4409      1.00000
     22      -9.4049      1.00000
     23      -9.3592      1.00000
     24      -9.3081      1.00000
     25      -9.2723      1.00000
     26      -9.2390      1.00000
     27      -9.1985      1.00000
     28      -9.1470      1.00000
     29      -9.1281      1.00000
     30      -9.1105      1.00000
     31      -9.0343      1.00000
     32      -9.0201      1.00000
     33      -8.9629      1.00000
     34      -8.9096      1.00000
     35      -8.8684      1.00000
     36      -8.8221      1.00000
     37      -5.3528      1.00000
     38      -5.3103      1.00000
     39      -5.2468      1.00000
     40      -5.1937      1.00000
     41      -5.0317      1.00000
     42      -4.9951      1.00000
     43      -4.9382      1.00000
     44      -4.9165      1.00000
     45      -4.7599      1.00000
     46      -4.7024      1.00000
     47      -4.5600      1.00000
     48      -4.4721      1.00000
     49      -4.4614      1.00000
     50      -4.4073      1.00000
     51      -4.3887      1.00000
     52      -4.3754      1.00000
     53      -4.3249      1.00000
     54      -4.2790      1.00000
     55      -4.2727      1.00000
     56      -4.2662      1.00000
     57      -4.2492      1.00000
     58      -4.2320      1.00000
     59      -4.1834      1.00000
     60      -4.1463      1.00000
     61      -4.1345      1.00000
     62      -4.0587      1.00000
     63      -3.9833      1.00000
     64      -3.9628      1.00000
     65      -3.8492      1.00000
     66      -3.7757      1.00000
     67      -3.7439      1.00000
     68      -3.6210      1.00000
     69      -3.5483      1.00000
     70      -3.5113      1.00000
     71      -2.5573      1.00000
     72      -2.4046      1.00000
     73      -1.7964      1.00000
     74      -1.5982      1.00000
     75      -1.5678      1.00000
     76      -1.5329      1.00000
     77      -1.4754      1.00000
     78      -1.3998      1.00000
     79      -1.3695      1.00000
     80      -1.2954      1.00000
     81      -1.2376      1.00000
     82      -1.1943      1.00000
     83      -1.0905      1.00000
     84      -1.0795      1.00000
     85      -1.0405      1.00000
     86      -0.8241      1.00000
     87      -0.7768      1.00000
     88      -0.7241      1.00000
     89      -0.6455      1.00000
     90      -0.5704      1.00000
     91      -0.5635      1.00000
     92      -0.5180      1.00000
     93      -0.4526      1.00000
     94      -0.2954      1.00000
     95      -0.1548      1.00000
     96      -0.0352      1.00000
     97      -0.0019      1.00000
     98       0.0493      1.00000
     99       0.0756      1.00000
    100       0.1187      1.00000
    101       0.1559      1.00000
    102       0.2010      1.00000
    103       0.2125      1.00000
    104       0.2556      1.00000
    105       0.2984      1.00000
    106       0.3302      1.00000
    107       0.3561      1.00000
    108       0.3932      1.00000
    109       0.4334      1.00000
    110       0.4523      1.00000
    111       0.5178      1.00000
    112       0.5440      1.00000
    113       0.5839      1.00000
    114       0.6239      1.00000
    115       0.6502      1.00000
    116       0.6790      1.00000
    117       0.6906      1.00000
    118       0.7300      1.00000
    119       0.7626      1.00000
    120       0.8231      1.00000
    121       0.8549      1.00000
    122       0.8599      1.00000
    123       0.8923      1.00000
    124       0.9432      1.00000
    125       1.0069      1.00000
    126       1.0226      1.00000
    127       1.0778      1.00000
    128       1.1053      1.00000
    129       1.1285      1.00000
    130       1.1885      1.00000
    131       1.2043      1.00000
    132       1.2189      1.00000
    133       1.2389      1.00000
    134       1.2878      1.00000
    135       1.3633      1.00000
    136       1.3827      1.00000
    137       1.4587      1.00000
    138       1.4925      1.00000
    139       1.5005      1.00000
    140       1.5732      1.00000
    141       1.5911      1.00000
    142       1.6387      1.00000
    143       1.6713      1.00000
    144       1.7027      1.00000
    145       1.7644      1.00000
    146       1.7947      1.00000
    147       1.8316      1.00000
    148       1.8558      1.00000
    149       1.8914      1.00000
    150       1.9263      1.00000
    151       1.9410      1.00000
    152       1.9674      1.00000
[...]
   -.159E+02 0.114E+00 -.217E+02   0.181E+02 0.786E+00 0.241E+02   -.205E+01 -.700E+00 -.254E+01   0.879E-04 0.229E-04 -.170E-03
   -.144E+02 -.322E+01 0.268E+02   0.159E+02 0.233E+01 -.294E+02   -.132E+01 0.955E+00 0.278E+01   -.657E-04 -.195E-03 0.334E-03
   0.114E+02 0.138E+02 0.244E+02   -.118E+02 -.145E+02 -.262E+02   0.396E+00 0.101E+01 0.232E+01   -.257E-03 -.225E-03 -.309E-03
   0.786E+01 0.916E+01 0.244E+02   -.791E+01 -.103E+02 -.264E+02   -.761E-01 0.820E+00 0.175E+01   -.277E-03 -.177E-03 0.229E-03
   -.237E+01 -.601E+00 0.352E+02   0.248E+01 -.143E+00 -.373E+02   0.182E+00 0.103E+01 0.187E+01   -.282E-03 0.439E-04 -.249E-03
   -.122E+02 0.233E+02 0.128E+02   0.123E+02 -.243E+02 -.143E+02   -.152E+00 0.848E+00 0.220E+01   0.144E-03 -.823E-04 -.969E-04
   -.787E+01 0.558E+01 0.216E+02   0.800E+01 -.641E+01 -.238E+02   -.801E-01 0.877E+00 0.150E+01   0.126E-04 -.233E-03 -.112E-03
   -.515E+01 -.550E+01 0.280E+02   0.487E+01 0.506E+01 -.299E+02   0.245E+00 0.269E+00 0.229E+01   0.169E-03 0.347E-03 -.414E-03
   0.325E+01 0.772E+01 0.188E+02   -.324E+01 -.836E+01 -.206E+02   -.146E+00 0.470E+00 0.268E+01   0.279E-03 0.217E-03 -.117E-03
   0.179E+01 -.894E+00 -.259E+02   -.181E+01 0.186E+01 0.277E+02   -.134E+00 -.821E+00 -.209E+01   0.526E-04 -.124E-04 0.337E-03
   0.134E+02 0.891E+01 -.258E+02   -.135E+02 -.906E+01 0.272E+02   0.985E-01 0.188E+00 -.146E+01   -.168E-04 -.200E-03 0.168E-03
   0.147E+02 -.561E+01 -.123E+02   -.153E+02 0.607E+01 0.138E+02   0.614E-01 -.686E+00 -.225E+01   -.160E-03 0.179E-03 0.898E-04
   -.937E+00 -.240E+02 -.263E+02   0.115E+01 0.254E+02 0.281E+02   -.688E-02 -.113E+01 -.233E+01   -.353E-03 -.799E-04 0.207E-03
   -.245E+02 -.106E+01 -.223E+02   0.256E+02 0.186E+01 0.237E+02   -.459E+00 -.123E+01 -.165E+01   -.171E-04 0.331E-04 0.335E-03
   0.146E+02 0.179E+01 -.181E+02   -.156E+02 -.178E+01 0.198E+02   0.786E+00 0.702E-01 -.185E+01   0.360E-03 -.501E-04 -.152E-03
   0.134E+01 -.200E+02 -.305E+02   -.169E+01 0.210E+02 0.322E+02   0.243E+00 -.937E+00 -.190E+01   0.685E-04 -.139E-03 0.167E-03
   0.695E+01 0.144E+02 0.235E+02   -.741E+01 -.149E+02 -.255E+02   0.573E+00 0.791E+00 0.205E+01   0.720E-04 0.579E-04 -.369E-03
   0.667E+01 -.144E+01 0.236E+02   -.657E+01 0.646E+00 -.251E+02   -.303E+00 0.104E+01 0.207E+01   0.561E-04 0.187E-03 -.376E-03
   0.207E+02 -.222E+01 0.286E+02   -.217E+02 0.268E+01 -.306E+02   0.853E+00 -.472E+00 0.166E+01   0.511E-04 -.111E-03 0.612E-03
   0.135E+01 -.881E+01 0.290E+02   -.162E+01 0.959E+01 -.304E+02   0.436E+00 -.886E+00 0.121E+01   -.110E-03 0.805E-04 0.879E-04
   0.396E+01 -.127E+02 0.246E+02   -.413E+01 0.139E+02 -.263E+02   0.312E+00 -.106E+01 0.211E+01   0.633E-04 -.145E-04 0.228E-03
   -.243E+02 -.193E+02 -.162E+02   0.251E+02 0.209E+02 0.179E+02   0.158E+00 -.731E+00 -.198E+01   -.258E-03 0.309E-04 -.845E-04
   0.220E+02 -.914E+01 -.233E+02   -.228E+02 0.949E+01 0.249E+02   0.745E+00 -.634E-01 -.205E+01   0.158E-03 0.283E-03 0.183E-04
   0.965E+01 0.140E+02 -.258E+02   -.954E+01 -.155E+02 0.280E+02   -.111E+00 0.931E+00 -.168E+01   -.177E-04 -.130E-03 -.399E-03
   0.927E+01 0.135E+02 -.276E+02   -.944E+01 -.145E+02 0.299E+02   0.229E+00 0.869E+00 -.184E+01   -.281E-04 -.126E-03 -.357E-03
   -.115E+02 0.239E+02 -.302E+02   0.119E+02 -.252E+02 0.317E+02   -.542E+00 0.143E+01 -.162E+01   -.703E-04 0.109E-03 -.697E-04
   -.625E+01 0.193E+01 -.261E+02   0.618E+01 -.249E+01 0.278E+02   0.313E+00 0.706E+00 -.207E+01   -.682E-04 -.237E-03 0.945E-04
   0.639E+01 -.257E+01 -.221E+02   -.737E+01 0.233E+01 0.241E+02   0.840E+00 -.817E-01 -.171E+01   0.133E-03 0.195E-03 -.187E-03
   0.334E+01 0.211E+02 -.301E+02   -.380E+01 -.220E+02 0.321E+02   0.220E+00 0.944E+00 -.178E+01   -.989E-04 -.163E-03 -.309E-03
   0.106E+02 -.400E+01 -.241E+02   -.114E+02 0.371E+01 0.256E+02   0.857E+00 0.160E+00 -.186E+01   0.111E-03 0.368E-04 0.283E-04
   -.790E+01 0.448E+01 -.221E+02   0.845E+01 -.547E+01 0.240E+02   -.464E+00 0.104E+01 -.205E+01   -.123E-03 0.819E-04 -.551E-03
   0.307E+01 -.116E+02 0.205E+02   -.306E+01 0.126E+02 -.221E+02   0.193E+00 -.865E+00 0.218E+01   0.605E-04 -.217E-05 0.170E-03
   0.188E+02 -.821E+01 0.259E+02   -.198E+02 0.916E+01 -.278E+02   0.369E+00 -.618E+00 0.164E+01   -.244E-03 -.164E-03 0.292E-03
   0.221E+01 0.462E+01 0.277E+02   -.276E+01 -.434E+01 -.294E+02   0.769E+00 -.416E+00 0.209E+01   0.154E-03 0.663E-04 0.344E-03
   -.448E+00 -.835E+01 0.349E+02   -.327E+00 0.889E+01 -.370E+02   0.442E+00 -.565E+00 0.145E+01   0.389E-04 -.208E-03 0.414E-03
   -.838E+01 -.167E+02 0.215E+02   0.820E+01 0.178E+02 -.232E+02   0.321E+00 -.986E+00 0.987E+00   0.237E-03 0.696E-04 0.707E-04
   0.171E+02 -.141E+01 0.231E+02   -.178E+02 0.178E+01 -.251E+02   0.457E+00 -.638E+00 0.126E+01   -.867E-05 0.737E-04 0.721E-03
   -.647E+01 -.663E+01 -.313E+02   0.637E+01 0.668E+01 0.333E+02   0.101E+00 0.996E-01 -.193E+01   0.208E-03 -.254E-03 0.312E-03
 -----------------------------------------------------------------------------------------------
   0.968E+01 0.123E+01 0.473E+00   0.515E-13 0.302E-13 -.284E-13   -.968E+01 -.123E+01 -.474E+00   -.508E-03 -.266E-03 0.479E-03
 
 
 POSITION                                       TOTAL-FORCE (eV/Angst)
 -----------------------------------------------------------------------------------
      0.69908      0.66308      1.37080         0.058592     -0.205023      0.190460
      3.25870     11.05690      4.11045        -0.534058     -0.121322      0.261007
      7.03644      2.74282      4.17004        -0.594982     -0.714520     -0.347506
      6.88062      6.75436      4.10252         0.126566      0.104287      0.657852
      7.28454     10.95105      4.20438        -0.137890      0.069283      0.439590
     11.11571      2.54328      4.02989         0.035070      0.128283     -0.185600
     11.42224      6.83940      3.92368        -0.445047     -0.028081      0.897308
     11.33302     11.01395      4.05328        -0.122728     -0.164826      0.318652
      0.92772      2.06305      7.05150        -0.369607     -0.481800      0.246767
      1.02576      5.99603      7.11687        -0.220431      0.416399     -0.684359
      0.92091     10.26082      7.15991        -0.299395     -0.048100     -0.546895
      4.84640      1.91538      6.87900         0.454940     -0.335004      0.133978
      5.18310      6.15391      6.91742        -0.249649      0.145335      0.468283
      4.93072     10.30880      7.21667         0.071231     -0.130248     -0.733292
      9.00499      2.16066      7.11604         0.116648     -0.687219     -0.485621
      9.18396      6.12695      6.92267         0.120449      0.178114      0.286765
      2.82315      6.63885      4.06517         0.074095      0.144764     -0.380142
      2.66858      2.46861      4.28432         0.145879      0.124503     -0.288738
      9.28717     10.21004      7.15542         0.136809     -0.025987     -0.178029
     11.23232      7.99979      9.79116        -0.094843      0.475008     -0.532244
     11.19785      0.04950      9.64708         0.049491     -0.280598     -0.524397
      0.68128      4.64639      1.37952         0.256253      0.119930      0.521911
      0.87240      8.95136      1.48258         0.070118     -0.066532      0.295134
      4.74464      0.46332      1.45738         0.151396      0.493311      0.238599
      4.92969      4.70426      1.55563        -0.294303     -0.069863      0.096530
      8.89018      0.64125      1.45673         0.106413     -0.064792      0.022529
      8.82470      4.75793      1.50864         0.542069     -0.396658      0.092855
      4.86149      8.84743      1.38939         0.312600     -0.256619      0.477571
      3.15211      4.00451      9.66278        -0.132381     -0.204701      0.230033
      2.90569      8.15134      9.63532         0.119713      0.113939      0.335595
      2.90990      0.03731      9.52450        -0.407608     -0.060439      0.169395
      6.85517      4.09534      9.51158         0.229513     -0.147585      0.832140
      6.96572      8.26268      9.59738         0.032003     -0.094306     -0.251733
      7.10044     12.03815      9.78553         0.378499      0.821461     -0.466998
     10.98652      4.12430      9.45893         0.178877      0.200520     -0.161836
      8.91454      8.82027      1.51911         0.184225      0.070243      0.151217
     11.27470      0.31074      7.05138         0.005542      0.308603      0.452199
      3.15435      4.47557      7.17696        -0.126021     -0.357420     -0.166777
      2.91795      8.48457      7.17724         0.290811      0.283416     -0.258136
      7.06923      0.31990      7.02061        -0.010012     -0.125013      0.674194
      7.12869      4.39468      7.10245         0.047054      0.047137     -0.642629
      7.18468      8.57517      7.05366        -0.031056     -0.172040      0.392891
     11.33685      4.37544      6.85368        -0.135045     -0.165496      0.809507
      9.27016      0.16935      3.99825        -0.156100      0.148139     -0.228079
      1.01647      0.25498      3.92771        -0.046928      0.044369     -0.030097
      0.94703      4.39741      4.13036        -0.529071     -0.225968     -0.754714
      0.93050      8.49258      4.09752         0.204742      0.235411     -0.519423
      4.95953      0.39401      4.00770         0.598268     -0.425628     -0.268117
      5.12510      4.48635      4.09644        -0.208417      0.083894     -0.185421
      4.92303      8.43427      3.99762        -0.107070      0.064735     -0.251920
      2.97995      0.04089      6.99972         0.105902      0.323617      0.048642
     11.33125      8.44423      7.10735        -0.206150      0.247015      0.586940
     11.43469     10.70721      1.59851        -0.196486     -0.017188     -0.305676
      2.91843      2.38196      1.72523         0.161550     -0.107382     -0.106355
     11.06598      2.29336      1.44537         0.150115      0.113515      0.377893
      9.00523      4.18913      4.05439         0.939242      0.913760     -0.285279
      1.15559      2.17420      9.61824        -0.080060      0.284239     -0.404781
      0.92819      6.51379      9.54538         0.002621     -0.648437      0.517091
      0.87509     10.81320      9.57745         0.064482     -0.070427      0.476731
      5.06476      2.21111      9.46249        -0.106859      0.134164     -0.108158
      5.02199      6.45776      9.58709         0.250766      0.146231     -0.392507
      5.10166     10.52256      9.65870        -0.137758     -0.315058      0.315901
      9.14166      2.37725      9.56746        -0.237220      0.004342      0.246330
      9.24755      6.33803      9.55841        -0.003723     -0.127175     -0.294572
      9.26579     10.58161      9.67757         0.080719      0.044593     -0.145474
      2.83577      6.30022      1.44539         0.199357      0.187343      0.573921
      3.10377     10.59796      1.61835        -0.560503      0.337006     -0.199939
      6.95470      2.37125      1.51173         0.211812     -0.129434      0.400044
      7.14588      6.60502      1.66113        -0.332768     -0.023742     -0.666082
      6.95858     10.55872      1.75732         0.136900      0.058045     -0.641518
     11.32387      6.54982      1.51444        -0.282193     -0.274214     -0.646777
      9.23628      8.54305      4.00920        -0.004971      0.153889      0.033368
 -----------------------------------------------------------------------------------
    total drift:                               -0.001000     -0.000139     -0.000423


--------------------------------------------------------------------------------------------------------



  FREE ENERGIE OF THE ION-ELECTRON SYSTEM (eV)
  ---------------------------------------------------
  free  energy   TOTEN  =      -300.71734170 eV

  energy  without entropy=     -300.71734170  energy(sigma->0) =     -300.71734170
 


--------------------------------------------------------------------------------------------------------


    POTLOK:  cpu time      0.7298: real time      0.7321


--------------------------------------------------------------------------------------------------------


     LOOP+:  cpu time    180.9803: real time    181.9519
    4ORBIT:  cpu time      0.0000: real time      0.0000



 total charge

# of ion       s       p       d       tot
------------------------------------------
    1        1.332   0.738   0.052   2.122
    2        1.322   0.779   0.058   2.159
    3        1.314   0.808   0.064   2.186
    4        1.320   0.788   0.062   2.170
    5        1.338   0.719   0.051   2.108
    6        1.341   0.708   0.049   2.097
    7        1.314   0.812   0.062   2.189
    8        1.326   0.763   0.056   2.145
    9        1.326   0.726   0.048   2.100
   10        1.322   0.792   0.060   2.175
   11        1.324   0.771   0.057   2.152
   12        1.328   0.742   0.053   2.124
   13        1.332   0.731   0.055   2.117
   14        1.331   0.754   0.055   2.141
   15        1.321   0.767   0.057   2.145
   16        1.345   0.692   0.049   2.086
   17        1.330   0.736   0.053   2.119
   18        1.321   0.755   0.057   2.133
   19        1.323   0.754   0.051   2.128
   20        1.328   0.749   0.054   2.131
   21        1.330   0.720   0.049   2.099
   22        1.338   0.708   0.049   2.096
   23        1.327   0.742   0.052   2.122
   24        1.328   0.737   0.052   2.118
   25        1.329   0.736   0.052   2.117
   26        1.321   0.757   0.050   2.128
   27        1.335   0.741   0.052   2.127
   28        1.320   0.772   0.059   2.151
   29        1.321   0.777   0.057   2.155
   30        1.313   0.798   0.061   2.172
   31        1.325   0.758   0.058   2.141
   32        1.322   0.786   0.060   2.169
   33        1.327   0.737   0.050   2.114
   34        1.323   0.758   0.050   2.131
   35        1.327   0.750   0.050   2.128
   36        1.326   0.748   0.053   2.128
   37        1.479   2.261   0.024   3.764
   38        1.478   2.312   0.035   3.824
   39        1.479   2.300   0.034   3.812
   40        1.478   2.256   0.022   3.756
   41        1.476   2.323   0.039   3.839
   42        1.480   2.276   0.029   3.786
   43        1.485   2.260   0.031   3.776
   44        1.477   2.291   0.031   3.799
   45        1.474   2.289   0.029   3.793
   46        1.481   2.271   0.029   3.780
   47        1.478   2.294   0.032   3.804
   48        1.480   2.298   0.033   3.811
   49        1.477   2.296   0.032   3.805
   50        1.476   2.293   0.028   3.797
   51        1.480   2.288   0.035   3.802
   52        1.478   2.271   0.025   3.774
   53        1.476   2.309   0.031   3.816
   54        1.476   2.289   0.029   3.794
   55        1.479   2.286   0.031   3.796
   56        1.475   2.323   0.034   3.832
   57        1.479   2.280   0.029   3.788
   58        1.474   2.330   0.037   3.841
   59        1.475   2.305   0.031   3.811
   60        1.479   2.297   0.033   3.810
   61        1.480   2.278   0.031   3.789
   62        1.479   2.316   0.039   3.834
   63        1.479   2.308   0.035   3.822
   64        1.476   2.286   0.030   3.792
   65        1.480   2.287   0.031   3.797
   66        1.478   2.283   0.029   3.790
   67        1.475   2.323   0.036   3.834
   68        1.479   2.276   0.028   3.782
   69        1.476   2.328   0.039   3.843
   70        1.473   2.313   0.032   3.818
   71        1.475   2.314   0.033   3.823
   72        1.478   2.279   0.026   3.783
--------------------------------------------------
tot        100.949 109.701   3.089 213.739



 magnetization (x)

# of ion       s       p       d       tot
------------------------------------------
    1       -0.000   0.000   0.000   0.000
    2       -0.000  -0.000  -0.000  -0.000
    3       -0.000   0.000   0.000   0.000
    4       -0.000   0.000   0.000   0.000
    5       -0.000  -0.000  -0.000  -0.000
    6       -0.000  -0.000  -0.000  -0.000
    7       -0.000   0.000  -0.000   0.000
    8        0.000  -0.000  -0.000  -0.000
    9       -0.000   0.000  -0.000  -0.000
   10       -0.000   0.000  -0.000  -0.000
   11       -0.000  -0.000  -0.000  -0.000
   12       -0.000   0.000   0.000   0.000
   13       -0.000   0.000   0.000   0.000
   14       -0.000  -0.000  -0.000  -0.000
   15       -0.000   0.000   0.000   0.000
   16       -0.000   0.000   0.000   0.000
   17       -0.000   0.000  -0.000   0.000
   18       -0.000   0.000   0.000   0.000
   19       -0.000  -0.000  -0.000  -0.000
   20       -0.000   0.000   0.000   0.000
   21       -0.000   0.000   0.000   0.000
   22       -0.000   0.000   0.000   0.000
   23       -0.000   0.000  -0.000   0.000
   24       -0.000   0.000   0.000   0.000
   25       -0.000   0.000   0.000   0.000
   26       -0.000   0.000   0.000   0.000
   27       -0.000   0.000   0.000   0.000
   28       -0.000   0.000   0.000   0.000
   29       -0.000   0.000   0.000   0.000
   30       -0.000   0.000   0.000   0.000
   31       -0.000   0.000  -0.000   0.000
   32       -0.000   0.000   0.000   0.000
   33       -0.000   0.000   0.000   0.000
   34       -0.000   0.000   0.000   0.000
   35       -0.000   0.000   0.000   0.000
   36       -0.000   0.000   0.000   0.000
   37       -0.000  -0.000  -0.000  -0.000
   38       -0.000  -0.000   0.000  -0.000
   39       -0.000  -0.000  -0.000  -0.000
   40       -0.000  -0.000   0.000  -0.000
   41       -0.000  -0.000   0.000  -0.000
   42       -0.000  -0.000   0.000  -0.000
   43       -0.000  -0.000   0.000  -0.000
   44       -0.000  -0.000  -0.000  -0.000
   45       -0.000  -0.000  -0.000  -0.000
   46       -0.000  -0.000   0.000  -0.000
   47       -0.000  -0.000  -0.000  -0.000
   48       -0.000  -0.000   0.000  -0.000
   49       -0.000  -0.000   0.000  -0.000
   50       -0.000  -0.000   0.000  -0.000
   51       -0.000  -0.000   0.000  -0.000
   52       -0.000  -0.000  -0.000  -0.000
   53       -0.000  -0.000  -0.000  -0.000
   54       -0.000  -0.000   0.000  -0.000
   55       -0.000  -0.000   0.000  -0.000
   56       -0.000  -0.000   0.000  -0.000
   57       -0.000  -0.000   0.000  -0.000
   58       -0.000  -0.000   0.000  -0.000
   59       -0.000  -0.000  -0.000  -0.000
   60       -0.000  -0.000   0.000  -0.000
   61       -0.000  -0.000   0.000  -0.000
   62       -0.000  -0.000   0.000  -0.000
   63       -0.000  -0.000   0.000  -0.000
   64       -0.000  -0.000   0.000  -0.000
   65       -0.000  -0.000   0.000  -0.000
   66       -0.000  -0.000   0.000  -0.000
   67       -0.000  -0.000  -0.000  -0.000
   68       -0.000  -0.000   0.000  -0.000
   69       -0.000  -0.000   0.000  -0.000
   70       -0.000  -0.000   0.000  -0.000
   71       -0.000  -0.000   0.000  -0.000
   72       -0.000  -0.000  -0.000  -0.000
--------------------------------------------------
tot         -0.000  -0.000   0.000  -0.000
 

 total amount of memory used by VASP MPI-rank0   110605. kBytes
=======================================================================

   base      :      30000. kBytes
   nonl-proj :      16310. kBytes
   fftplans  :       6179. kBytes
   grid      :      15593. kBytes
   one-center:        146. kBytes
   wavefun   :      42377. kBytes
 
  
  
 General timing and accounting informations for this job:
 ========================================================
  
                  Total CPU time used (sec):      192.596
                            User time (sec):      186.584
                          System time (sec):        6.012
                         Elapsed time (sec):      195.210
  
                   Maximum memory used (kb):      316004.
                   Average memory used (kb):          N/A
  
                          Minor page faults:        98199
                          Major page faults:           42
                 Voluntary context switches:         7373
