 running  128 mpi-ranks, with    1 threads/rank, on    2 nodes
 distrk:  each k-point on   64 cores,    2 groups
 distr:  one band on    8 cores,    8 groups
 vasp.6.4.2 20Jul23 (build Oct 12 2023 10:31:02) complex                         
 POSCAR found type information on POSCAR GeSe
 POSCAR found :  2 types and      72 ions
 Reading from existing POTCAR
 -----------------------------------------------------------------------------
|                                                                             |
|           W    W    AA    RRRRR   N    N  II  N    N   GGGG   !!!           |
|           W    W   A  A   R    R  NN   N  II  NN   N  G    G  !!!           |
|           W    W  A    A  R    R  N N  N  II  N N  N  G       !!!           |
|           W WW W  AAAAAA  RRRRR   N  N N  II  N  N N  G  GGG   !            |
|           WW  WW  A    A  R   R   N   NN  II  N   NN  G    G                |
|           W    W  A    A  R    R  N    N  II  N    N   GGGG   !!!           |
|                                                                             |
|     You use a magnetic or noncollinear calculation, but did not specify     |
|     the initial magnetic moment with the MAGMOM tag. Note that a            |
|     default of 1 will be used for all atoms. This ferromagnetic setup       |
|     may break the symmetry of the crystal, in particular it may rule        |
|     out finding an antiferromagnetic solution. Thence, we recommend         |
|     setting the initial magnetic moment manually or verifying carefully     |
|     that this magnetic setup is desired.                                    |
|                                                                             |
 -----------------------------------------------------------------------------

 scaLAPACK will be used
 Reading from existing POTCAR
 -----------------------------------------------------------------------------
|                                                                             |
|               ----> ADVICE to this user running VASP <----                  |
|                                                                             |
|     You have a (more or less) 'large supercell' and for larger cells it     |
|     might be more efficient to use real-space projection operators.         |
|     Therefore, try LREAL= Auto in the INCAR file.                           |
|     Mind: For very accurate calculation, you might also keep the            |
|     reciprocal projection scheme (i.e. LREAL=.FALSE.).                      |
|                                                                             |
 -----------------------------------------------------------------------------

 LDA part: xc-table for Pade appr. of Perdew
 -----------------------------------------------------------------------------
|                                                                             |
|           W    W    AA    RRRRR   N    N  II  N    N   GGGG   !!!           |
|           W    W   A  A   R    R  NN   N  II  NN   N  G    G  !!!           |
|           W    W  A    A  R    R  N N  N  II  N N  N  G       !!!           |
|           W WW W  AAAAAA  RRRRR   N  N N  II  N  N N  G  GGG   !            |
|           WW  WW  A    A  R   R   N   NN  II  N   NN  G    G                |
|           W    W  A    A  R    R  N    N  II  N    N   GGGG   !!!           |
|                                                                             |
|     The number of bands has been changed from the values supplied in        |
|     the INCAR file. This is a result of running the parallel version.       |
|     The orbitals not found in the WAVECAR file will be initialized with     |
|     random numbers, which is usually adequate. For correlated               |
|     calculations, however, you should redo the groundstate calculation.     |
|     I found NBANDS = 220. Now, NBANDS = 224.                                |
|                                                                             |
 -----------------------------------------------------------------------------

 POSCAR, INCAR and KPOINTS ok, starting setup
 FFT: planning ... GRIDC
 FFT: planning ... GRID_SOFT
 FFT: planning ... GRID
 WAVECAR not read
 WARNING: random wavefunctions but no delay for mixing, default for NELMDL
 entering main loop
       N       E                     dE             d eps       ncg     rms          rms(c)
DAV:   1     0.181124184656E+04    0.18112E+04   -0.14169E+05  7168   0.135E+03
DAV:   2    -0.635606268090E+02   -0.18748E+04   -0.17996E+04  8480   0.204E+02
DAV:   3    -0.281726044851E+03   -0.21817E+03   -0.21210E+03  8568   0.690E+01
DAV:   4    -0.289773226768E+03   -0.80472E+01   -0.79558E+01  8768   0.131E+01
DAV:   5    -0.290068425966E+03   -0.29520E+00   -0.29439E+00  9032   0.212E+00    0.291E+01
DAV:   6    -0.289490359643E+03    0.57807E+00   -0.27146E+01  7920   0.764E+00    0.173E+01
DAV:   7    -0.296949502435E+03   -0.74591E+01   -0.85882E+00  8056   0.442E+00    0.907E+00
DAV:   8    -0.300186368462E+03   -0.32369E+01   -0.17190E+00  8136   0.224E+00    0.337E+00
DAV:   9    -0.300572876400E+03   -0.38651E+00   -0.43245E-01  9112   0.100E+00    0.148E+00
DAV:  10    -0.300683128819E+03   -0.11025E+00   -0.99966E-02  8152   0.474E-01    0.729E-01
DAV:  11    -0.300714071292E+03   -0.30942E-01   -0.36395E-02  8952   0.280E-01    0.285E-01
DAV:  12    -0.300717216859E+03   -0.31456E-02   -0.43467E-03  8528   0.115E-01    0.107E-01
DAV:  13    -0.300717322967E+03   -0.10611E-03   -0.62652E-04  9824   0.384E-02    0.436E-02
DAV:  14    -0.300717338246E+03   -0.15279E-04   -0.85173E-05  8240   0.182E-02    0.171E-02
DAV:  15    -0.300717341180E+03   -0.29335E-05   -0.15827E-05  8768   0.809E-03    0.773E-03
DAV:  16    -0.300717341705E+03   -0.52466E-06   -0.14255E-06  4808   0.270E-03
   1 F= -.30071734E+03 E0= -.30071734E+03  d E =-.271039E-12  mag=     0.0005
