 running  128 mpi-ranks, with    1 threads/rank, on    2 nodes
 distrk:  each k-point on   64 cores,    2 groups
 distr:  one band on    8 cores,    8 groups
 vasp.6.4.2 20Jul23 (build Oct 12 2023 10:31:02) complex                         
 POSCAR found type information on POSCAR GeSe
 POSCAR found :  2 types and      72 ions
 Reading from existing POTCAR
 -----------------------------------------------------------------------------
|                                                                             |
|           W    W    AA    RRRRR   N    N  II  N    N   GGGG   !!!           |
|           W    W   A  A   R    R  NN   N  II  NN   N  G    G  !!!           |
|           W    W  A    A  R    R  N N  N  II  N N  N  G       !!!           |
|           W WW W  AAAAAA  RRRRR   N  N N  II  N  N N  G  GGG   !            |
|           WW  WW  A    A  R   R   N   NN  II  N   NN  G    G                |
|           W    W  A    A  R    R  N    N  II  N    N   GGGG   !!!           |
|                                                                             |
|     You use a magnetic or noncollinear calculation, but did not specify     |
|     the initial magnetic moment with the MAGMOM tag. Note that a            |
|     default of 1 will be used for all atoms. This ferromagnetic setup       |
|     may break the symmetry of the crystal, in particular it may rule        |
|     out finding an antiferromagnetic solution. Thence, we recommend         |
|     setting the initial magnetic moment manually or verifying carefully     |
|     that this magnetic setup is desired.                                    |
|                                                                             |
 -----------------------------------------------------------------------------

 scaLAPACK will be used
 Reading from existing POTCAR
 -----------------------------------------------------------------------------
|                                                                             |
|               ----> ADVICE to this user running VASP <----                  |
|                                                                             |
|     You have a (more or less) 'large supercell' and for larger cells it     |
|     might be more efficient to use real-space projection operators.         |
|     Therefore, try LREAL= Auto in the INCAR file.                           |
|     Mind: For very accurate calculation, you might also keep the            |
|     reciprocal projection scheme (i.e. LREAL=.FALSE.).                      |
|                                                                             |
 -----------------------------------------------------------------------------

 LDA part: xc-table for Pade appr. of Perdew
 -----------------------------------------------------------------------------
|                                                                             |
|           W    W    AA    RRRRR   N    N  II  N    N   GGGG   !!!           |
|           W    W   A  A   R    R  NN   N  II  NN   N  G    G  !!!           |
|           W    W  A    A  R    R  N N  N  II  N N  N  G       !!!           |
|           W WW W  AAAAAA  RRRRR   N  N N  II  N  N N  G  GGG   !            |
|           WW  WW  A    A  R   R   N   NN  II  N   NN  G    G                |
|           W    W  A    A  R    R  N    N  II  N    N   GGGG   !!!           |
|                                                                             |
|     The number of bands has been changed from the values supplied in        |
|     the INCAR file. This is a result of running the parallel version.       |
|     The orbitals not found in the WAVECAR file will be initialized with     |
|     random numbers, which is usually adequate. For correlated               |
|     calculations, however, you should redo the groundstate calculation.     |
|     I found NBANDS = 220. Now, NBANDS = 224.                                |
|                                                                             |
 -----------------------------------------------------------------------------

 POSCAR, INCAR and KPOINTS ok, starting setup
 FFT: planning ... GRIDC
 FFT: planning ... GRID_SOFT
 FFT: planning ... GRID
 WAVECAR not read
 WARNING: random wavefunctions but no delay for mixing, default for NELMDL
 entering main loop
       N       E                     dE             d eps       ncg     rms          rms(c)
DAV:   1     0.181633158226E+04    0.18163E+04   -0.14173E+05  7168   0.135E+03
DAV:   2    -0.645504616823E+02   -0.18809E+04   -0.18058E+04  8496   0.205E+02
DAV:   3    -0.281368078415E+03   -0.21682E+03   -0.21072E+03  8544   0.692E+01
DAV:   4    -0.289601412395E+03   -0.82333E+01   -0.81470E+01  8888   0.132E+01
DAV:   5    -0.289874164437E+03   -0.27275E+00   -0.27199E+00  8992   0.209E+00    0.292E+01
DAV:   6    -0.289609576230E+03    0.26459E+00   -0.26454E+01  7952   0.761E+00    0.173E+01
DAV:   7    -0.296867324079E+03   -0.72577E+01   -0.86008E+00  8048   0.446E+00    0.910E+00
DAV:   8    -0.300086467433E+03   -0.32191E+01   -0.17313E+00  8168   0.225E+00    0.328E+00
DAV:   9    -0.300457375917E+03   -0.37091E+00   -0.42219E-01  9056   0.101E+00    0.147E+00
DAV:  10    -0.300560408484E+03   -0.10303E+00   -0.93688E-02  8136   0.462E-01    0.727E-01
DAV:  11    -0.300591447861E+03   -0.31039E-01   -0.35302E-02  8936   0.277E-01    0.290E-01
DAV:  12    -0.300594850047E+03   -0.34022E-02   -0.45988E-03  8496   0.118E-01    0.108E-01
DAV:  13    -0.300594972584E+03   -0.12254E-03   -0.59606E-04  9968   0.383E-02    0.467E-02
DAV:  14    -0.300594990907E+03   -0.18323E-04   -0.10447E-04  8288   0.193E-02    0.184E-02
DAV:  15    -0.300594994675E+03   -0.37677E-05   -0.18327E-05  8656   0.919E-03    0.810E-03
DAV:  16    -0.300594995388E+03   -0.71312E-06   -0.15780E-06  4856   0.275E-03
   1 F= -.30059500E+03 E0= -.30059500E+03  d E =-.462247E-14  mag=     0.0005
