 running  128 mpi-ranks, with    1 threads/rank, on    2 nodes
 distrk:  each k-point on   64 cores,    2 groups
 distr:  one band on    8 cores,    8 groups
 vasp.6.4.2 20Jul23 (build Oct 12 2023 10:31:02) complex                         
 POSCAR found type information on POSCAR GeSe
 POSCAR found :  2 types and      72 ions
 Reading from existing POTCAR
 -----------------------------------------------------------------------------
|                                                                             |
|           W    W    AA    RRRRR   N    N  II  N    N   GGGG   !!!           |
|           W    W   A  A   R    R  NN   N  II  NN   N  G    G  !!!           |
|           W    W  A    A  R    R  N N  N  II  N N  N  G       !!!           |
|           W WW W  AAAAAA  RRRRR   N  N N  II  N  N N  G  GGG   !            |
|           WW  WW  A    A  R   R   N   NN  II  N   NN  G    G                |
|           W    W  A    A  R    R  N    N  II  N    N   GGGG   !!!           |
|                                                                             |
|     You use a magnetic or noncollinear calculation, but did not specify     |
|     the initial magnetic moment with the MAGMOM tag. Note that a            |
|     default of 1 will be used for all atoms. This ferromagnetic setup       |
|     may break the symmetry of the crystal, in particular it may rule        |
|     out finding an antiferromagnetic solution. Thence, we recommend         |
|     setting the initial magnetic moment manually or verifying carefully     |
|     that this magnetic setup is desired.                                    |
|                                                                             |
 -----------------------------------------------------------------------------

 scaLAPACK will be used
 Reading from existing POTCAR
 -----------------------------------------------------------------------------
|                                                                             |
|               ----> ADVICE to this user running VASP <----                  |
|                                                                             |
|     You have a (more or less) 'large supercell' and for larger cells it     |
|     might be more efficient to use real-space projection operators.         |
|     Therefore, try LREAL= Auto in the INCAR file.                           |
|     Mind: For very accurate calculation, you might also keep the            |
|     reciprocal projection scheme (i.e. LREAL=.FALSE.).                      |
|                                                                             |
 -----------------------------------------------------------------------------

 LDA part: xc-table for Pade appr. of Perdew
 -----------------------------------------------------------------------------
|                                                                             |
|           W    W    AA    RRRRR   N    N  II  N    N   GGGG   !!!           |
|           W    W   A  A   R    R  NN   N  II  NN   N  G    G  !!!           |
|           W    W  A    A  R    R  N N  N  II  N N  N  G       !!!           |
|           W WW W  AAAAAA  RRRRR   N  N N  II  N  N N  G  GGG   !            |
|           WW  WW  A    A  R   R   N   NN  II  N   NN  G    G                |
|           W    W  A    A  R    R  N    N  II  N    N   GGGG   !!!           |
|                                                                             |
|     The number of bands has been changed from the values supplied in        |
|     the INCAR file. This is a result of running the parallel version.       |
|     The orbitals not found in the WAVECAR file will be initialized with     |
|     random numbers, which is usually adequate. For correlated               |
|     calculations, however, you should redo the groundstate calculation.     |
|     I found NBANDS = 220. Now, NBANDS = 224.                                |
|                                                                             |
 -----------------------------------------------------------------------------

 POSCAR, INCAR and KPOINTS ok, starting setup
 FFT: planning ... GRIDC
 FFT: planning ... GRID_SOFT
 FFT: planning ... GRID
 WAVECAR not read
 WARNING: random wavefunctions but no delay for mixing, default for NELMDL
 entering main loop
       N       E                     dE             d eps       ncg     rms          rms(c)
DAV:   1     0.181867065472E+04    0.18187E+04   -0.14197E+05  7168   0.135E+03
DAV:   2    -0.622061144579E+02   -0.18809E+04   -0.18063E+04  8448   0.205E+02
DAV:   3    -0.281756800726E+03   -0.21955E+03   -0.21335E+03  8600   0.693E+01
DAV:   4    -0.289861929094E+03   -0.81051E+01   -0.80145E+01  8736   0.131E+01
DAV:   5    -0.290154902081E+03   -0.29297E+00   -0.29217E+00  9120   0.213E+00    0.291E+01
DAV:   6    -0.289761732516E+03    0.39317E+00   -0.26919E+01  8040   0.765E+00    0.172E+01
DAV:   7    -0.297008238512E+03   -0.72465E+01   -0.87799E+00  8040   0.447E+00    0.910E+00
DAV:   8    -0.300227717618E+03   -0.32195E+01   -0.16788E+00  8176   0.221E+00    0.336E+00
DAV:   9    -0.300625893106E+03   -0.39818E+00   -0.43964E-01  9016   0.102E+00    0.149E+00
DAV:  10    -0.300736854083E+03   -0.11096E+00   -0.10206E-01  8144   0.477E-01    0.729E-01
DAV:  11    -0.300767889183E+03   -0.31035E-01   -0.36047E-02  9008   0.277E-01    0.291E-01
DAV:  12    -0.300771317559E+03   -0.34284E-02   -0.47312E-03  8344   0.121E-01    0.106E-01
DAV:  13    -0.300771428577E+03   -0.11102E-03   -0.67224E-04  9984   0.398E-02    0.445E-02
DAV:  14    -0.300771445951E+03   -0.17374E-04   -0.10219E-04  8264   0.191E-02    0.179E-02
DAV:  15    -0.300771448996E+03   -0.30454E-05   -0.15349E-05  8592   0.834E-03    0.804E-03
DAV:  16    -0.300771449836E+03   -0.83917E-06   -0.15321E-06  4888   0.254E-03
   1 F= -.30077145E+03 E0= -.30077145E+03  d E =-.277109E-15  mag=     0.0003
