 vasp.6.4.2 20Jul23 (build Oct 12 2023 10:31:02) complex                         
 executed on              LinuxNV date 2024.11.02  01:26:21
 running  128 mpi-ranks, with    1 threads/rank, on    2 nodes
 distrk:  each k-point on   64 cores,    2 groups
 distr:  one band on NCORE=   8 cores,    8 groups


--------------------------------------------------------------------------------------------------------


 INCAR:
   ENCUT = 520.000000
   SIGMA = 0.050000
   EDIFF = 1.00e-06
   ALGO = N
   GGA = PE
   PREC = Accurate
   SYSTEM = 01_AOPT
   ICHARG = 0
   ISMEAR = 0
   ISPIN = 2
   ISTART = 1
   ISYM = -1
   KPAR = 2
   LORBIT = 11
   NBANDS = 220
   NELM = 100
   NELMIN = 5
   NPAR = 8
   LASPH = .TRUE.
   LCHARG = .FALSE.
   LWAVE = .FALSE.
   LREAL = .FALSE.

 POTCAR:    PAW_PBE Ge 05Jan2001                  
 POTCAR:    PAW_PBE Se 06Sep2000                  
 -----------------------------------------------------------------------------
|                                                                             |
|           W    W    AA    RRRRR   N    N  II  N    N   GGGG   !!!           |
|           W    W   A  A   R    R  NN   N  II  NN   N  G    G  !!!           |
|           W    W  A    A  R    R  N N  N  II  N N  N  G       !!!           |
|           W WW W  AAAAAA  RRRRR   N  N N  II  N  N N  G  GGG   !            |
|           WW  WW  A    A  R   R   N   NN  II  N   NN  G    G                |
|           W    W  A    A  R    R  N    N  II  N    N   GGGG   !!!           |
|                                                                             |
|     You use a magnetic or noncollinear calculation, but did not specify     |
|     the initial magnetic moment with the MAGMOM tag. Note that a            |
|     default of 1 will be used for all atoms. This ferromagnetic setup       |
|     may break the symmetry of the crystal, in particular it may rule        |
|     out finding an antiferromagnetic solution. Thence, we recommend         |
|     setting the initial magnetic moment manually or verifying carefully     |
|     that this magnetic setup is desired.                                    |
|                                                                             |
 -----------------------------------------------------------------------------

 POTCAR:    PAW_PBE Ge 05Jan2001                  
   VRHFIN =Ge: s2p2                                                                                 
   LEXCH  = PE                                                                                      
   EATOM  =   104.9960 eV,    7.7170 Ry                                                             
                                                                                                    
   TITEL  = PAW_PBE Ge 05Jan2001                                                                    
   LULTRA =        F    use ultrasoft PP ?                                                          
   IUNSCR =        1    unscreen: 0-lin 1-nonlin 2-no                                               
   RPACOR =    2.170    partial core radius                                                         
   POMASS =   72.610; ZVAL   =    4.000    mass and valenz                                          
   RCORE  =    2.300    outmost cutoff radius                                                       
   RWIGS  =    2.300; RWIGS  =    1.217    wigner-seitz radius (au A)                               
   ENMAX  =  173.807; ENMIN  =  130.355 eV                                                          
   ICORE  =        3    local potential                                                             
   LCOR   =        T    correct aug charges                                                         
   LPAW   =        T    paw PP                                                                      
   EAUG   =  385.843                                                                                
   DEXC   =    0.000                                                                                
   RMAX   =    2.342    core radius for proj-oper                                                   
   RAUG   =    1.300    factor for augmentation sphere                                              
   RDEP   =    2.318    radius for radial grids                                                     
   RDEPT  =    2.103    core radius for aug-charge                                                  
                                                                                                    
   Atomic configuration                                                                             
   10 entries                                                                                       
     n  l   j            E        occ.                                                              
     1  0  0.50    -10959.8463   2.0000                                                             
     2  0  0.50     -1371.6056   2.0000                                                             
     2  1  1.50     -1198.4791   6.0000                                                             
     3  0  0.50      -168.4733   2.0000                                                             
     3  1  1.50      -115.6019   6.0000                                                             
     3  2  2.50       -29.3106  10.0000                                                             
     4  0  0.50       -11.7309   2.0000                                                             
     4  1  0.50        -3.8952   2.0000                                                             
     4  2  1.50        -4.0817   0.0000                                                             
     4  3  2.50        -4.0817   0.0000                                                             
   Description                                                                                      
     l       E           TYP  RCUT    TYP  RCUT                                                     
     0    -11.7309493     23  2.300                                                                 
     0     -7.4578696     23  2.300                                                                 
     1     -3.8952261     23  2.300                                                                 
     1      6.1178114     23  2.300                                                                 
     2     -4.0817478     23  2.300                                                                 
     3     -1.3605826      7  2.300                                                                 
  local pseudopotential read in
  partial core-charges read in
  partial kinetic energy density read in
  atomic valenz-charges read in
  non local Contribution for L=            0  read in
    real space projection operators read in
  non local Contribution for L=            0  read in
    real space projection operators read in
  non local Contribution for L=            1  read in
    real space projection operators read in
  non local Contribution for L=            1  read in
    real space projection operators read in
  non local Contribution for L=            2  read in
    real space projection operators read in
    PAW grid and wavefunctions read in
 
   number of l-projection  operators is LMAX  =            5
   number of lm-projection operators is LMMAX =           13
 
 POTCAR:    PAW_PBE Se 06Sep2000                  
   VRHFIN =Se: s2p4                                                                                 
   LEXCH  = PE                                                                                      
   EATOM  =   257.1286 eV,   18.8984 Ry                                                             
                                                                                                    
   TITEL  = PAW_PBE Se 06Sep2000                                                                    
   LULTRA =        F    use ultrasoft PP ?                                                          
   IUNSCR =        1    unscreen: 0-lin 1-nonlin 2-no                                               
   RPACOR =    1.900    partial core radius                                                         
   POMASS =   78.960; ZVAL   =    6.000    mass and valenz                                          
   RCORE  =    2.100    outmost cutoff radius                                                       
   RWIGS  =    2.200; RWIGS  =    1.164    wigner-seitz radius (au A)                               
   ENMAX  =  211.555; ENMIN  =  158.666 eV                                                          
   ICORE  =        3    local potential                                                             
   LCOR   =        T    correct aug charges                                                         
   LPAW   =        T    paw PP                                                                      
   EAUG   =  446.842                                                                                
   DEXC   =    0.000                                                                                
   RMAX   =    2.147    core radius for proj-oper                                                   
   RAUG   =    1.300    factor for augmentation sphere                                              
   RDEP   =    2.177    radius for radial grids                                                     
   RDEPT  =    1.928    core radius for aug-charge                                                  
                                                                                                    
   Atomic configuration                                                                             
   10 entries                                                                                       
     n  l   j            E        occ.                                                              
     1  0  0.50    -12503.4787   2.0000                                                             
     2  0  0.50     -1606.9547   2.0000                                                             
     2  1  1.50     -1413.3140   6.0000                                                             
     3  0  0.50      -213.4885   2.0000                                                             
     3  1  1.50      -152.9538   6.0000                                                             
     3  2  2.50       -53.1221  10.0000                                                             
     4  0  0.50       -17.2865   2.0000                                                             
     4  1  0.50        -6.5110   4.0000                                                             
     4  2  2.50        -6.8029   0.0000                                                             
     4  3  2.50        -6.8029   0.0000                                                             
   Description                                                                                      
     l       E           TYP  RCUT    TYP  RCUT                                                     
     0    -17.2865377     23  2.100                                                                 
     0    -15.3094411     23  2.100                                                                 
     1     -6.5110275     23  2.100                                                                 
     1     -0.0695192     23  2.100                                                                 
     2     -6.8029130     23  2.100                                                                 
     3     -1.3605826      7  2.100                                                                 
  local pseudopotential read in
  partial core-charges read in
  partial kinetic energy density read in
  atomic valenz-charges read in
  non local Contribution for L=            0  read in
    real space projection operators read in
  non local Contribution for L=            0  read in
    real space projection operators read in
  non local Contribution for L=            1  read in
    real space projection operators read in
  non local Contribution for L=            1  read in
    real space projection operators read in
  non local Contribution for L=            2  read in
    real space projection operators read in
    PAW grid and wavefunctions read in
 
   number of l-projection  operators is LMAX  =            5
   number of lm-projection operators is LMMAX =           13
 
 -----------------------------------------------------------------------------
|                                                                             |
|               ----> ADVICE to this user running VASP <----                  |
|                                                                             |
|     You have a (more or less) 'large supercell' and for larger cells it     |
|     might be more efficient to use real-space projection operators.         |
|     Therefore, try LREAL= Auto in the INCAR file.                           |
|     Mind: For very accurate calculation, you might also keep the            |
|     reciprocal projection scheme (i.e. LREAL=.FALSE.).                      |
|                                                                             |
 -----------------------------------------------------------------------------

  PAW_PBE Ge 05Jan2001                  :
 energy of atom  1       EATOM= -104.9960
 kinetic energy error for atom=    0.0002 (will be added to EATOM!!)
  PAW_PBE Se 06Sep2000                  :
 energy of atom  2       EATOM= -257.1286
 kinetic energy error for atom=    0.0007 (will be added to EATOM!!)
 
 
 POSCAR: Ge Se
  positions in cartesian coordinates
  No initial velocities read in
 exchange correlation table for  LEXCH =        8
   RHO(1)=    0.500       N(1)  =     2000
   RHO(2)=  100.500       N(2)  =     4000
 


--------------------------------------------------------------------------------------------------------


 ion  position               nearest neighbor table
   1  0.034  0.018  0.117-  55 2.63  45 2.64  53 2.64
   2  0.240  0.873  0.372-  45 2.60  67 2.62  48 2.83
   3  0.572  0.199  0.375-  68 2.59  49 2.59
   4  0.551  0.512  0.378-  49 2.55  69 2.63  50 2.67
   5  0.580  0.842  0.355-  70 2.56  44 2.58  48 2.62
   6  0.911  0.195  0.371-  55 2.49  46 2.58  56 2.60
   7  0.900  0.524  0.355-  71 2.52  72 2.66  56 2.74
   8  0.894  0.846  0.348-  53 2.49  72 2.55  44 2.66
   9  0.083  0.143  0.641-  57 2.47  51 2.55  37 2.75
  10  0.060  0.509  0.622-  38 2.58  58 2.61  43 2.69
  11  0.060  0.822  0.646-  37 2.54  59 2.60  52 2.62
  12  0.385  0.159  0.627-  60 2.49  40 2.62  51 2.68
  13  0.378  0.492  0.635-  61 2.45  38 2.46  39 2.85
  14  0.406  0.827  0.647-  62 2.52  39 2.60  42 2.67
  15  0.719  0.163  0.633-  63 2.47  40 2.71  41 2.72
  16  0.752  0.470  0.619-  64 2.54  43 2.58  41 2.72
  17  0.229  0.548  0.381-  47 2.50  66 2.65  50 2.68
  18  0.222  0.182  0.375-  45 2.54  54 2.61  46 2.72
  19  0.727  0.827  0.631-  65 2.50  52 2.60  42 2.60
  20  0.874  0.671  0.877-  64 2.58  52 2.63  58 2.70
  21  0.883  0.003  0.874-  63 2.62  37 2.64  65 2.68
  22  0.090  0.368  0.134-  66 2.36  46 2.67  71 2.74
  23  0.100  0.709  0.146-  47 2.53  53 2.65  67 2.81
  24  0.423  0.035  0.137-  54 2.55  48 2.63  68 2.81
  25  0.401  0.344  0.137-  49 2.52  54 2.66  66 2.83
  26  0.729  0.025  0.125-  44 2.44  68 2.65  55 2.75
  27  0.740  0.378  0.149-  69 2.52  56 2.54  71 2.62
  28  0.408  0.688  0.141-  50 2.51  70 2.56  67 2.63
  29  0.217  0.312  0.882-  57 2.49  38 2.58  60 2.58
  30  0.224  0.662  0.857-  39 2.55  59 2.64  58 2.67
  31  0.241  0.983  0.878-  59 2.63  51 2.68  62 2.73
  32  0.557  0.335  0.855-  41 2.52  61 2.65  60 2.78
  33  0.576  0.646  0.858-  42 2.46  61 2.52  64 2.70
  34  0.561  0.989  0.876-  40 2.55  62 2.64  65 2.65
  35  0.917  0.327  0.872-  43 2.59  57 2.77
  36  0.731  0.693  0.128-  70 2.54  72 2.59  69 2.79
  37  0.933  0.981  0.645-  11 2.54  21 2.64   9 2.75
  38  0.218  0.380  0.663-  13 2.46  29 2.58  10 2.58
  39  0.255  0.684  0.631-  30 2.55  14 2.60  13 2.85
  40  0.549  0.028  0.650-  34 2.55  12 2.62  15 2.71
  41  0.582  0.332  0.629-  32 2.52  15 2.72  16 2.72
  42  0.570  0.690  0.641-  33 2.46  19 2.60  14 2.67
  43  0.918  0.347  0.640-  16 2.58  35 2.59  10 2.69
  44  0.731  0.983  0.341-  26 2.44   5 2.58   8 2.66
  45  0.098  0.023  0.345-  18 2.54   2 2.60   1 2.64
  46  0.065  0.333  0.371-   6 2.58  22 2.67  18 2.72
  47  0.081  0.682  0.371-  17 2.50  23 2.53
  48  0.433  0.992  0.369-   5 2.62  24 2.63   2 2.83
  49  0.429  0.350  0.362-  25 2.52   4 2.55   3 2.59
  50  0.406  0.669  0.367-  28 2.51   4 2.67  17 2.68
  51  0.235  0.007  0.638-   9 2.55  12 2.68  31 2.68
  52  0.890  0.698  0.642-  19 2.60  11 2.62  20 2.63
  53  0.930  0.835  0.128-   8 2.49   1 2.64  23 2.65
  54  0.273  0.174  0.147-  24 2.55  18 2.61  25 2.66
  55  0.893  0.171  0.149-   6 2.49   1 2.63  26 2.75
  56  0.769  0.348  0.373-  27 2.54   6 2.60   7 2.74
  57  0.075  0.172  0.861-   9 2.47  29 2.49  35 2.77
  58  0.047  0.542  0.854-  10 2.61  30 2.67  20 2.70
  59  0.096  0.829  0.877-  11 2.60  31 2.63  30 2.64
  60  0.385  0.194  0.849-  12 2.49  29 2.58  32 2.78
  61  0.430  0.505  0.848-  13 2.45  33 2.52  32 2.65
  62  0.409  0.842  0.874-  14 2.52  34 2.64  31 2.73
  63  0.749  0.164  0.852-  15 2.47  21 2.62
  64  0.745  0.512  0.843-  16 2.54  20 2.58  33 2.70
  65  0.727  0.856  0.854-  19 2.50  34 2.65  21 2.68
  66  0.231  0.494  0.150-  22 2.36  17 2.65  25 2.83
  67  0.275  0.852  0.140-   2 2.62  28 2.63  23 2.81
  68  0.591  0.186  0.144-   3 2.59  26 2.65  24 2.81
  69  0.594  0.517  0.146-  27 2.52   4 2.63  36 2.79
  70  0.568  0.815  0.126-  36 2.54  28 2.56   5 2.56
  71  0.912  0.498  0.130-   7 2.52  27 2.62  22 2.74
  72  0.764  0.689  0.358-   8 2.55  36 2.59   7 2.66
 

IMPORTANT INFORMATION: All symmetrisations will be switched off!
NOSYMM: (Re-)initialisation of all symmetry stuff for point group C_1.


----------------------------------------------------------------------------------------

                                     Primitive cell                                     

  volume of cell :    1726.5968

  direct lattice vectors                    reciprocal lattice vectors
    12.432312928 -0.000001076 -0.000002439     0.080435556  0.000000007  0.000000020
    -0.000001084 12.524194141  0.000001448     0.000000007  0.079845457 -0.000000012
    -0.000002800  0.000001651 11.088918865     0.000000018 -0.000000010  0.090180117

  length of vectors
    12.432312928 12.524194141 11.088918865     0.080435556  0.079845457  0.090180117

  position of ions in fractional coordinates (direct lattice)
     0.034488343  0.018403624  0.117380901
     0.240237591  0.872796817  0.372146510
     0.571789197  0.199099789  0.375434728
     0.550973920  0.512406830  0.377777723
     0.580086072  0.842278822  0.354829006
     0.910579900  0.194948936  0.370502628
     0.899656265  0.524312827  0.354624076
     0.894066359  0.846023755  0.348442072
     0.082754823  0.142884698  0.640781880
     0.059696086  0.508779294  0.622383252
     0.059747939  0.822251976  0.646099641
     0.385310846  0.159335079  0.627314856
     0.378097951  0.492436543  0.634746014
     0.406245876  0.827218575  0.647315710
     0.718873569  0.162841710  0.632622950
     0.751930895  0.469587136  0.618937245
     0.228705100  0.547542500  0.380799848
     0.221837648  0.181536029  0.375216320
     0.726742567  0.827126486  0.631453209
     0.874046275  0.670937836  0.876671571
     0.882977559  0.002744671  0.874408074
     0.089637067  0.368311534  0.134440938
     0.100261065  0.709216520  0.146007310
     0.423265398  0.034964787  0.137147155
     0.400646379  0.343780663  0.136511644
     0.728823357  0.025131325  0.125478135
     0.740020073  0.378213117  0.148525288
     0.407693658  0.688160140  0.141206643
     0.216899749  0.311858720  0.882145570
     0.224009925  0.661814247  0.857147515
     0.240766059  0.982519659  0.878214882
     0.556655542  0.335220149  0.854812918
     0.575867832  0.645720072  0.857834352
     0.561226159  0.988661176  0.875515378
     0.916549152  0.327059426  0.872402509
     0.731422948  0.692546598  0.127522461
     0.933131444  0.981093089  0.644649683
     0.217835639  0.379889530  0.662941968
     0.255208717  0.684490726  0.631013475
     0.548639228  0.028464416  0.650068092
     0.582438613  0.332452567  0.629152916
     0.570332130  0.690052429  0.641373359
     0.917689953  0.347272011  0.639936800
     0.730626069  0.983301252  0.340525358
     0.097955728  0.023016830  0.344850098
     0.065205891  0.332756936  0.370534079
     0.080592419  0.681915633  0.371139439
     0.433438577  0.991914315  0.368885324
     0.429270881  0.349604905  0.361751436
     0.405734525  0.668735247  0.366610782
     0.234982838  0.006621745  0.638291976
     0.890096766  0.698462437  0.642453878
     0.929624943  0.834882218  0.127645152
     0.273399106  0.173712722  0.146842157
     0.892675190  0.171375435  0.148576336
     0.769253071  0.348230966  0.372882080
     0.075153546  0.172298695  0.860852758
     0.046649601  0.542110274  0.854021267
     0.095977929  0.829362938  0.877118204
     0.384605645  0.193738236  0.848672134
     0.430478490  0.505291962  0.847585685
     0.408606838  0.841727502  0.874207532
     0.749470434  0.163604384  0.852460026
     0.745445490  0.512311914  0.842588660
     0.726875737  0.856237146  0.854490280
     0.230705300  0.493647953  0.149548952
     0.275316747  0.851656907  0.140484361
     0.590719987  0.185923555  0.143647008
     0.593986000  0.517437410  0.145859689
     0.568446757  0.815221141  0.126023766
     0.911824770  0.497766087  0.129972831
     0.764014067  0.688839118  0.357906905

  ion indices of the primitive-cell ions
   primitive index   ion index
                 1           1
                 2           2
                 3           3
                 4           4
                 5           5
                 6           6
                 7           7
                 8           8
                 9           9
                10          10
                11          11
                12          12
                13          13
                14          14
                15          15
                16          16
                17          17
                18          18
                19          19
                20          20
                21          21
                22          22
                23          23
                24          24
                25          25
                26          26
                27          27
                28          28
                29          29
                30          30
                31          31
                32          32
                33          33
                34          34
                35          35
                36          36
                37          37
                38          38
                39          39
                40          40
                41          41
                42          42
                43          43
                44          44
                45          45
                46          46
                47          47
                48          48
                49          49
                50          50
                51          51
                52          52
                53          53
                54          54
                55          55
                56          56
                57          57
                58          58
                59          59
                60          60
                61          61
                62          62
                63          63
                64          64
                65          65
                66          66
                67          67
                68          68
                69          69
                70          70
                71          71
                72          72

----------------------------------------------------------------------------------------

 
 
 KPOINTS: KPOINTS created by Atomic Simulation Env

Automatic generation of k-mesh.
 Grid dimensions read from file:
 generate k-points for:    2    2    2

 Generating k-lattice:

  Cartesian coordinates                     Fractional coordinates (reciprocal lattice)
     0.040217778  0.000000003  0.000000010     0.500000000 -0.000000000 -0.000000000
     0.000000003  0.039922728 -0.000000006     0.000000000  0.500000000  0.000000000
     0.000000009 -0.000000005  0.045090058     0.000000000  0.000000000  0.500000000

  Length of vectors
     0.040217778  0.039922728  0.045090058

  Shift w.r.t. Gamma in fractional coordinates (k-lattice)
     0.000000000  0.000000000  0.000000000

 
 Subroutine IBZKPT returns following result:
 ===========================================
 
 Found      8 irreducible k-points:
 
 Following reciprocal coordinates:
            Coordinates               Weight
  0.000000  0.000000  0.000000      1.000000
  0.500000  0.000000  0.000000      1.000000
  0.000000  0.500000  0.000000      1.000000
  0.500000  0.500000  0.000000      1.000000
  0.000000  0.000000  0.500000      1.000000
  0.500000  0.000000  0.500000      1.000000
  0.000000  0.500000  0.500000      1.000000
  0.500000  0.500000  0.500000      1.000000
 
 Following cartesian coordinates:
            Coordinates               Weight
  0.000000  0.000000  0.000000      1.000000
  0.040218  0.000000  0.000000      1.000000
  0.000000  0.039923 -0.000000      1.000000
  0.040218  0.039923  0.000000      1.000000
  0.000000 -0.000000  0.045090      1.000000
  0.040218 -0.000000  0.045090      1.000000
  0.000000  0.039923  0.045090      1.000000
  0.040218  0.039923  0.045090      1.000000
 
 -----------------------------------------------------------------------------
|                                                                             |
|           W    W    AA    RRRRR   N    N  II  N    N   GGGG   !!!           |
|           W    W   A  A   R    R  NN   N  II  NN   N  G    G  !!!           |
|           W    W  A    A  R    R  N N  N  II  N N  N  G       !!!           |
|           W WW W  AAAAAA  RRRRR   N  N N  II  N  N N  G  GGG   !            |
|           WW  WW  A    A  R   R   N   NN  II  N   NN  G    G                |
|           W    W  A    A  R    R  N    N  II  N    N   GGGG   !!!           |
|                                                                             |
|     The number of bands has been changed from the values supplied in        |
|     the INCAR file. This is a result of running the parallel version.       |
|     The orbitals not found in the WAVECAR file will be initialized with     |
|     random numbers, which is usually adequate. For correlated               |
|     calculations, however, you should redo the groundstate calculation.     |
|     I found NBANDS = 220. Now, NBANDS = 224.                                |
|                                                                             |
 -----------------------------------------------------------------------------



--------------------------------------------------------------------------------------------------------




 Dimension of arrays:
   k-points           NKPTS =      8   k-points in BZ     NKDIM =      8   number of bands    NBANDS=    224
   number of dos      NEDOS =    301   number of ions     NIONS =     72
   non local maximal  LDIM  =      5   non local SUM 2l+1 LMDIM =     13
   total plane-waves  NPLWV = 774144
   max r-space proj   IRMAX =      1   max aug-charges    IRDMAX=  24565
   dimension x,y,z NGX =    96 NGY =   96 NGZ =   84
   dimension x,y,z NGXF=   192 NGYF=  192 NGZF=  168
   support grid    NGXF=   192 NGYF=  192 NGZF=  168
   ions per type =              36  36
   NGX,Y,Z   is equivalent  to a cutoff of  12.84, 12.74, 12.59 a.u.
   NGXF,Y,Z  is equivalent  to a cutoff of  25.67, 25.49, 25.19 a.u.

 SYSTEM =  01_AOPT                                 
 POSCAR =  Ge Se                                   

 Startparameter for this run:
   NWRITE =      2    write-flag & timer
   PREC   = accura    normal or accurate (medium, high low for compatibility)
   ISTART =      0    job   : 0-new  1-cont  2-samecut
   ICHARG =      2    charge: 1-file 2-atom 10-const
   ISPIN  =      2    spin polarized calculation?
   LNONCOLLINEAR =      F non collinear calculations
   LSORBIT =      F    spin-orbit coupling
   INIWAV =      1    electr: 0-lowe 1-rand  2-diag
   LASPH  =      T    aspherical Exc in radial PAW
 Electronic Relaxation 1
   ENCUT  =  520.0 eV  38.22 Ry    6.18 a.u.  23.12 23.29 20.62*2*pi/ulx,y,z
   ENINI  =  520.0     initial cutoff
   ENAUG  =  446.8 eV  augmentation charge cutoff
   NELM   =    100;   NELMIN=  5; NELMDL=  0     # of ELM steps 
   EDIFF  = 0.1E-05   stopping-criterion for ELM
   LREAL  =      F    real-space projection
   NLSPLINE    = F    spline interpolate recip. space projectors
   LCOMPAT=      F    compatible to vasp.4.4
   GGA_COMPAT  = T    GGA compatible to vasp.4.4-vasp.4.6
   LMAXPAW     = -100 max onsite density
   LMAXMIX     =    2 max onsite mixed and CHGCAR
   VOSKOWN=      0    Vosko Wilk Nusair interpolation
   ROPT   =    0.00000   0.00000
 Ionic relaxation
   EDIFFG = 0.1E-04   stopping-criterion for IOM
   NSW    =      0    number of steps for IOM
   NBLOCK =      1;   KBLOCK =      1    inner block; outer block 
   IBRION =     -1    ionic relax: 0-MD 1-quasi-New 2-CG
   NFREE  =      0    steps in history (QN), initial steepest desc. (CG)
   ISIF   =      2    stress and relaxation
   IWAVPR =     10    prediction:  0-non 1-charg 2-wave 3-comb
   ISYM   =     -1    0-nonsym 1-usesym 2-fastsym
   LCORR  =      T    Harris-Foulkes like correction to forces

   POTIM  = 0.5000    time-step for ionic-motion
   TEIN   =    0.0    initial temperature
   TEBEG  =    0.0;   TEEND  =   0.0 temperature during run
   SMASS  =  -3.00    Nose mass-parameter (am)
   estimated Nose-frequenzy (Omega)   =  0.10E-29 period in steps = 0.13E+47 mass=  -0.353E-26a.u.
   SCALEE = 1.0000    scale energy and forces
   NPACO  =    256;   APACO  = 10.0  distance and # of slots for P.C.
   PSTRESS=    0.0 pullay stress

  Mass of Ions in am
   POMASS =  72.61 78.96
  Ionic Valenz
   ZVAL   =   4.00  6.00
  Atomic Wigner-Seitz radii
   RWIGS  =  -1.00 -1.00
  virtual crystal weights 
   VCA    =   1.00  1.00
   NELECT =     360.0000    total number of electrons
   NUPDOWN=      -1.0000    fix difference up-down

 DOS related values:
   EMIN   =  10.00;   EMAX   =-10.00  energy-range for DOS
   EFERMI =   0.00;   METHOD = LEGACY      
   ISMEAR =     0;   SIGMA  =   0.05  broadening in eV -4-tet -1-fermi 0-gaus

 Electronic relaxation 2 (details)
   IALGO  =     38    algorithm
   LDIAG  =      T    sub-space diagonalisation (order eigenvalues)
   LSUBROT=      F    optimize rotation matrix (better conditioning)
   TURBO    =      0    0=normal 1=particle mesh
   IRESTART =      0    0=no restart 2=restart with 2 vectors
   NREBOOT  =      0    no. of reboots
   NMIN     =      0    reboot dimension
   EREF     =   0.00    reference energy to select bands
   IMIX   =      4    mixing-type and parameters
     AMIX     =   0.40;   BMIX     =  1.00
     AMIX_MAG =   1.60;   BMIX_MAG =  1.00
     AMIN     =   0.10
     WC   =   100.;   INIMIX=   1;  MIXPRE=   1;  MAXMIX= -45

 Intra band minimization:
   WEIMIN = 0.0000     energy-eigenvalue tresh-hold
   EBREAK =  0.11E-08  absolut break condition
   DEPER  =   0.30     relativ break condition  

   TIME   =   0.40     timestep for ELM

  volume/ion in A,a.u.               =      23.98       161.83
  Fermi-wavevector in a.u.,A,eV,Ry     =   0.970760  1.834471 12.821799  0.942376
  Thomas-Fermi vector in A             =   2.100922
 
 Write flags
   LWAVE        =      F    write WAVECAR
   LDOWNSAMPLE  =      F    k-point downsampling of WAVECAR
   LCHARG       =      F    write CHGCAR
   LVTOT        =      F    write LOCPOT, total local potential
   LVHAR        =      F    write LOCPOT, Hartree potential only
   LELF         =      F    write electronic localiz. function (ELF)
   LORBIT       =     11    0 simple, 1 ext, 2 COOP (PROOUT), +10 PAW based schemes


 Dipole corrections
   LMONO  =      F    monopole corrections only (constant potential shift)
   LDIPOL =      F    correct potential (dipole corrections)
   IDIPOL =      0    1-x, 2-y, 3-z, 4-all directions 
   EPSILON=  1.0000000 bulk dielectric constant

 Exchange correlation treatment:
   GGA     =    PE    GGA type
   LEXCH   =     8    internal setting for exchange type
   LIBXC   =     F    Libxc                    
   VOSKOWN =     0    Vosko Wilk Nusair interpolation
   LHFCALC =     F    Hartree Fock is set to
   LHFONE  =     F    Hartree Fock one center treatment
   AEXX    =    0.0000 exact exchange contribution

 Linear response parameters
   LEPSILON=     F    determine dielectric tensor
   LRPA    =     F    only Hartree local field effects (RPA)
   LNABLA  =     F    use nabla operator in PAW spheres
   LVEL    =     F    velocity operator in full k-point grid
   CSHIFT  =0.1000    complex shift for real part using Kramers Kronig
   OMEGAMAX=  -1.0    maximum frequency
   DEG_THRESHOLD= 0.2000000E-02 threshold for treating states as degnerate
   RTIME   =   -0.100 relaxation time in fs
  (WPLASMAI=    0.000 imaginary part of plasma frequency in eV, 0.658/RTIME)
   DFIELD  = 0.0000000 0.0000000 0.0000000 field for delta impulse in time
 
  Optional k-point grid parameters
   LKPOINTS_OPT  =     F    use optional k-point grid
   KPOINTS_OPT_MODE=     1    mode for optional k-point grid
 
 Orbital magnetization related:
   ORBITALMAG=     F  switch on orbital magnetization
   LCHIMAG   =     F  perturbation theory with respect to B field
   DQ        =  0.001000  dq finite difference perturbation B field
   LLRAUG    =     F  two centre corrections for induced B field
   LBONE     =     F  B-component reconstruction in AE one-centre
   LVGVCALC  =     T  calculate vGv susceptibility
   LVGVAPPL  =     F  apply vGv susceptibility instead of pGv for G=0

 Random number generation:
   RANDOM_GENERATOR = DEFAULT
   PCG_SEED         = not used


--------------------------------------------------------------------------------------------------------


 Static calculation
 charge density and potential will be updated during run
 spin polarized calculation
 Variant of blocked Davidson
 Davidson routine will perform the subspace rotation
 perform sub-space diagonalisation
    after iterative eigenvector-optimisation
 modified Broyden-mixing scheme, WC =      100.0
 initial mixing is a Kerker type mixing with AMIX =  0.4000 and BMIX =      1.0000
 Hartree-type preconditioning will be used
 using additional bands            44
 reciprocal scheme for non local part
 use partial core corrections
 calculate Harris-corrections to forces 
   (improved forces if not selfconsistent)
 use gradient corrections 
 use of overlap-Matrix (Vanderbilt PP)
 Gauss-broadening in eV      SIGMA  =   0.05


--------------------------------------------------------------------------------------------------------


  energy-cutoff  :      520.00
  volume of cell :     1726.60
      direct lattice vectors                 reciprocal lattice vectors
    12.432312928 -0.000001076 -0.000002439     0.080435556  0.000000007  0.000000020
    -0.000001084 12.524194141  0.000001448     0.000000007  0.079845457 -0.000000012
    -0.000002800  0.000001651 11.088918865     0.000000018 -0.000000010  0.090180117

  length of vectors
    12.432312928 12.524194141 11.088918865     0.080435556  0.079845457  0.090180117


 
 k-points in units of 2pi/SCALE and weight: KPOINTS created by Atomic Simulation Env
   0.00000000  0.00000000  0.00000000       0.125
   0.04021778  0.00000000  0.00000001       0.125
   0.00000000  0.03992273 -0.00000001       0.125
   0.04021778  0.03992273  0.00000000       0.125
   0.00000001 -0.00000001  0.04509006       0.125
   0.04021779 -0.00000000  0.04509007       0.125
   0.00000001  0.03992272  0.04509005       0.125
   0.04021779  0.03992273  0.04509006       0.125
 
 k-points in reciprocal lattice and weights: KPOINTS created by Atomic Simulation Env
   0.00000000  0.00000000  0.00000000       0.125
   0.50000000  0.00000000  0.00000000       0.125
   0.00000000  0.50000000  0.00000000       0.125
   0.50000000  0.50000000  0.00000000       0.125
   0.00000000  0.00000000  0.50000000       0.125
   0.50000000  0.00000000  0.50000000       0.125
   0.00000000  0.50000000  0.50000000       0.125
   0.50000000  0.50000000  0.50000000       0.125
 
 position of ions in fractional coordinates (direct lattice) 
   0.03448834  0.01840362  0.11738090
   0.24023759  0.87279682  0.37214651
   0.57178920  0.19909979  0.37543473
   0.55097392  0.51240683  0.37777772
   0.58008607  0.84227882  0.35482901
   0.91057990  0.19494894  0.37050263
   0.89965627  0.52431283  0.35462408
   0.89406636  0.84602375  0.34844207
   0.08275482  0.14288470  0.64078188
   0.05969609  0.50877929  0.62238325
   0.05974794  0.82225198  0.64609964
   0.38531085  0.15933508  0.62731486
   0.37809795  0.49243654  0.63474601
   0.40624588  0.82721858  0.64731571
   0.71887357  0.16284171  0.63262295
   0.75193090  0.46958714  0.61893725
   0.22870510  0.54754250  0.38079985
   0.22183765  0.18153603  0.37521632
   0.72674257  0.82712649  0.63145321
   0.87404628  0.67093784  0.87667157
   0.88297756  0.00274467  0.87440807
   0.08963707  0.36831153  0.13444094
   0.10026107  0.70921652  0.14600731
   0.42326540  0.03496479  0.13714715
   0.40064638  0.34378066  0.13651164
   0.72882336  0.02513133  0.12547814
   0.74002007  0.37821312  0.14852529
   0.40769366  0.68816014  0.14120664
   0.21689975  0.31185872  0.88214557
   0.22400992  0.66181425  0.85714752
   0.24076606  0.98251966  0.87821488
   0.55665554  0.33522015  0.85481292
   0.57586783  0.64572007  0.85783435
   0.56122616  0.98866118  0.87551538
   0.91654915  0.32705943  0.87240251
   0.73142295  0.69254660  0.12752246
   0.93313144  0.98109309  0.64464968
   0.21783564  0.37988953  0.66294197
   0.25520872  0.68449073  0.63101348
   0.54863923  0.02846442  0.65006809
   0.58243861  0.33245257  0.62915292
   0.57033213  0.69005243  0.64137336
   0.91768995  0.34727201  0.63993680
   0.73062607  0.98330125  0.34052536
   0.09795573  0.02301683  0.34485010
   0.06520589  0.33275694  0.37053408
   0.08059242  0.68191563  0.37113944
   0.43343858  0.99191431  0.36888532
   0.42927088  0.34960490  0.36175144
   0.40573452  0.66873525  0.36661078
   0.23498284  0.00662175  0.63829198
   0.89009677  0.69846244  0.64245388
   0.92962494  0.83488222  0.12764515
   0.27339911  0.17371272  0.14684216
   0.89267519  0.17137543  0.14857634
   0.76925307  0.34823097  0.37288208
   0.07515355  0.17229870  0.86085276
   0.04664960  0.54211027  0.85402127
   0.09597793  0.82936294  0.87711820
   0.38460564  0.19373824  0.84867213
   0.43047849  0.50529196  0.84758569
   0.40860684  0.84172750  0.87420753
   0.74947043  0.16360438  0.85246003
   0.74544549  0.51231191  0.84258866
   0.72687574  0.85623715  0.85449028
   0.23070530  0.49364795  0.14954895
   0.27531675  0.85165691  0.14048436
   0.59071999  0.18592356  0.14364701
   0.59398600  0.51743741  0.14585969
   0.56844676  0.81522114  0.12602377
   0.91182477  0.49776609  0.12997283
   0.76401407  0.68883912  0.35790690
 
 position of ions in cartesian coordinates  (Angst):
   0.42876953  0.23049072  1.30162723
   2.98670692 10.93107713  4.12670313
   7.10866096  2.49356442  4.16316414
   6.84987857  6.41748265  4.18914591
   7.21180967 10.54886345  3.93466986
  11.32061301  2.44157796  4.10847164
  11.18480666  6.56659525  3.93239618
  11.11531085 10.59576536  3.86384491
   1.02883191  1.78951667  7.10557828
   0.74215813  6.37205161  6.90155797
   0.74280238 10.29804438  7.16454755
   4.79030309  1.99554409  6.95624283
   4.70062973  6.16737150  7.03864684
   5.05057315 10.36024666  7.17803160
   8.93725922  2.03946147  7.01510305
   9.34823795  5.88120067  6.86334374
   2.84333171  6.85752896  4.22265885
   2.75795382  2.27359285  4.16074305
   9.03508835 10.35909295  7.00213283
  10.86641362  8.40295623  9.72133876
  10.97745086  0.03437528  9.69623804
   1.11439529  4.61280528  1.49080497
   1.24647576  8.88236552  1.61906399
   5.26216746  0.43790556  1.52081269
   4.98096040  4.30557556  1.51376607
   9.06095966  0.31474902  1.39141512
   9.20016029  4.73681395  1.64698361
   5.06857399  8.61865099  1.56582901
   2.69656274  3.90578038  9.78204057
   2.78495837  8.28869129  9.50483966
   2.99327546 12.30526815  9.73845441
   6.92051314  4.19836303  9.47895022
   7.15936599  8.08712434  9.51245506
   6.97733572 12.38218534  9.70851905
  11.39482307  4.09615620  9.67399888
   9.09327786  8.67358746  1.41408544
  11.60097925 12.28740037  7.14846718
   2.70819856  4.75781109  7.35130971
   3.17283212  8.57269551  6.99725760
   6.82085271  0.35649436  7.20855103
   7.24105697  4.16370091  6.97662470
   7.09054497  8.64235103  7.11213674
  11.40900650  4.34930215  7.09620552
   9.08336990 12.31505555  3.77605771
   1.21781527  0.28826771  3.82401455
   0.81065865  4.16751301  4.10882266
   1.00194839  8.54044431  4.11553592
   5.38864192 12.42292759  4.09053981
   5.33682853  4.37851983  4.01143178
   5.04421683  8.37537023  4.06531719
   2.92137838  0.08293283  7.07796737
  11.06595898  8.74767927  7.12411776
  11.55738694 10.45622619  1.41544568
   3.39898264  2.17561181  1.62832035
  11.09801670  2.14633850  1.64754900
   9.56359347  4.36131202  4.13485776
   0.93432980  2.15790365  9.54592646
   0.57995946  6.78949568  9.47017321
   1.19322429 10.38710380  9.72629356
   4.78153515  2.42641627  9.41085579
   5.35184037  6.32837557  9.39880858
   5.07992471 10.54195965  9.69401661
   9.31764840  2.04901367  9.45285847
   9.26760869  6.41629446  9.34339621
   9.03674330 10.72368087  9.47537286
   2.86819952  6.18254280  1.65833635
   3.42282264 10.66631638  1.55782024
   7.34401512  2.32854230  1.59288885
   7.38461886  6.48048618  1.61742556
   7.06710673 10.20998743  1.39746712
  11.33608998  6.23411835  1.44125667
   9.49846022  8.62715461  3.96879976
 


--------------------------------------------------------------------------------------------------------


 k-point   1 :   0.0000 0.0000 0.0000  plane waves:   46457
 k-point   2 :   0.5000 0.0000 0.0000  plane waves:   46522
 k-point   3 :   0.0000 0.5000 0.0000  plane waves:   46470
 k-point   4 :   0.5000 0.5000 0.0000  plane waves:   46524
 k-point   5 :   0.0000 0.0000 0.5000  plane waves:   46558
 k-point   6 :   0.5000 0.0000 0.5000  plane waves:   46480
 k-point   7 :   0.0000 0.5000 0.5000  plane waves:   46524
 k-point   8 :   0.5000 0.5000 0.5000  plane waves:   46464

 maximum and minimum number of plane-waves per node :      5846     5784

 maximum number of plane-waves:     46558
 maximum index in each direction: 
   IXMAX=   23   IYMAX=   23   IZMAX=   20
   IXMIN=  -23   IYMIN=  -23   IZMIN=  -21


 parallel 3D FFT for wavefunctions:
    minimum data exchange during FFTs selected (reduces bandwidth)
 parallel 3D FFT for charge:
    minimum data exchange during FFTs selected (reduces bandwidth)


 total amount of memory used by VASP MPI-rank0   110925. kBytes
=======================================================================

   base      :      30000. kBytes
   nonl-proj :      16400. kBytes
   fftplans  :       6180. kBytes
   grid      :      15593. kBytes
   one-center:        146. kBytes
   wavefun   :      42606. kBytes
 
     INWAV:  cpu time      0.0000: real time      0.0001
 Broyden mixing: mesh for mixing (old mesh)
   NGX = 47   NGY = 47   NGZ = 41
  (NGX  =192   NGY  =192   NGZ  =168)
  gives a total of  90569 points

 initial charge density was supplied:
 charge density of overlapping atoms calculated
 number of electron     360.0000000 magnetization      72.0000000
 keeping initial charge density in first step


--------------------------------------------------------------------------------------------------------


 Maximum index for augmentation-charges           854 (set IRDMAX)


--------------------------------------------------------------------------------------------------------


 First call to EWALD:  gamma=   0.148
 Maximum number of real-space cells 3x 3x 3
 Maximum number of reciprocal cells 3x 3x 3

    FEWALD:  cpu time      0.0068: real time      0.0068


--------------------------------------- Ionic step        1  -------------------------------------------




--------------------------------------- Iteration      1(   1)  ---------------------------------------


    POTLOK:  cpu time      0.1406: real time      0.1418
    SETDIJ:  cpu time      0.6000: real time      0.6016
     EDDAV:  cpu time      8.6653: real time      8.7063
       DOS:  cpu time      0.0016: real time      0.0016
    --------------------------------------------
      LOOP:  cpu time      9.4074: real time      9.4514

 eigenvalue-minimisations  :  7168
 total energy-change (2. order) : 0.1824684E+04  (-0.1418901E+05)
 number of electron     360.0000000 magnetization      72.0000000
 augmentation part      360.0000000 magnetization      72.0000000

 Free energy of the ion-electron system (eV)
  ---------------------------------------------------
  alpha Z        PSCENC =       794.91638460
  Ewald energy   TEWEN  =    -12787.46518225
  -Hartree energ DENC   =     -1167.29375129
  -exchange      EXHF   =         0.00000000
  -V(xc)+E(xc)   XCENC  =      -292.96635151
  PAW double counting   =     10738.42099860    -9719.93139476
  entropy T*S    EENTRO =        -0.02207779
  eigenvalues    EBANDS =      1222.57349506
  atomic energy  EATOM  =     13036.45147835
  Solvation  Ediel_sol  =         0.00000000
  ---------------------------------------------------
  free energy    TOTEN  =      1824.68359902 eV

  energy without entropy =     1824.70567682  energy(sigma->0) =     1824.69463792


--------------------------------------------------------------------------------------------------------




--------------------------------------- Iteration      1(   2)  ---------------------------------------


     EDDAV:  cpu time      9.8578: real time      9.9124
       DOS:  cpu time      0.0016: real time      0.0016
    --------------------------------------------
      LOOP:  cpu time      9.8594: real time      9.9140

 eigenvalue-minimisations  :  8528
 total energy-change (2. order) :-0.1888884E+04  (-0.1813602E+04)
 number of electron     360.0000000 magnetization      72.0000000
 augmentation part      360.0000000 magnetization      72.0000000

 Free energy of the ion-electron system (eV)
  ---------------------------------------------------
  alpha Z        PSCENC =       794.91638460
  Ewald energy   TEWEN  =    -12787.46518225
  -Hartree energ DENC   =     -1167.29375129
  -exchange      EXHF   =         0.00000000
  -V(xc)+E(xc)   XCENC  =      -292.96635151
  PAW double counting   =     10738.42099860    -9719.93139476
  entropy T*S    EENTRO =        -0.01913737
  eigenvalues    EBANDS =      -666.31336653
  atomic energy  EATOM  =     13036.45147835
  Solvation  Ediel_sol  =         0.00000000
  ---------------------------------------------------
  free energy    TOTEN  =       -64.20032214 eV

  energy without entropy =      -64.18118478  energy(sigma->0) =      -64.19075346


--------------------------------------------------------------------------------------------------------




--------------------------------------- Iteration      1(   3)  ---------------------------------------


     EDDAV:  cpu time      9.8718: real time      9.9294
       DOS:  cpu time      0.0012: real time      0.0012
    --------------------------------------------
      LOOP:  cpu time      9.8730: real time      9.9306

 eigenvalue-minimisations  :  8616
 total energy-change (2. order) :-0.2173659E+03  (-0.2114141E+03)
 number of electron     360.0000000 magnetization      72.0000000
 augmentation part      360.0000000 magnetization      72.0000000

 Free energy of the ion-electron system (eV)
  ---------------------------------------------------
  alpha Z        PSCENC =       794.91638460
  Ewald energy   TEWEN  =    -12787.46518225
  -Hartree energ DENC   =     -1167.29375129
  -exchange      EXHF   =         0.00000000
  -V(xc)+E(xc)   XCENC  =      -292.96635151
  PAW double counting   =     10738.42099860    -9719.93139476
  entropy T*S    EENTRO =        -0.00000048
  eigenvalues    EBANDS =      -883.69841447
  atomic energy  EATOM  =     13036.45147835
  Solvation  Ediel_sol  =         0.00000000
  ---------------------------------------------------
  free energy    TOTEN  =      -281.56623320 eV

  energy without entropy =     -281.56623272  energy(sigma->0) =     -281.56623296


--------------------------------------------------------------------------------------------------------




--------------------------------------- Iteration      1(   4)  ---------------------------------------


     EDDAV:  cpu time      9.9238: real time      9.9737
       DOS:  cpu time      0.0010: real time      0.0010
    --------------------------------------------
      LOOP:  cpu time      9.9247: real time      9.9746

 eigenvalue-minimisations  :  8688
 total energy-change (2. order) :-0.7887705E+01  (-0.7800368E+01)
 number of electron     360.0000000 magnetization      72.0000000
 augmentation part      360.0000000 magnetization      72.0000000

 Free energy of the ion-electron system (eV)
  ---------------------------------------------------
  alpha Z        PSCENC =       794.91638460
  Ewald energy   TEWEN  =    -12787.46518225
  -Hartree energ DENC   =     -1167.29375129
  -exchange      EXHF   =         0.00000000
  -V(xc)+E(xc)   XCENC  =      -292.96635151
  PAW double counting   =     10738.42099860    -9719.93139476
  entropy T*S    EENTRO =        -0.00000004
  eigenvalues    EBANDS =      -891.58611999
  atomic energy  EATOM  =     13036.45147835
  Solvation  Ediel_sol  =         0.00000000
  ---------------------------------------------------
  free energy    TOTEN  =      -289.45393828 eV

  energy without entropy =     -289.45393823  energy(sigma->0) =     -289.45393825


--------------------------------------------------------------------------------------------------------




--------------------------------------- Iteration      1(   5)  ---------------------------------------


     EDDAV:  cpu time     10.3279: real time     10.3778
       DOS:  cpu time      0.0014: real time      0.0014
    CHARGE:  cpu time      0.4478: real time      0.4494
    MIXING:  cpu time      0.0071: real time      0.0072
    --------------------------------------------
      LOOP:  cpu time     10.7842: real time     10.8359

 eigenvalue-minimisations  :  9080
 total energy-change (2. order) :-0.3102313E+00  (-0.3094016E+00)
 number of electron     359.9999996 magnetization      48.8358154
 augmentation part      -66.8599055 magnetization      49.0475569

 Broyden mixing:
  rms(total) = 0.29549E+01    rms(broyden)= 0.29549E+01
  rms(prec ) = 0.31007E+01
  weight for this iteration     100.00

 Free energy of the ion-electron system (eV)
  ---------------------------------------------------
  alpha Z        PSCENC =       794.91638460
  Ewald energy   TEWEN  =    -12787.46518225
  -Hartree energ DENC   =     -1167.29375129
  -exchange      EXHF   =         0.00000000
  -V(xc)+E(xc)   XCENC  =      -292.96635151
  PAW double counting   =     10738.42099860    -9719.93139476
  entropy T*S    EENTRO =        -0.00000004
  eigenvalues    EBANDS =      -891.89635126
  atomic energy  EATOM  =     13036.45147835
  Solvation  Ediel_sol  =         0.00000000
  ---------------------------------------------------
  free energy    TOTEN  =      -289.76416954 eV

  energy without entropy =     -289.76416950  energy(sigma->0) =     -289.76416952


--------------------------------------------------------------------------------------------------------




--------------------------------------- Iteration      1(   6)  ---------------------------------------


    POTLOK:  cpu time      0.1362: real time      0.1379
    SETDIJ:  cpu time      0.6038: real time      0.6060
     EDDAV:  cpu time      9.2803: real time      9.3323
       DOS:  cpu time      0.0010: real time      0.0010
    CHARGE:  cpu time      0.4182: real time      0.4197
    MIXING:  cpu time      0.0074: real time      0.0074
    --------------------------------------------
      LOOP:  cpu time     10.4469: real time     10.5042

 eigenvalue-minimisations  :  7904
 total energy-change (2. order) : 0.1733173E+00  (-0.2573632E+01)
 number of electron     359.9999996 magnetization      27.7195968
 augmentation part      -66.2481117 magnetization      28.8961493

 Broyden mixing:
  rms(total) = 0.17562E+01    rms(broyden)= 0.17562E+01
  rms(prec ) = 0.17930E+01
  weight for this iteration     100.00

 eigenvalues of (default mixing * dielectric matrix)
  average eigenvalue GAMMA=   1.0148
  1.0148

 Free energy of the ion-electron system (eV)
  ---------------------------------------------------
  alpha Z        PSCENC =       794.91638460
  Ewald energy   TEWEN  =    -12787.46518225
  -Hartree energ DENC   =     -1220.80782761
  -exchange      EXHF   =         0.00000000
  -V(xc)+E(xc)   XCENC  =      -286.29047485
  PAW double counting   =     13105.96989204   -12091.09382710
  entropy T*S    EENTRO =        -0.00000000
  eigenvalues    EBANDS =      -841.27129545
  atomic energy  EATOM  =     13036.45147835
  Solvation  Ediel_sol  =         0.00000000
  ---------------------------------------------------
  free energy    TOTEN  =      -289.59085226 eV

  energy without entropy =     -289.59085226  energy(sigma->0) =     -289.59085226


--------------------------------------------------------------------------------------------------------




--------------------------------------- Iteration      1(   7)  ---------------------------------------


    POTLOK:  cpu time      0.1324: real time      0.1333
    SETDIJ:  cpu time      0.6046: real time      0.6068
     EDDAV:  cpu time      9.3439: real time      9.3874
       DOS:  cpu time      0.0007: real time      0.0007
    CHARGE:  cpu time      0.4404: real time      0.4419
    MIXING:  cpu time      0.0072: real time      0.0072
    --------------------------------------------
      LOOP:  cpu time     10.5292: real time     10.5773

 eigenvalue-minimisations  :  7952
 total energy-change (2. order) :-0.7508260E+01  (-0.8666060E+00)
 number of electron     359.9999996 magnetization       8.9439341
 augmentation part      -66.2139518 magnetization       9.6140425

 Broyden mixing:
  rms(total) = 0.91258E+00    rms(broyden)= 0.91258E+00
  rms(prec ) = 0.92885E+00
  weight for this iteration     100.00

 eigenvalues of (default mixing * dielectric matrix)
  average eigenvalue GAMMA=   1.4674
  0.8622  2.0726

 Free energy of the ion-electron system (eV)
  ---------------------------------------------------
  alpha Z        PSCENC =       794.91638460
  Ewald energy   TEWEN  =    -12787.46518225
  -Hartree energ DENC   =     -1239.32432888
  -exchange      EXHF   =         0.00000000
  -V(xc)+E(xc)   XCENC  =      -289.11138021
  PAW double counting   =     15313.70222296   -14300.56822263
  entropy T*S    EENTRO =        -0.00000000
  eigenvalues    EBANDS =      -825.70008388
  atomic energy  EATOM  =     13036.45147835
  Solvation  Ediel_sol  =         0.00000000
  ---------------------------------------------------
  free energy    TOTEN  =      -297.09911194 eV

  energy without entropy =     -297.09911194  energy(sigma->0) =     -297.09911194


--------------------------------------------------------------------------------------------------------




--------------------------------------- Iteration      1(   8)  ---------------------------------------


    POTLOK:  cpu time      0.1315: real time      0.1321
    SETDIJ:  cpu time      0.6042: real time      0.6066
     EDDAV:  cpu time      9.6629: real time      9.7077
       DOS:  cpu time      0.0010: real time      0.0010
    CHARGE:  cpu time      0.4319: real time      0.4335
    MIXING:  cpu time      0.0107: real time      0.0108
    --------------------------------------------
      LOOP:  cpu time     10.8423: real time     10.8917

 eigenvalue-minimisations  :  8240
 total energy-change (2. order) :-0.3139794E+01  (-0.1765853E+00)
 number of electron     359.9999996 magnetization       4.4147691
 augmentation part      -66.2097263 magnetization       4.7160045

 Broyden mixing:
  rms(total) = 0.32612E+00    rms(broyden)= 0.32612E+00
  rms(prec ) = 0.33174E+00
  weight for this iteration     100.00

 eigenvalues of (default mixing * dielectric matrix)
  average eigenvalue GAMMA=   1.3589
  2.5003  0.9244  0.6520

 Free energy of the ion-electron system (eV)
  ---------------------------------------------------
  alpha Z        PSCENC =       794.91638460
  Ewald energy   TEWEN  =    -12787.46518225
  -Hartree energ DENC   =     -1245.33419225
  -exchange      EXHF   =         0.00000000
  -V(xc)+E(xc)   XCENC  =      -288.68551402
  PAW double counting   =     17178.88108876   -16166.77844929
  entropy T*S    EENTRO =        -0.00000000
  eigenvalues    EBANDS =      -822.22451978
  atomic energy  EATOM  =     13036.45147835
  Solvation  Ediel_sol  =         0.00000000
  ---------------------------------------------------
  free energy    TOTEN  =      -300.23890587 eV

  energy without entropy =     -300.23890587  energy(sigma->0) =     -300.23890587


--------------------------------------------------------------------------------------------------------




--------------------------------------- Iteration      1(   9)  ---------------------------------------


    POTLOK:  cpu time      0.1310: real time      0.1317
    SETDIJ:  cpu time      0.6196: real time      0.6215
     EDDAV:  cpu time     10.3511: real time     10.4071
       DOS:  cpu time      0.0009: real time      0.0009
    CHARGE:  cpu time      0.4411: real time      0.4429
    MIXING:  cpu time      0.0077: real time      0.0077
    --------------------------------------------
      LOOP:  cpu time     11.5515: real time     11.6119

 eigenvalue-minimisations  :  9040
 total energy-change (2. order) :-0.3448444E+00  (-0.3949865E-01)
 number of electron     359.9999996 magnetization       2.3225330
 augmentation part      -66.2465565 magnetization       2.4759858

 Broyden mixing:
  rms(total) = 0.14790E+00    rms(broyden)= 0.14790E+00
  rms(prec ) = 0.14965E+00
  weight for this iteration     100.00

 eigenvalues of (default mixing * dielectric matrix)
  average eigenvalue GAMMA=   1.3269
  2.6294  1.2286  0.8302  0.6194

 Free energy of the ion-electron system (eV)
  ---------------------------------------------------
  alpha Z        PSCENC =       794.91638460
  Ewald energy   TEWEN  =    -12787.46518225
  -Hartree energ DENC   =     -1244.42083499
  -exchange      EXHF   =         0.00000000
  -V(xc)+E(xc)   XCENC  =      -288.72006972
  PAW double counting   =     17451.61512605   -16439.84589122
  entropy T*S    EENTRO =        -0.00000000
  eigenvalues    EBANDS =      -823.11476108
  atomic energy  EATOM  =     13036.45147835
  Solvation  Ediel_sol  =         0.00000000
  ---------------------------------------------------
  free energy    TOTEN  =      -300.58375025 eV

  energy without entropy =     -300.58375025  energy(sigma->0) =     -300.58375025


--------------------------------------------------------------------------------------------------------




--------------------------------------- Iteration      1(  10)  ---------------------------------------


    POTLOK:  cpu time      0.1312: real time      0.1319
    SETDIJ:  cpu time      0.6056: real time      0.6072
     EDDAV:  cpu time      9.6370: real time      9.6985
       DOS:  cpu time      0.0008: real time      0.0008
    CHARGE:  cpu time      0.4403: real time      0.4418
    MIXING:  cpu time      0.0076: real time      0.0077
    --------------------------------------------
      LOOP:  cpu time     10.8225: real time     10.8879

 eigenvalue-minimisations  :  8232
 total energy-change (2. order) :-0.1070672E+00  (-0.9448416E-02)
 number of electron     359.9999996 magnetization       0.7648861
 augmentation part      -66.2493978 magnetization       0.8331654

 Broyden mixing:
  rms(total) = 0.73332E-01    rms(broyden)= 0.73332E-01
  rms(prec ) = 0.74428E-01
  weight for this iteration     100.00

 eigenvalues of (default mixing * dielectric matrix)
  average eigenvalue GAMMA=   1.3770
  2.6965  1.7801  0.9658  0.8161  0.6265

 Free energy of the ion-electron system (eV)
  ---------------------------------------------------
  alpha Z        PSCENC =       794.91638460
  Ewald energy   TEWEN  =    -12787.46518225
  -Hartree energ DENC   =     -1244.60355438
  -exchange      EXHF   =         0.00000000
  -V(xc)+E(xc)   XCENC  =      -288.71452891
  PAW double counting   =     17461.41862163   -16449.65693363
  entropy T*S    EENTRO =        -0.00000000
  eigenvalues    EBANDS =      -823.03710285
  atomic energy  EATOM  =     13036.45147835
  Solvation  Ediel_sol  =         0.00000000
  ---------------------------------------------------
  free energy    TOTEN  =      -300.69081744 eV

  energy without entropy =     -300.69081744  energy(sigma->0) =     -300.69081744


--------------------------------------------------------------------------------------------------------




--------------------------------------- Iteration      1(  11)  ---------------------------------------


    POTLOK:  cpu time      0.1311: real time      0.1320
    SETDIJ:  cpu time      0.6046: real time      0.6067
     EDDAV:  cpu time     10.0400: real time     10.0886
       DOS:  cpu time      0.0012: real time      0.0012
    CHARGE:  cpu time      0.4315: real time      0.4334
    MIXING:  cpu time      0.0076: real time      0.0077
    --------------------------------------------
      LOOP:  cpu time     11.2161: real time     11.2696

 eigenvalue-minimisations  :  8704
 total energy-change (2. order) :-0.3277699E-01  (-0.3581151E-02)
 number of electron     359.9999996 magnetization       0.1784352
 augmentation part      -66.2352701 magnetization       0.1981813

 Broyden mixing:
  rms(total) = 0.28779E-01    rms(broyden)= 0.28779E-01
  rms(prec ) = 0.29147E-01
  weight for this iteration     100.00

 eigenvalues of (default mixing * dielectric matrix)
  average eigenvalue GAMMA=   1.4075
  2.9038  2.1888  1.1706  0.8575  0.6990  0.6255

 Free energy of the ion-electron system (eV)
  ---------------------------------------------------
  alpha Z        PSCENC =       794.91638460
  Ewald energy   TEWEN  =    -12787.46518225
  -Hartree energ DENC   =     -1245.75191536
  -exchange      EXHF   =         0.00000000
  -V(xc)+E(xc)   XCENC  =      -288.66452007
  PAW double counting   =     17388.23460205   -16376.44461567
  entropy T*S    EENTRO =        -0.00000000
  eigenvalues    EBANDS =      -821.99982607
  atomic energy  EATOM  =     13036.45147835
  Solvation  Ediel_sol  =         0.00000000
  ---------------------------------------------------
  free energy    TOTEN  =      -300.72359443 eV

  energy without entropy =     -300.72359443  energy(sigma->0) =     -300.72359443


--------------------------------------------------------------------------------------------------------




--------------------------------------- Iteration      1(  12)  ---------------------------------------


    POTLOK:  cpu time      0.1311: real time      0.1327
    SETDIJ:  cpu time      0.6040: real time      0.6056
     EDDAV:  cpu time     10.1356: real time     10.1904
       DOS:  cpu time      0.0009: real time      0.0009
    CHARGE:  cpu time      0.4239: real time      0.4255
    MIXING:  cpu time      0.0076: real time      0.0076
    --------------------------------------------
      LOOP:  cpu time     11.3031: real time     11.3626

 eigenvalue-minimisations  :  8760
 total energy-change (2. order) :-0.3600617E-02  (-0.4790522E-03)
 number of electron     359.9999996 magnetization       0.0592591
 augmentation part      -66.2344925 magnetization       0.0636889

 Broyden mixing:
  rms(total) = 0.10684E-01    rms(broyden)= 0.10684E-01
  rms(prec ) = 0.11255E-01
  weight for this iteration     100.00

 eigenvalues of (default mixing * dielectric matrix)
  average eigenvalue GAMMA=   1.3724
  3.0146  2.3449  1.2204  0.8837  0.8837  0.6078  0.6519

 Free energy of the ion-electron system (eV)
  ---------------------------------------------------
  alpha Z        PSCENC =       794.91638460
  Ewald energy   TEWEN  =    -12787.46518225
  -Hartree energ DENC   =     -1245.91289801
  -exchange      EXHF   =         0.00000000
  -V(xc)+E(xc)   XCENC  =      -288.65987669
  PAW double counting   =     17352.32987786   -16340.51697641
  entropy T*S    EENTRO =        -0.00000000
  eigenvalues    EBANDS =      -821.87000252
  atomic energy  EATOM  =     13036.45147835
  Solvation  Ediel_sol  =         0.00000000
  ---------------------------------------------------
  free energy    TOTEN  =      -300.72719505 eV

  energy without entropy =     -300.72719505  energy(sigma->0) =     -300.72719505


--------------------------------------------------------------------------------------------------------




--------------------------------------- Iteration      1(  13)  ---------------------------------------


    POTLOK:  cpu time      0.1307: real time      0.1314
    SETDIJ:  cpu time      0.6047: real time      0.6064
     EDDAV:  cpu time     10.9735: real time     11.0289
       DOS:  cpu time      0.0007: real time      0.0007
    CHARGE:  cpu time      0.4378: real time      0.4395
    MIXING:  cpu time      0.0096: real time      0.0096
    --------------------------------------------
      LOOP:  cpu time     12.1570: real time     12.2165

 eigenvalue-minimisations  :  9752
 total energy-change (2. order) :-0.1261921E-03  (-0.5230067E-04)
 number of electron     359.9999996 magnetization       0.0150373
 augmentation part      -66.2359629 magnetization       0.0159768

 Broyden mixing:
  rms(total) = 0.44276E-02    rms(broyden)= 0.44276E-02
  rms(prec ) = 0.46233E-02
  weight for this iteration     100.00

 eigenvalues of (default mixing * dielectric matrix)
  average eigenvalue GAMMA=   1.3557
  3.0594  2.4438  1.1437  1.1437  0.9493  0.8513  0.6476  0.6068

 Free energy of the ion-electron system (eV)
  ---------------------------------------------------
  alpha Z        PSCENC =       794.91638460
  Ewald energy   TEWEN  =    -12787.46518225
  -Hartree energ DENC   =     -1245.81594274
  -exchange      EXHF   =         0.00000000
  -V(xc)+E(xc)   XCENC  =      -288.66928216
  PAW double counting   =     17338.53404481   -16326.70972297
  entropy T*S    EENTRO =        -0.00000000
  eigenvalues    EBANDS =      -821.96909889
  atomic energy  EATOM  =     13036.45147835
  Solvation  Ediel_sol  =         0.00000000
  ---------------------------------------------------
  free energy    TOTEN  =      -300.72732124 eV

  energy without entropy =     -300.72732124  energy(sigma->0) =     -300.72732124


--------------------------------------------------------------------------------------------------------




--------------------------------------- Iteration      1(  14)  ---------------------------------------


    POTLOK:  cpu time      0.1307: real time      0.1314
    SETDIJ:  cpu time      0.6037: real time      0.6054
     EDDAV:  cpu time      9.6807: real time      9.7335
       DOS:  cpu time      0.0009: real time      0.0009
    CHARGE:  cpu time      0.4421: real time      0.4437
    MIXING:  cpu time      0.0090: real time      0.0090
    --------------------------------------------
      LOOP:  cpu time     10.8671: real time     10.9239

 eigenvalue-minimisations  :  8296
 total energy-change (2. order) :-0.1830031E-04  (-0.9885385E-05)
 number of electron     359.9999996 magnetization       0.0044877
 augmentation part      -66.2356953 magnetization       0.0048546

 Broyden mixing:
  rms(total) = 0.15882E-02    rms(broyden)= 0.15882E-02
  rms(prec ) = 0.16927E-02
  weight for this iteration     100.00

 eigenvalues of (default mixing * dielectric matrix)
  average eigenvalue GAMMA=   1.3425
  3.0866  2.4713  1.5153  1.2138  0.8809  0.8809  0.7838  0.6097  0.6407

 Free energy of the ion-electron system (eV)
  ---------------------------------------------------
  alpha Z        PSCENC =       794.91638460
  Ewald energy   TEWEN  =    -12787.46518225
  -Hartree energ DENC   =     -1245.81480588
  -exchange      EXHF   =         0.00000000
  -V(xc)+E(xc)   XCENC  =      -288.67020757
  PAW double counting   =     17333.75247999   -16321.92491256
  entropy T*S    EENTRO =        -0.00000000
  eigenvalues    EBANDS =      -821.97257423
  atomic energy  EATOM  =     13036.45147835
  Solvation  Ediel_sol  =         0.00000000
  ---------------------------------------------------
  free energy    TOTEN  =      -300.72733954 eV

  energy without entropy =     -300.72733954  energy(sigma->0) =     -300.72733954


--------------------------------------------------------------------------------------------------------




--------------------------------------- Iteration      1(  15)  ---------------------------------------


    POTLOK:  cpu time      0.1309: real time      0.1316
    SETDIJ:  cpu time      0.6060: real time      0.6078
     EDDAV:  cpu time      9.8567: real time      9.9104
       DOS:  cpu time      0.0008: real time      0.0009
    CHARGE:  cpu time      0.4403: real time      0.4421
    MIXING:  cpu time      0.0083: real time      0.0083
    --------------------------------------------
      LOOP:  cpu time     11.0430: real time     11.1010

 eigenvalue-minimisations  :  8504
 total energy-change (2. order) :-0.4104291E-05  (-0.1570530E-05)
 number of electron     359.9999996 magnetization       0.0017839
 augmentation part      -66.2357917 magnetization       0.0019851

 Broyden mixing:
  rms(total) = 0.73628E-03    rms(broyden)= 0.73628E-03
  rms(prec ) = 0.78663E-03
  weight for this iteration     100.00

 eigenvalues of (default mixing * dielectric matrix)
  average eigenvalue GAMMA=   1.3034
  3.0964  2.4405  1.6855  1.1067  0.9677  0.9677  0.8127  0.7172  0.6196  0.6196

 Free energy of the ion-electron system (eV)
  ---------------------------------------------------
  alpha Z        PSCENC =       794.91638460
  Ewald energy   TEWEN  =    -12787.46518225
  -Hartree energ DENC   =     -1245.80839945
  -exchange      EXHF   =         0.00000000
  -V(xc)+E(xc)   XCENC  =      -288.67014231
  PAW double counting   =     17333.50372222   -16321.67564493
  entropy T*S    EENTRO =        -0.00000000
  eigenvalues    EBANDS =      -821.97955987
  atomic energy  EATOM  =     13036.45147835
  Solvation  Ediel_sol  =         0.00000000
  ---------------------------------------------------
  free energy    TOTEN  =      -300.72734364 eV

  energy without entropy =     -300.72734364  energy(sigma->0) =     -300.72734364


--------------------------------------------------------------------------------------------------------




--------------------------------------- Iteration      1(  16)  ---------------------------------------


    POTLOK:  cpu time      0.1309: real time      0.1316
    SETDIJ:  cpu time      0.6064: real time      0.6082
     EDDAV:  cpu time      6.7299: real time      6.7637
       DOS:  cpu time      0.0007: real time      0.0007
    --------------------------------------------
      LOOP:  cpu time      7.4679: real time      7.5043

 eigenvalue-minimisations  :  4944
 total energy-change (2. order) :-0.8297743E-06  (-0.1526441E-06)
 number of electron     359.9999996 magnetization       0.0017839
 augmentation part      -66.2357917 magnetization       0.0019851

 Free energy of the ion-electron system (eV)
  ---------------------------------------------------
  alpha Z        PSCENC =       794.91638460
  Ewald energy   TEWEN  =    -12787.46518225
  -Hartree energ DENC   =     -1245.80585105
  -exchange      EXHF   =         0.00000000
  -V(xc)+E(xc)   XCENC  =      -288.67019989
  PAW double counting   =     17333.50391395   -16321.67569750
  entropy T*S    EENTRO =        -0.00000000
  eigenvalues    EBANDS =      -821.98219069
  atomic energy  EATOM  =     13036.45147835
  Solvation  Ediel_sol  =         0.00000000
  ---------------------------------------------------
  free energy    TOTEN  =      -300.72734447 eV

  energy without entropy =     -300.72734447  energy(sigma->0) =     -300.72734447


--------------------------------------------------------------------------------------------------------




 average (electrostatic) potential at core
  the test charge radii are     1.1631  1.0808
  (the norm of the test charge is              1.0000)
       1 -33.5405       2 -33.5251       3 -33.6689       4 -33.5023       5 -33.2992
       6 -33.2532       7 -33.4779       8 -33.3180       9 -33.3749      10 -33.5429
      11 -33.2576      12 -33.4209      13 -33.3693      14 -33.3269      15 -33.4893
      16 -33.3974      17 -33.4655      18 -33.5030      19 -33.2524      20 -33.4545
      21 -33.5933      22 -33.3568      23 -33.5503      24 -33.4672      25 -33.5593
      26 -33.4948      27 -33.2503      28 -33.2927      29 -33.4023      30 -33.3862
      31 -33.5903      32 -33.5852      33 -33.2932      34 -33.4545      35 -33.7703
      36 -33.5135      37 -54.7152      38 -54.9312      39 -54.8405      40 -54.8468
      41 -54.9396      42 -54.7752      43 -54.9138      44 -54.8440      45 -54.8934
      46 -54.8193      47 -54.8998      48 -54.7233      49 -55.0432      50 -54.9220
      51 -54.9548      52 -54.7933      53 -55.0531      54 -54.8879      55 -54.8212
      56 -54.9019      57 -55.1160      58 -54.7311      59 -54.7911      60 -54.9164
      61 -54.9405      62 -54.9105      63 -54.8592      64 -54.8595      65 -54.9881
      66 -54.8982      67 -54.8483      68 -54.8729      69 -54.8164      70 -54.9666
      71 -54.7857      72 -54.9267
 
 
 
 E-fermi :   3.4493     XC(G=0):  -9.3424     alpha+bet : -8.7991

 Fermi energy:         3.4492525530

 spin component 1

 k-point     1 :       0.0000    0.0000    0.0000
  band No.  band energies     occupation 
      1     -10.9662      1.00000
      2     -10.6438      1.00000
      3     -10.4859      1.00000
      4     -10.4126      1.00000
      5     -10.3795      1.00000
      6     -10.3241      1.00000
      7     -10.2263      1.00000
      8     -10.1441      1.00000
      9     -10.0650      1.00000
     10     -10.0419      1.00000
     11     -10.0097      1.00000
     12      -9.9525      1.00000
     13      -9.9215      1.00000
     14      -9.8707      1.00000
     15      -9.7928      1.00000
     16      -9.7505      1.00000
     17      -9.7133      1.00000
     18      -9.6575      1.00000
     19      -9.6265      1.00000
     20      -9.5596      1.00000
     21      -9.5325      1.00000
     22      -9.4661      1.00000
     23      -9.4456      1.00000
     24      -9.3990      1.00000
     25      -9.3375      1.00000
     26      -9.3143      1.00000
     27      -9.2741      1.00000
     28      -9.2638      1.00000
     29      -9.2557      1.00000
     30      -9.2157      1.00000
     31      -9.2009      1.00000
     32      -9.1749      1.00000
     33      -9.1297      1.00000
     34      -9.1114      1.00000
     35      -9.0249      1.00000
     36      -9.0028      1.00000
     37      -5.4833      1.00000
     38      -5.3635      1.00000
     39      -5.2654      1.00000
     40      -5.2137      1.00000
     41      -5.1424      1.00000
     42      -5.1096      1.00000
     43      -5.0813      1.00000
     44      -5.0124      1.00000
     45      -4.7812      1.00000
     46      -4.7306      1.00000
     47      -4.6050      1.00000
     48      -4.5589      1.00000
     49      -4.5326      1.00000
     50      -4.5214      1.00000
     51      -4.5082      1.00000
     52      -4.4526      1.00000
     53      -4.4190      1.00000
     54      -4.3829      1.00000
     55      -4.3094      1.00000
     56      -4.2996      1.00000
     57      -4.2821      1.00000
     58      -4.2267      1.00000
     59      -4.2078      1.00000
     60      -4.1817      1.00000
     61      -4.1093      1.00000
     62      -4.0688      1.00000
     63      -4.0377      1.00000
     64      -3.9724      1.00000
     65      -3.8880      1.00000
     66      -3.8349      1.00000
     67      -3.6940      1.00000
     68      -3.6699      1.00000
     69      -3.5884      1.00000
     70      -3.5069      1.00000
     71      -2.4991      1.00000
     72      -2.3968      1.00000
     73      -1.8588      1.00000
     74      -1.6371      1.00000
     75      -1.5826      1.00000
     76      -1.5602      1.00000
     77      -1.5216      1.00000
     78      -1.4586      1.00000
     79      -1.3667      1.00000
     80      -1.2945      1.00000
     81      -1.2741      1.00000
     82      -1.1742      1.00000
     83      -1.1500      1.00000
     84      -1.0651      1.00000
     85      -0.9585      1.00000
     86      -0.9037      1.00000
     87      -0.7975      1.00000
     88      -0.7588      1.00000
     89      -0.7138      1.00000
     90      -0.6931      1.00000
     91      -0.6529      1.00000
     92      -0.6062      1.00000
     93      -0.5710      1.00000
     94      -0.3513      1.00000
     95      -0.2319      1.00000
     96      -0.1578      1.00000
     97      -0.1180      1.00000
     98      -0.0874      1.00000
     99      -0.0741      1.00000
    100      -0.0291      1.00000
    101       0.0261      1.00000
    102       0.0398      1.00000
    103       0.0907      1.00000
    104       0.1410      1.00000
    105       0.1558      1.00000
    106       0.2165      1.00000
    107       0.2477      1.00000
    108       0.2526      1.00000
    109       0.3394      1.00000
    110       0.3556      1.00000
    111       0.4086      1.00000
    112       0.4588      1.00000
    113       0.5392      1.00000
    114       0.5649      1.00000
    115       0.5892      1.00000
    116       0.6313      1.00000
    117       0.6595      1.00000
    118       0.6742      1.00000
    119       0.7104      1.00000
    120       0.7279      1.00000
    121       0.7712      1.00000
    122       0.7952      1.00000
    123       0.8444      1.00000
    124       0.8822      1.00000
    125       0.9117      1.00000
    126       0.9690      1.00000
    127       0.9748      1.00000
    128       1.0143      1.00000
    129       1.0294      1.00000
    130       1.0730      1.00000
    131       1.1198      1.00000
    132       1.1668      1.00000
    133       1.2109      1.00000
    134       1.2444      1.00000
    135       1.2494      1.00000
    136       1.2778      1.00000
    137       1.3258      1.00000
    138       1.3472      1.00000
    139       1.3940      1.00000
    140       1.4349      1.00000
    141       1.4620      1.00000
    142       1.4858      1.00000
    143       1.5329      1.00000
    144       1.5548      1.00000
    145       1.6659      1.00000
    146       1.6901      1.00000
    147       1.7721      1.00000
    148       1.8164      1.00000
[...]
   0.473E+01 0.926E+00 -.273E+02   -.514E+01 0.110E+00 0.298E+02   0.208E+00 -.136E+01 -.275E+01   0.220E-03 -.353E-03 0.159E-03
   -.140E+02 0.660E+01 0.227E+02   0.159E+02 -.731E+01 -.253E+02   -.196E+01 0.124E+00 0.271E+01   -.128E-03 0.233E-03 0.133E-03
   0.226E+02 -.254E+02 0.391E+02   -.239E+02 0.259E+02 -.409E+02   0.115E+01 0.551E+00 0.221E+01   -.243E-03 0.462E-03 -.462E-03
   -.238E+01 0.241E+02 0.246E+02   0.214E+01 -.258E+02 -.264E+02   0.328E-01 0.909E+00 0.165E+01   0.606E-03 -.367E-03 -.142E-03
   0.724E+01 0.280E+01 0.216E+02   -.804E+01 -.278E+01 -.234E+02   0.901E+00 -.713E+00 0.211E+01   0.215E-03 -.503E-03 -.307E-04
   -.151E+02 0.253E+01 0.291E+02   0.154E+02 -.383E+01 -.311E+02   0.178E-01 0.125E+01 0.199E+01   0.371E-03 0.704E-05 -.930E-04
   0.121E+02 -.230E+01 0.195E+02   -.129E+02 0.265E+01 -.214E+02   0.135E+01 -.415E+00 0.202E+01   -.252E-03 0.407E-04 0.460E-04
   -.233E+01 0.200E+02 0.387E+02   0.212E+01 -.214E+02 -.410E+02   0.271E+00 0.130E+01 0.184E+01   0.207E-03 -.270E-04 0.342E-05
   -.389E+01 0.291E+02 0.141E+02   0.429E+01 -.306E+02 -.158E+02   -.344E+00 0.151E+01 0.201E+01   0.603E-04 -.420E-03 -.311E-03
   -.142E+02 -.302E+02 -.463E+02   0.144E+02 0.316E+02 0.486E+02   0.326E-01 -.133E+01 -.172E+01   0.346E-03 0.296E-04 0.329E-03
   0.228E+02 0.233E+01 -.167E+02   -.243E+02 -.288E+01 0.185E+02   0.110E+01 0.215E+00 -.172E+01   -.642E-03 0.644E-03 0.210E-03
   -.193E+02 -.589E+01 -.182E+02   0.199E+02 0.706E+01 0.198E+02   -.123E-01 -.140E+01 -.218E+01   0.555E-03 -.411E-03 -.337E-03
   0.132E+02 -.866E+01 -.208E+02   -.141E+02 0.936E+01 0.225E+02   0.790E+00 -.346E+00 -.196E+01   0.114E-03 -.349E-03 0.449E-04
   0.539E+01 -.194E+02 -.267E+02   -.552E+01 0.202E+02 0.285E+02   -.175E+00 -.345E+00 -.217E+01   0.348E-03 0.744E-04 0.391E-04
   0.291E+02 0.579E+01 -.267E+02   -.310E+02 -.616E+01 0.285E+02   0.146E+01 0.613E-01 -.184E+01   -.773E-03 0.128E-03 0.247E-03
   -.277E+01 -.135E+01 -.233E+02   0.291E+01 0.248E+01 0.253E+02   -.204E+00 -.138E+01 -.192E+01   -.223E-04 -.375E-03 -.833E-04
   -.177E+01 0.538E+01 0.259E+02   0.199E+01 -.649E+01 -.275E+02   0.285E+00 0.105E+01 0.195E+01   -.233E-03 0.776E-03 -.210E-03
   -.157E+01 0.146E+02 0.298E+02   0.176E+01 -.161E+02 -.313E+02   -.138E+00 0.120E+01 0.174E+01   -.289E-03 0.324E-03 -.102E-03
   0.600E+01 -.397E+00 0.261E+02   -.672E+01 0.573E-01 -.283E+02   0.671E+00 0.573E+00 0.205E+01   -.287E-03 0.429E-03 0.103E-03
   0.232E+02 -.222E+01 0.209E+02   -.248E+02 0.194E+01 -.224E+02   0.138E+01 0.702E+00 0.175E+01   -.513E-03 0.470E-03 0.593E-04
   -.630E+01 -.149E+02 0.280E+02   0.619E+01 0.161E+02 -.300E+02   0.185E+00 -.176E+01 0.148E+01   0.314E-03 -.223E-03 0.273E-03
   0.171E+02 0.947E+01 -.221E+02   -.179E+02 -.927E+01 0.242E+02   0.974E-01 -.274E+00 -.202E+01   0.233E-03 -.297E-03 -.885E-04
   0.118E+02 0.772E+01 -.350E+02   -.123E+02 -.894E+01 0.371E+02   0.128E+00 0.121E+01 -.161E+01   0.349E-03 0.151E-03 0.897E-04
   -.110E+02 0.186E+02 -.355E+02   0.110E+02 -.197E+02 0.370E+02   0.957E-01 0.868E+00 -.170E+01   0.606E-03 -.189E-03 0.227E-03
   0.159E+02 -.774E+01 -.269E+02   -.173E+02 0.782E+01 0.286E+02   0.141E+01 0.115E-01 -.200E+01   -.229E-03 0.754E-04 -.871E-04
   -.128E+02 0.159E+01 -.311E+02   0.134E+02 -.277E+01 0.330E+02   -.227E+00 0.129E+01 -.153E+01   -.169E-03 0.297E-03 -.125E-03
   0.209E+02 0.787E+01 -.447E+02   -.226E+02 -.791E+01 0.472E+02   0.141E+01 -.285E+00 -.173E+01   -.467E-03 -.400E-05 0.125E-03
   0.288E+01 0.104E+02 -.228E+02   -.285E+01 -.115E+02 0.248E+02   -.133E+00 0.132E+01 -.222E+01   0.346E-03 -.760E-04 -.171E-03
   0.644E+01 -.193E+02 -.254E+02   -.733E+01 0.200E+02 0.275E+02   0.135E+01 -.307E+00 -.160E+01   -.119E-03 -.303E-03 -.588E-04
   0.600E+01 0.270E+02 -.281E+02   -.619E+01 -.281E+02 0.299E+02   -.111E+00 0.101E+01 -.133E+01   -.460E-03 0.114E-03 0.158E-04
   -.486E+01 -.164E+01 -.256E+02   0.488E+01 0.604E+00 0.275E+02   0.339E-01 0.140E+01 -.163E+01   0.953E-04 0.237E-03 -.232E-03
   -.182E+02 -.103E+02 0.325E+02   0.194E+02 0.117E+02 -.344E+02   0.725E-01 -.544E+00 0.214E+01   -.467E-04 -.497E-03 -.228E-03
   0.170E+02 -.116E+02 0.185E+02   -.173E+02 0.124E+02 -.200E+02   -.362E+00 -.110E+01 0.189E+01   0.523E-04 -.191E-03 0.372E-04
   0.260E+00 -.156E+02 0.338E+02   -.255E+00 0.165E+02 -.355E+02   -.244E+00 -.118E+01 0.188E+01   0.907E-04 -.886E-04 -.384E-03
   0.201E+02 0.103E+02 0.292E+02   -.212E+02 -.104E+02 -.310E+02   0.982E+00 0.381E+00 0.200E+01   -.148E-03 -.163E-03 -.216E-03
   -.355E+01 -.161E+02 0.256E+02   0.352E+01 0.177E+02 -.276E+02   0.222E+00 -.107E+01 0.223E+01   0.248E-03 0.581E-04 0.220E-03
   -.127E+02 -.636E+01 0.329E+02   0.131E+02 0.758E+01 -.350E+02   0.118E+00 -.809E+00 0.214E+01   0.228E-03 -.316E-03 0.145E-03
   0.134E+02 0.155E+02 -.312E+02   -.148E+02 -.162E+02 0.331E+02   0.110E+01 0.188E+00 -.220E+01   -.226E-03 0.224E-03 0.758E-04
 -----------------------------------------------------------------------------------------------
   0.141E+02 -.180E+01 -.108E+01   -.888E-13 -.426E-13 -.142E-13   -.141E+02 0.180E+01 0.108E+01   -.607E-03 -.115E-03 -.752E-03
 
 
 POSITION                                       TOTAL-FORCE (eV/Angst)
 -----------------------------------------------------------------------------------
      0.42877      0.23049      1.30163         0.260596      0.202029     -0.017276
      2.98671     10.93108      4.12670         0.385146      0.047356     -0.260801
      7.10866      2.49356      4.16316         0.217956     -0.040182     -0.342536
      6.84988      6.41748      4.18915         0.300620      0.384595     -0.125375
      7.21181     10.54886      3.93467        -0.230611      0.090319      0.120720
     11.32061      2.44158      4.10847        -0.054379     -0.040755      0.466775
     11.18481      6.56660      3.93240         0.255491      0.209545      0.081850
     11.11531     10.59577      3.86384         0.047194      0.256282      0.549369
      1.02883      1.78952      7.10558        -0.598106     -0.315973     -0.709588
      0.74216      6.37205      6.90156        -0.274067     -0.091373      0.438145
      0.74280     10.29804      7.16455         0.041071      0.046477      0.067988
      4.79030      1.99554      6.95624         0.052453     -0.229034     -0.334696
      4.70063      6.16737      7.03865         0.236063      0.741527     -0.710854
      5.05057     10.36025      7.17803         0.199247     -0.029497     -0.210027
      8.93726      2.03946      7.01510        -0.391177     -0.021501     -0.363888
      9.34824      5.88120      6.86334        -0.220557      0.219810     -0.300095
      2.84333      6.85753      4.22266         0.333508     -0.383463     -0.094189
      2.75795      2.27359      4.16074        -0.019273      0.311323     -0.142920
      9.03509     10.35909      7.00213        -0.085970      0.176866     -0.424006
     10.86641      8.40296      9.72134         0.481889     -0.264692     -0.349346
     10.97745      0.03438      9.69624        -0.192314     -0.224380     -0.551979
      1.11440      4.61281      1.49080        -1.269827     -0.889633      0.166311
      1.24648      8.88237      1.61906         0.022039      0.048481     -0.196413
      5.26217      0.43791      1.52081         0.222758      0.014982      0.384476
      4.98096      4.30558      1.51377        -0.267043      0.056603     -0.134837
      9.06096      0.31475      1.39142         0.124547      0.584637     -0.312303
      9.20016      4.73681      1.64698         0.213774     -0.562021     -0.396153
      5.06857      8.61865      1.56583        -0.211804     -0.108323     -0.350178
      2.69656      3.90578      9.78204         0.347919      0.583799      0.338808
      2.78496      8.28869      9.50484        -0.216672      0.121388      0.176307
      2.99328     12.30527      9.73845         0.077553     -0.386938     -0.226934
      6.92051      4.19836      9.47895        -0.290877     -0.059559      0.140170
      7.15937      8.08712      9.51246         0.261354      0.055822      0.413966
      6.97734     12.38219      9.70852        -0.037592     -0.005206      0.113066
     11.39482      4.09616      9.67400        -0.205457     -0.322674     -0.279292
      9.09328      8.67359      1.41409        -0.090861     -0.589175      0.135349
     11.60098     12.28740      7.14847        -0.175638      1.111495      0.362427
      2.70820      4.75781      7.35131        -0.207034     -0.874916     -0.117449
      3.17283      8.57270      6.99726         0.105013     -0.688441      0.267351
      6.82085      0.35649      7.20855         0.320530     -0.043368     -0.052896
      7.24106      4.16370      6.97662         0.512021     -0.060531      0.086323
      7.09054      8.64235      7.11214         0.059579     -0.093252     -0.458173
     11.40901      4.34930      7.09621         0.056876     -0.079617      0.358952
      9.08337     12.31506      3.77606         0.294648      0.139874      0.532476
      1.21782      0.28827      3.82401        -0.400929     -0.335724      0.002113
      0.81066      4.16751      4.10882         0.612524     -0.221838     -0.547779
      1.00195      8.54044      4.11554        -0.073173      0.352077     -0.234270
      5.38864     12.42293      4.09054        -0.302433      0.456419     -0.371439
      5.33683      4.37852      4.01143        -0.424117     -0.309196     -0.000877
      5.04422      8.37537      4.06532        -0.067316     -0.239070      0.091513
      2.92138      0.08293      7.07797         0.504755     -0.057090      0.406852
     11.06596      8.74768      7.12412         0.048253     -0.295959      0.250009
     11.55739     10.45623      1.41545        -0.048966      0.233686     -0.173278
      3.39898      2.17561      1.62832        -0.261591      0.427555      0.192000
     11.09802      2.14634      1.64755         0.080307     -0.561437     -0.588773
      9.56359      4.36131      4.13486        -0.725480     -0.072760      0.090944
      0.93433      2.15790      9.54593        -0.394991     -0.013535      0.441671
      0.57996      6.78950      9.47017         0.146035     -0.175702     -0.210078
      1.19322     10.38710      9.72629         0.058203      0.090989     -0.315970
      4.78154      2.42642      9.41086         0.358943      0.113879      0.390057
      5.35184      6.32838      9.39881        -0.235009     -0.331952      0.740297
      5.07992     10.54196      9.69402        -0.101633      0.260614     -0.175349
      9.31765      2.04901      9.45286         0.456737      0.458730      0.421115
      9.26761      6.41629      9.34340        -0.306248     -0.148680      0.443479
      9.03674     10.72368      9.47537         0.054815      0.364478      0.328237
      2.86820      6.18254      1.65834         1.228266      0.876562      0.208270
      3.42282     10.66632      1.55782        -0.690233     -0.289570      0.422398
      7.34402      2.32854      1.59289        -0.239344     -0.307189      0.209329
      7.38462      6.48049      1.61743        -0.112382      0.299315      0.208200
      7.06711     10.20999      1.39747         0.197346      0.556974      0.223586
     11.33609      6.23412      1.44126         0.475847      0.411723      0.060718
      9.49846      8.62715      3.96880        -0.228773     -0.542004     -0.251601
 -----------------------------------------------------------------------------------
    total drift:                               -0.001464     -0.000814      0.000336


--------------------------------------------------------------------------------------------------------



  FREE ENERGIE OF THE ION-ELECTRON SYSTEM (eV)
  ---------------------------------------------------
  free  energy   TOTEN  =      -300.72734447 eV

  energy  without entropy=     -300.72734447  energy(sigma->0) =     -300.72734447
 


--------------------------------------------------------------------------------------------------------


    POTLOK:  cpu time      0.7368: real time      0.7393


--------------------------------------------------------------------------------------------------------


     LOOP+:  cpu time    182.4032: real time    183.3401
    4ORBIT:  cpu time      0.0000: real time      0.0000



 total charge

# of ion       s       p       d       tot
------------------------------------------
    1        1.325   0.756   0.050   2.131
    2        1.335   0.728   0.051   2.114
    3        1.331   0.729   0.049   2.109
    4        1.325   0.763   0.054   2.142
    5        1.320   0.795   0.065   2.179
    6        1.315   0.809   0.062   2.186
    7        1.323   0.766   0.057   2.147
    8        1.316   0.813   0.062   2.192
    9        1.311   0.812   0.059   2.182
   10        1.322   0.757   0.056   2.135
   11        1.322   0.791   0.063   2.176
   12        1.315   0.791   0.057   2.163
   13        1.306   0.831   0.063   2.200
   14        1.322   0.788   0.061   2.171
   15        1.319   0.772   0.053   2.144
   16        1.325   0.773   0.057   2.155
   17        1.313   0.791   0.056   2.160
   18        1.316   0.773   0.053   2.142
   19        1.310   0.817   0.062   2.189
   20        1.328   0.755   0.058   2.141
   21        1.310   0.767   0.052   2.129
   22        1.304   0.824   0.063   2.191
   23        1.332   0.748   0.052   2.132
   24        1.320   0.763   0.055   2.138
   25        1.328   0.749   0.053   2.130
   26        1.306   0.799   0.058   2.164
   27        1.316   0.813   0.064   2.194
   28        1.317   0.808   0.062   2.188
   29        1.304   0.830   0.061   2.195
   30        1.324   0.769   0.054   2.147
   31        1.335   0.724   0.050   2.109
   32        1.329   0.747   0.052   2.129
   33        1.307   0.828   0.064   2.200
   34        1.316   0.778   0.055   2.149
   35        1.343   0.690   0.044   2.078
   36        1.319   0.772   0.057   2.148
   37        1.477   2.291   0.029   3.797
   38        1.472   2.337   0.035   3.845
   39        1.482   2.290   0.034   3.806
   40        1.477   2.297   0.032   3.806
   41        1.479   2.291   0.032   3.802
   42        1.476   2.319   0.034   3.829
   43        1.479   2.297   0.032   3.807
   44        1.476   2.327   0.035   3.838
   45        1.473   2.315   0.032   3.821
   46        1.478   2.282   0.030   3.789
   47        1.481   2.299   0.035   3.815
   48        1.478   2.278   0.027   3.784
   49        1.477   2.318   0.036   3.831
   50        1.479   2.299   0.034   3.813
   51        1.477   2.295   0.034   3.807
   52        1.477   2.303   0.032   3.813
   53        1.481   2.302   0.037   3.819
   54        1.476   2.302   0.031   3.809
   55        1.476   2.304   0.032   3.812
   56        1.476   2.303   0.035   3.815
   57        1.477   2.322   0.038   3.838
   58        1.477   2.290   0.028   3.795
   59        1.477   2.299   0.031   3.807
   60        1.476   2.311   0.032   3.818
   61        1.476   2.331   0.037   3.844
   62        1.480   2.293   0.034   3.807
   63        1.476   2.302   0.031   3.809
   64        1.472   2.319   0.033   3.824
   65        1.477   2.308   0.036   3.821
   66        1.478   2.322   0.035   3.835
   67        1.480   2.281   0.031   3.792
   68        1.479   2.279   0.030   3.789
   69        1.477   2.301   0.031   3.808
   70        1.478   2.320   0.039   3.837
   71        1.478   2.297   0.031   3.806
   72        1.478   2.306   0.036   3.820
--------------------------------------------------
tot        100.694 110.950   3.237 214.880



 magnetization (x)

# of ion       s       p       d       tot
------------------------------------------
    1       -0.000   0.000   0.000   0.000
    2       -0.000   0.000  -0.000   0.000
    3       -0.000   0.000   0.000   0.000
    4       -0.000   0.000  -0.000  -0.000
    5       -0.000  -0.000  -0.000  -0.000
    6       -0.000   0.000   0.000   0.000
    7       -0.000   0.000  -0.000   0.000
    8       -0.000   0.000  -0.000  -0.000
    9       -0.000   0.000   0.000   0.000
   10       -0.000   0.000   0.000   0.000
   11       -0.000   0.000  -0.000   0.000
   12       -0.000   0.000   0.000   0.000
   13       -0.000   0.000  -0.000  -0.000
   14       -0.000   0.000  -0.000   0.000
   15       -0.000   0.000  -0.000  -0.000
   16       -0.000  -0.000  -0.000  -0.000
   17       -0.000   0.000   0.000   0.000
   18       -0.000   0.000   0.000   0.000
   19       -0.000  -0.000  -0.000  -0.000
   20       -0.000   0.000  -0.000   0.000
   21       -0.000   0.000   0.000   0.000
   22       -0.000   0.000   0.000   0.000
   23       -0.000   0.000  -0.000   0.000
   24       -0.000   0.000   0.000   0.000
   25       -0.000   0.000   0.000   0.000
   26       -0.000   0.000   0.000   0.000
   27       -0.000   0.000   0.000   0.000
   28       -0.000   0.000  -0.000   0.000
   29       -0.000   0.000   0.000   0.000
   30       -0.000   0.000  -0.000   0.000
   31       -0.000   0.000   0.000   0.000
   32       -0.000   0.000   0.000   0.000
   33       -0.000   0.000  -0.000  -0.000
   34       -0.000   0.000   0.000   0.000
   35       -0.000   0.000   0.000   0.000
   36       -0.000   0.000  -0.000   0.000
   37       -0.000  -0.000   0.000  -0.000
   38       -0.000  -0.000   0.000  -0.000
   39       -0.000  -0.000   0.000  -0.000
   40       -0.000  -0.000   0.000  -0.000
   41       -0.000  -0.000   0.000  -0.000
   42        0.000  -0.000  -0.000  -0.000
   43       -0.000  -0.000   0.000  -0.000
   44       -0.000  -0.000  -0.000  -0.000
   45       -0.000  -0.000   0.000  -0.000
   46       -0.000  -0.000   0.000  -0.000
   47       -0.000  -0.000   0.000  -0.000
   48       -0.000  -0.000   0.000  -0.000
   49       -0.000  -0.000   0.000  -0.000
   50       -0.000  -0.000  -0.000  -0.000
   51       -0.000  -0.000   0.000  -0.000
   52       -0.000  -0.000  -0.000  -0.000
   53       -0.000  -0.000  -0.000  -0.000
   54       -0.000  -0.000   0.000  -0.000
   55       -0.000  -0.000   0.000  -0.000
   56       -0.000  -0.000   0.000  -0.000
   57       -0.000  -0.000   0.000  -0.000
   58       -0.000  -0.000   0.000  -0.000
   59       -0.000  -0.000   0.000  -0.000
   60       -0.000  -0.000   0.000  -0.000
   61       -0.000  -0.000   0.000  -0.000
   62       -0.000  -0.000   0.000  -0.000
   63       -0.000  -0.000   0.000  -0.000
   64       -0.000  -0.000  -0.000  -0.000
   65       -0.000  -0.000  -0.000  -0.000
   66       -0.000  -0.000   0.000  -0.000
   67       -0.000  -0.000   0.000  -0.000
   68       -0.000  -0.000   0.000  -0.000
   69       -0.000  -0.000   0.000  -0.000
   70       -0.000  -0.000  -0.000  -0.000
   71       -0.000  -0.000   0.000  -0.000
   72       -0.000  -0.000  -0.000  -0.000
--------------------------------------------------
tot         -0.000  -0.000   0.000  -0.000
 

 total amount of memory used by VASP MPI-rank0   110925. kBytes
=======================================================================

   base      :      30000. kBytes
   nonl-proj :      16400. kBytes
   fftplans  :       6180. kBytes
   grid      :      15593. kBytes
   one-center:        146. kBytes
   wavefun   :      42606. kBytes
 
  
  
 General timing and accounting informations for this job:
 ========================================================
  
                  Total CPU time used (sec):      193.933
                            User time (sec):      188.172
                          System time (sec):        5.761
                         Elapsed time (sec):      196.205
  
                   Maximum memory used (kb):      316636.
                   Average memory used (kb):          N/A
  
                          Minor page faults:       109201
                          Major page faults:           69
                 Voluntary context switches:         5731
