 vasp.6.4.2 20Jul23 (build Oct 12 2023 10:31:02) complex                         
 executed on              LinuxNV date 2025.05.18  02:15:05
 running  160 mpi-ranks, with    1 threads/rank, on   10 nodes
 distrk:  each k-point on   80 cores,    2 groups
 distr:  one band on NCORE=   5 cores,   16 groups


--------------------------------------------------------------------------------------------------------


 INCAR:
   ENCUT = 520.000000
   SIGMA = 0.050000
   EDIFF = 1.00e-06
   ALGO = Normal
   GGA = PE
   PREC = Normal
   SYSTEM = ./
   ICHARG = 2
   ISMEAR = 0
   ISPIN = 1
   ISTART = 0
   ISYM = 0
   KPAR = 2
   LMAXMIX = 4
   NELM = 100
   NPAR = 16
   LASPH = .TRUE.
   LCHARG = .FALSE.
   LWAVE = .FALSE.

 POTCAR:    PAW_PBE Ge 05Jan2001                  
 POTCAR:    PAW_PBE Se 06Sep2000                  
 POTCAR:    PAW_PBE Ge 05Jan2001                  
   VRHFIN =Ge: s2p2                                                                                 
   LEXCH  = PE                                                                                      
   EATOM  =   104.9960 eV,    7.7170 Ry                                                             
                                                                                                    
   TITEL  = PAW_PBE Ge 05Jan2001                                                                    
   LULTRA =        F    use ultrasoft PP ?                                                          
   IUNSCR =        1    unscreen: 0-lin 1-nonlin 2-no                                               
   RPACOR =    2.170    partial core radius                                                         
   POMASS =   72.610; ZVAL   =    4.000    mass and valenz                                          
   RCORE  =    2.300    outmost cutoff radius                                                       
   RWIGS  =    2.300; RWIGS  =    1.217    wigner-seitz radius (au A)                               
   ENMAX  =  173.807; ENMIN  =  130.355 eV                                                          
   ICORE  =        3    local potential                                                             
   LCOR   =        T    correct aug charges                                                         
   LPAW   =        T    paw PP                                                                      
   EAUG   =  385.843                                                                                
   DEXC   =    0.000                                                                                
   RMAX   =    2.342    core radius for proj-oper                                                   
   RAUG   =    1.300    factor for augmentation sphere                                              
   RDEP   =    2.318    radius for radial grids                                                     
   RDEPT  =    2.103    core radius for aug-charge                                                  
                                                                                                    
   Atomic configuration                                                                             
   10 entries                                                                                       
     n  l   j            E        occ.                                                              
     1  0  0.50    -10959.8463   2.0000                                                             
     2  0  0.50     -1371.6056   2.0000                                                             
     2  1  1.50     -1198.4791   6.0000                                                             
     3  0  0.50      -168.4733   2.0000                                                             
     3  1  1.50      -115.6019   6.0000                                                             
     3  2  2.50       -29.3106  10.0000                                                             
     4  0  0.50       -11.7309   2.0000                                                             
     4  1  0.50        -3.8952   2.0000                                                             
     4  2  1.50        -4.0817   0.0000                                                             
     4  3  2.50        -4.0817   0.0000                                                             
   Description                                                                                      
     l       E           TYP  RCUT    TYP  RCUT                                                     
     0    -11.7309493     23  2.300                                                                 
     0     -7.4578696     23  2.300                                                                 
     1     -3.8952261     23  2.300                                                                 
     1      6.1178114     23  2.300                                                                 
     2     -4.0817478     23  2.300                                                                 
     3     -1.3605826      7  2.300                                                                 
  local pseudopotential read in
  partial core-charges read in
  partial kinetic energy density read in
  atomic valenz-charges read in
  non local Contribution for L=            0  read in
    real space projection operators read in
  non local Contribution for L=            0  read in
    real space projection operators read in
  non local Contribution for L=            1  read in
    real space projection operators read in
  non local Contribution for L=            1  read in
    real space projection operators read in
  non local Contribution for L=            2  read in
    real space projection operators read in
    PAW grid and wavefunctions read in
 
   number of l-projection  operators is LMAX  =            5
   number of lm-projection operators is LMMAX =           13
 
 POTCAR:    PAW_PBE Se 06Sep2000                  
   VRHFIN =Se: s2p4                                                                                 
   LEXCH  = PE                                                                                      
   EATOM  =   257.1286 eV,   18.8984 Ry                                                             
                                                                                                    
   TITEL  = PAW_PBE Se 06Sep2000                                                                    
   LULTRA =        F    use ultrasoft PP ?                                                          
   IUNSCR =        1    unscreen: 0-lin 1-nonlin 2-no                                               
   RPACOR =    1.900    partial core radius                                                         
   POMASS =   78.960; ZVAL   =    6.000    mass and valenz                                          
   RCORE  =    2.100    outmost cutoff radius                                                       
   RWIGS  =    2.200; RWIGS  =    1.164    wigner-seitz radius (au A)                               
   ENMAX  =  211.555; ENMIN  =  158.666 eV                                                          
   ICORE  =        3    local potential                                                             
   LCOR   =        T    correct aug charges                                                         
   LPAW   =        T    paw PP                                                                      
   EAUG   =  446.842                                                                                
   DEXC   =    0.000                                                                                
   RMAX   =    2.147    core radius for proj-oper                                                   
   RAUG   =    1.300    factor for augmentation sphere                                              
   RDEP   =    2.177    radius for radial grids                                                     
   RDEPT  =    1.928    core radius for aug-charge                                                  
                                                                                                    
   Atomic configuration                                                                             
   10 entries                                                                                       
     n  l   j            E        occ.                                                              
     1  0  0.50    -12503.4787   2.0000                                                             
     2  0  0.50     -1606.9547   2.0000                                                             
     2  1  1.50     -1413.3140   6.0000                                                             
     3  0  0.50      -213.4885   2.0000                                                             
     3  1  1.50      -152.9538   6.0000                                                             
     3  2  2.50       -53.1221  10.0000                                                             
     4  0  0.50       -17.2865   2.0000                                                             
     4  1  0.50        -6.5110   4.0000                                                             
     4  2  2.50        -6.8029   0.0000                                                             
     4  3  2.50        -6.8029   0.0000                                                             
   Description                                                                                      
     l       E           TYP  RCUT    TYP  RCUT                                                     
     0    -17.2865377     23  2.100                                                                 
     0    -15.3094411     23  2.100                                                                 
     1     -6.5110275     23  2.100                                                                 
     1     -0.0695192     23  2.100                                                                 
     2     -6.8029130     23  2.100                                                                 
     3     -1.3605826      7  2.100                                                                 
  local pseudopotential read in
  partial core-charges read in
  partial kinetic energy density read in
  atomic valenz-charges read in
  non local Contribution for L=            0  read in
    real space projection operators read in
  non local Contribution for L=            0  read in
    real space projection operators read in
  non local Contribution for L=            1  read in
    real space projection operators read in
  non local Contribution for L=            1  read in
    real space projection operators read in
  non local Contribution for L=            2  read in
    real space projection operators read in
    PAW grid and wavefunctions read in
 
   number of l-projection  operators is LMAX  =            5
   number of lm-projection operators is LMMAX =           13
 
  PAW_PBE Ge 05Jan2001                  :
 energy of atom  1       EATOM= -104.9960
 kinetic energy error for atom=    0.0002 (will be added to EATOM!!)
  PAW_PBE Se 06Sep2000                  :
 energy of atom  2       EATOM= -257.1286
 kinetic energy error for atom=    0.0007 (will be added to EATOM!!)
 
 
 POSCAR: Ge Se
  positions in cartesian coordinates
  No initial velocities read in
 exchange correlation table for  LEXCH =        8
   RHO(1)=    0.500       N(1)  =     2000
   RHO(2)=  100.500       N(2)  =     4000
 


--------------------------------------------------------------------------------------------------------


 ion  position               nearest neighbor table
   1  0.366  0.781  0.123-   6 2.60   6 2.60   5 2.60
   2  0.866  0.281  0.377-   5 2.60   5 2.60   6 2.60
   3  0.750  0.886  0.877-   8 2.60   8 2.60   7 2.60
   4  0.250  0.386  0.623-   7 2.60   7 2.60   8 2.60
   5  0.366  0.660  0.352-   2 2.60   2 2.60   1 2.60
   6  0.866  0.160  0.148-   1 2.60   1 2.60   2 2.60
   7  0.750  0.007  0.648-   4 2.60   4 2.60   3 2.60
   8  0.250  0.507  0.852-   3 2.60   3 2.60   4 2.60
 

IMPORTANT INFORMATION: All symmetrisations will be switched off!
NOSYMM: (Re-)initialisation of all symmetry stuff for point group C_1.


----------------------------------------------------------------------------------------

                                     Primitive cell                                     

  volume of cell :     193.5913

  direct lattice vectors                    reciprocal lattice vectors
     3.858100176  0.000000000  0.000000000     0.259194929  0.000000000  0.000000000
     0.000000000  4.526575088  0.000000000     0.000000000  0.220917577  0.000000000
     0.000000000  0.000000000 11.085176468     0.000000000  0.000000000  0.090210562

  length of vectors
     3.858100176  4.526575088 11.085176468     0.259194929  0.220917577  0.090210562

  position of ions in fractional coordinates (direct lattice)
     0.365942029  0.780787101  0.122982664
     0.865942029  0.280787101  0.377017336
     0.750000000  0.885879566  0.877017336
     0.250000000  0.385879566  0.622982664
     0.365942029  0.659976556  0.352381810
     0.865942029  0.159976556  0.147618190
     0.750000000  0.006690111  0.647618190
     0.250000000  0.506690111  0.852381810

  ion indices of the primitive-cell ions
   primitive index   ion index
                 1           1
                 2           2
                 3           3
                 4           4
                 5           5
                 6           6
                 7           7
                 8           8

----------------------------------------------------------------------------------------

 
 
 KPOINTS: KPOINTS created by Atomic Simulation Env

Automatic generation of k-mesh.
 Grid dimensions read from file:
 generate k-points for:    6    6    2

 Generating k-lattice:

  Cartesian coordinates                     Fractional coordinates (reciprocal lattice)
     0.043199155  0.000000000  0.000000000     0.166666667  0.000000000  0.000000000
     0.000000000  0.036819596  0.000000000     0.000000000  0.166666667  0.000000000
     0.000000000  0.000000000  0.045105281     0.000000000  0.000000000  0.500000000

  Length of vectors
     0.043199155  0.036819596  0.045105281

  Shift w.r.t. Gamma in fractional coordinates (k-lattice)
     0.000000000  0.000000000  0.000000000

 
 Subroutine IBZKPT returns following result:
 ===========================================
 
 Found     40 irreducible k-points:
 
 Following reciprocal coordinates:
            Coordinates               Weight
  0.000000  0.000000  0.000000      1.000000
  0.166667  0.000000  0.000000      2.000000
  0.333333  0.000000  0.000000      2.000000
  0.500000  0.000000  0.000000      1.000000
  0.000000  0.166667  0.000000      2.000000
  0.166667  0.166667  0.000000      2.000000
  0.166667 -0.166667  0.000000      2.000000
  0.333333  0.166667  0.000000      2.000000
  0.333333 -0.166667  0.000000      2.000000
  0.500000  0.166667  0.000000      2.000000
  0.000000  0.333333  0.000000      2.000000
  0.166667  0.333333  0.000000      2.000000
  0.166667 -0.333333  0.000000      2.000000
  0.333333  0.333333  0.000000      2.000000
  0.333333 -0.333333  0.000000      2.000000
  0.500000  0.333333  0.000000      2.000000
  0.000000  0.500000  0.000000      1.000000
  0.166667  0.500000  0.000000      2.000000
  0.333333  0.500000  0.000000      2.000000
  0.500000  0.500000  0.000000      1.000000
  0.000000  0.000000  0.500000      1.000000
  0.166667  0.000000  0.500000      2.000000
  0.333333  0.000000  0.500000      2.000000
  0.500000  0.000000  0.500000      1.000000
  0.000000  0.166667  0.500000      2.000000
  0.166667  0.166667  0.500000      2.000000
  0.166667 -0.166667  0.500000      2.000000
  0.333333  0.166667  0.500000      2.000000
  0.333333 -0.166667  0.500000      2.000000
  0.500000  0.166667  0.500000      2.000000
  0.000000  0.333333  0.500000      2.000000
  0.166667  0.333333  0.500000      2.000000
  0.166667 -0.333333  0.500000      2.000000
  0.333333  0.333333  0.500000      2.000000
  0.333333 -0.333333  0.500000      2.000000
  0.500000  0.333333  0.500000      2.000000
  0.000000  0.500000  0.500000      1.000000
  0.166667  0.500000  0.500000      2.000000
  0.333333  0.500000  0.500000      2.000000
  0.500000  0.500000  0.500000      1.000000
 
 Following cartesian coordinates:
            Coordinates               Weight
  0.000000  0.000000  0.000000      1.000000
  0.043199  0.000000  0.000000      2.000000
  0.086398  0.000000  0.000000      2.000000
  0.129597  0.000000  0.000000      1.000000
  0.000000  0.036820  0.000000      2.000000
  0.043199  0.036820  0.000000      2.000000
  0.043199 -0.036820  0.000000      2.000000
  0.086398  0.036820  0.000000      2.000000
  0.086398 -0.036820  0.000000      2.000000
  0.129597  0.036820  0.000000      2.000000
  0.000000  0.073639  0.000000      2.000000
  0.043199  0.073639  0.000000      2.000000
  0.043199 -0.073639  0.000000      2.000000
  0.086398  0.073639  0.000000      2.000000
  0.086398 -0.073639  0.000000      2.000000
  0.129597  0.073639  0.000000      2.000000
  0.000000  0.110459  0.000000      1.000000
  0.043199  0.110459  0.000000      2.000000
  0.086398  0.110459  0.000000      2.000000
  0.129597  0.110459  0.000000      1.000000
  0.000000  0.000000  0.045105      1.000000
  0.043199  0.000000  0.045105      2.000000
  0.086398  0.000000  0.045105      2.000000
  0.129597  0.000000  0.045105      1.000000
  0.000000  0.036820  0.045105      2.000000
  0.043199  0.036820  0.045105      2.000000
  0.043199 -0.036820  0.045105      2.000000
  0.086398  0.036820  0.045105      2.000000
  0.086398 -0.036820  0.045105      2.000000
  0.129597  0.036820  0.045105      2.000000
  0.000000  0.073639  0.045105      2.000000
  0.043199  0.073639  0.045105      2.000000
  0.043199 -0.073639  0.045105      2.000000
  0.086398  0.073639  0.045105      2.000000
  0.086398 -0.073639  0.045105      2.000000
  0.129597  0.073639  0.045105      2.000000
  0.000000  0.110459  0.045105      1.000000
  0.043199  0.110459  0.045105      2.000000
  0.086398  0.110459  0.045105      2.000000
  0.129597  0.110459  0.045105      1.000000
 


--------------------------------------------------------------------------------------------------------




 Dimension of arrays:
   k-points           NKPTS =     40   k-points in BZ     NKDIM =     40   number of bands    NBANDS=     32
   number of dos      NEDOS =    301   number of ions     NIONS =      8
   non local maximal  LDIM  =      5   non local SUM 2l+1 LMDIM =     13
   total plane-waves  NPLWV =  43008
   max r-space proj   IRMAX =      1   max aug-charges    IRDMAX=  12272
   dimension x,y,z NGX =    24 NGY =   28 NGZ =   64
   dimension x,y,z NGXF=    48 NGYF=   56 NGZF=  128
   support grid    NGXF=    48 NGYF=   56 NGZF=  128
   ions per type =               4   4
   NGX,Y,Z   is equivalent  to a cutoff of  10.34, 10.28,  9.60 a.u.
   NGXF,Y,Z  is equivalent  to a cutoff of  20.68, 20.57, 19.20 a.u.

 SYSTEM =  ./                                      
 POSCAR =  Ge Se                                   

 Startparameter for this run:
   NWRITE =      2    write-flag & timer
   PREC   = normal    normal or accurate (medium, high low for compatibility)
   ISTART =      0    job   : 0-new  1-cont  2-samecut
   ICHARG =      2    charge: 1-file 2-atom 10-const
   ISPIN  =      1    spin polarized calculation?
   LNONCOLLINEAR =      F non collinear calculations
   LSORBIT =      F    spin-orbit coupling
   INIWAV =      1    electr: 0-lowe 1-rand  2-diag
   LASPH  =      T    aspherical Exc in radial PAW
 Electronic Relaxation 1
   ENCUT  =  520.0 eV  38.22 Ry    6.18 a.u.   7.17  8.42 20.61*2*pi/ulx,y,z
   ENINI  =  520.0     initial cutoff
   ENAUG  =  446.8 eV  augmentation charge cutoff
   NELM   =    100;   NELMIN=  2; NELMDL= -5     # of ELM steps 
   EDIFF  = 0.1E-05   stopping-criterion for ELM
   LREAL  =      F    real-space projection
   NLSPLINE    = F    spline interpolate recip. space projectors
   LCOMPAT=      F    compatible to vasp.4.4
   GGA_COMPAT  = T    GGA compatible to vasp.4.4-vasp.4.6
   LMAXPAW     = -100 max onsite density
   LMAXMIX     =    4 max onsite mixed and CHGCAR
   VOSKOWN=      0    Vosko Wilk Nusair interpolation
   ROPT   =    0.00000   0.00000
 Ionic relaxation
   EDIFFG = 0.1E-04   stopping-criterion for IOM
   NSW    =      0    number of steps for IOM
   NBLOCK =      1;   KBLOCK =      1    inner block; outer block 
   IBRION =     -1    ionic relax: 0-MD 1-quasi-New 2-CG
   NFREE  =      0    steps in history (QN), initial steepest desc. (CG)
   ISIF   =      2    stress and relaxation
   IWAVPR =     10    prediction:  0-non 1-charg 2-wave 3-comb
   ISYM   =      0    0-nonsym 1-usesym 2-fastsym
   LCORR  =      T    Harris-Foulkes like correction to forces

   POTIM  = 0.5000    time-step for ionic-motion
   TEIN   =    0.0    initial temperature
   TEBEG  =    0.0;   TEEND  =   0.0 temperature during run
   SMASS  =  -3.00    Nose mass-parameter (am)
   estimated Nose-frequenzy (Omega)   =  0.10E-29 period in steps = 0.13E+47 mass=  -0.340E-27a.u.
   SCALEE = 1.0000    scale energy and forces
   NPACO  =    256;   APACO  = 10.0  distance and # of slots for P.C.
   PSTRESS=    0.0 pullay stress

  Mass of Ions in am
   POMASS =  72.61 78.96
  Ionic Valenz
   ZVAL   =   4.00  6.00
  Atomic Wigner-Seitz radii
   RWIGS  =  -1.00 -1.00
  virtual crystal weights 
   VCA    =   1.00  1.00
   NELECT =      40.0000    total number of electrons
   NUPDOWN=      -1.0000    fix difference up-down

 DOS related values:
   EMIN   =  10.00;   EMAX   =-10.00  energy-range for DOS
   EFERMI =   0.00;   METHOD = LEGACY      
   ISMEAR =     0;   SIGMA  =   0.05  broadening in eV -4-tet -1-fermi 0-gaus

 Electronic relaxation 2 (details)
   IALGO  =     38    algorithm
   LDIAG  =      T    sub-space diagonalisation (order eigenvalues)
   LSUBROT=      F    optimize rotation matrix (better conditioning)
   TURBO    =      0    0=normal 1=particle mesh
   IRESTART =      0    0=no restart 2=restart with 2 vectors
   NREBOOT  =      0    no. of reboots
   NMIN     =      0    reboot dimension
   EREF     =   0.00    reference energy to select bands
   IMIX   =      4    mixing-type and parameters
     AMIX     =   0.40;   BMIX     =  1.00
     AMIX_MAG =   1.60;   BMIX_MAG =  1.00
     AMIN     =   0.10
     WC   =   100.;   INIMIX=   1;  MIXPRE=   1;  MAXMIX= -45

 Intra band minimization:
   WEIMIN = 0.0000     energy-eigenvalue tresh-hold
   EBREAK =  0.78E-08  absolut break condition
   DEPER  =   0.30     relativ break condition  

   TIME   =   0.40     timestep for ELM

  volume/ion in A,a.u.               =      24.20       163.30
  Fermi-wavevector in a.u.,A,eV,Ry     =   0.967831  1.828935 12.744535  0.936697
  Thomas-Fermi vector in A             =   2.097750
 
 Write flags
   LWAVE        =      F    write WAVECAR
   LDOWNSAMPLE  =      F    k-point downsampling of WAVECAR
   LCHARG       =      F    write CHGCAR
   LVTOT        =      F    write LOCPOT, total local potential
   LVHAR        =      F    write LOCPOT, Hartree potential only
   LELF         =      F    write electronic localiz. function (ELF)
   LORBIT       =      0    0 simple, 1 ext, 2 COOP (PROOUT), +10 PAW based schemes


 Dipole corrections
   LMONO  =      F    monopole corrections only (constant potential shift)
   LDIPOL =      F    correct potential (dipole corrections)
   IDIPOL =      0    1-x, 2-y, 3-z, 4-all directions 
   EPSILON=  1.0000000 bulk dielectric constant

 Exchange correlation treatment:
   GGA     =    PE    GGA type
   LEXCH   =     8    internal setting for exchange type
   LIBXC   =     F    Libxc                    
   VOSKOWN =     0    Vosko Wilk Nusair interpolation
   LHFCALC =     F    Hartree Fock is set to
   LHFONE  =     F    Hartree Fock one center treatment
   AEXX    =    0.0000 exact exchange contribution

 Linear response parameters
   LEPSILON=     F    determine dielectric tensor
   LRPA    =     F    only Hartree local field effects (RPA)
   LNABLA  =     F    use nabla operator in PAW spheres
   LVEL    =     F    velocity operator in full k-point grid
   CSHIFT  =0.1000    complex shift for real part using Kramers Kronig
   OMEGAMAX=  -1.0    maximum frequency
   DEG_THRESHOLD= 0.2000000E-02 threshold for treating states as degnerate
   RTIME   =   -0.100 relaxation time in fs
  (WPLASMAI=    0.000 imaginary part of plasma frequency in eV, 0.658/RTIME)
   DFIELD  = 0.0000000 0.0000000 0.0000000 field for delta impulse in time
 
  Optional k-point grid parameters
   LKPOINTS_OPT  =     F    use optional k-point grid
   KPOINTS_OPT_MODE=     1    mode for optional k-point grid
 
 Orbital magnetization related:
   ORBITALMAG=     F  switch on orbital magnetization
   LCHIMAG   =     F  perturbation theory with respect to B field
   DQ        =  0.001000  dq finite difference perturbation B field
   LLRAUG    =     F  two centre corrections for induced B field
   LBONE     =     F  B-component reconstruction in AE one-centre
   LVGVCALC  =     T  calculate vGv susceptibility
   LVGVAPPL  =     F  apply vGv susceptibility instead of pGv for G=0

 Random number generation:
   RANDOM_GENERATOR = DEFAULT
   PCG_SEED         = not used


--------------------------------------------------------------------------------------------------------


 Static calculation
 charge density and potential will be updated during run
 non-spin polarized calculation
 Variant of blocked Davidson
 Davidson routine will perform the subspace rotation
 perform sub-space diagonalisation
    after iterative eigenvector-optimisation
 modified Broyden-mixing scheme, WC =      100.0
 initial mixing is a Kerker type mixing with AMIX =  0.4000 and BMIX =      1.0000
 Hartree-type preconditioning will be used
 using additional bands            12
 reciprocal scheme for non local part
 use partial core corrections
 calculate Harris-corrections to forces 
   (improved forces if not selfconsistent)
 use gradient corrections 
 use of overlap-Matrix (Vanderbilt PP)
 Gauss-broadening in eV      SIGMA  =   0.05


--------------------------------------------------------------------------------------------------------


  energy-cutoff  :      520.00
  volume of cell :      193.59
      direct lattice vectors                 reciprocal lattice vectors
     3.858100176  0.000000000  0.000000000     0.259194929  0.000000000  0.000000000
     0.000000000  4.526575088  0.000000000     0.000000000  0.220917577  0.000000000
     0.000000000  0.000000000 11.085176468     0.000000000  0.000000000  0.090210562

  length of vectors
     3.858100176  4.526575088 11.085176468     0.259194929  0.220917577  0.090210562


 
 k-points in units of 2pi/SCALE and weight: KPOINTS created by Atomic Simulation Env
   0.00000000  0.00000000  0.00000000       0.014
   0.04319915  0.00000000  0.00000000       0.028
   0.08639831  0.00000000  0.00000000       0.028
   0.12959746  0.00000000  0.00000000       0.014
   0.00000000  0.03681960  0.00000000       0.028
   0.04319915  0.03681960  0.00000000       0.028
   0.04319915 -0.03681960  0.00000000       0.028
   0.08639831  0.03681960  0.00000000       0.028
   0.08639831 -0.03681960  0.00000000       0.028
   0.12959746  0.03681960  0.00000000       0.028
   0.00000000  0.07363919  0.00000000       0.028
   0.04319915  0.07363919  0.00000000       0.028
   0.04319915 -0.07363919  0.00000000       0.028
   0.08639831  0.07363919  0.00000000       0.028
   0.08639831 -0.07363919  0.00000000       0.028
   0.12959746  0.07363919  0.00000000       0.028
   0.00000000  0.11045879  0.00000000       0.014
   0.04319915  0.11045879  0.00000000       0.028
   0.08639831  0.11045879  0.00000000       0.028
   0.12959746  0.11045879  0.00000000       0.014
   0.00000000  0.00000000  0.04510528       0.014
   0.04319915  0.00000000  0.04510528       0.028
   0.08639831  0.00000000  0.04510528       0.028
   0.12959746  0.00000000  0.04510528       0.014
   0.00000000  0.03681960  0.04510528       0.028
   0.04319915  0.03681960  0.04510528       0.028
   0.04319915 -0.03681960  0.04510528       0.028
   0.08639831  0.03681960  0.04510528       0.028
   0.08639831 -0.03681960  0.04510528       0.028
   0.12959746  0.03681960  0.04510528       0.028
   0.00000000  0.07363919  0.04510528       0.028
   0.04319915  0.07363919  0.04510528       0.028
   0.04319915 -0.07363919  0.04510528       0.028
   0.08639831  0.07363919  0.04510528       0.028
   0.08639831 -0.07363919  0.04510528       0.028
   0.12959746  0.07363919  0.04510528       0.028
   0.00000000  0.11045879  0.04510528       0.014
   0.04319915  0.11045879  0.04510528       0.028
   0.08639831  0.11045879  0.04510528       0.028
   0.12959746  0.11045879  0.04510528       0.014
 
 k-points in reciprocal lattice and weights: KPOINTS created by Atomic Simulation Env
   0.00000000  0.00000000  0.00000000       0.014
   0.16666667  0.00000000  0.00000000       0.028
   0.33333333  0.00000000  0.00000000       0.028
   0.50000000  0.00000000  0.00000000       0.014
   0.00000000  0.16666667  0.00000000       0.028
   0.16666667  0.16666667  0.00000000       0.028
   0.16666667 -0.16666667  0.00000000       0.028
   0.33333333  0.16666667  0.00000000       0.028
   0.33333333 -0.16666667  0.00000000       0.028
   0.50000000  0.16666667  0.00000000       0.028
   0.00000000  0.33333333  0.00000000       0.028
   0.16666667  0.33333333  0.00000000       0.028
   0.16666667 -0.33333333  0.00000000       0.028
   0.33333333  0.33333333  0.00000000       0.028
   0.33333333 -0.33333333  0.00000000       0.028
   0.50000000  0.33333333  0.00000000       0.028
   0.00000000  0.50000000  0.00000000       0.014
   0.16666667  0.50000000  0.00000000       0.028
   0.33333333  0.50000000  0.00000000       0.028
   0.50000000  0.50000000  0.00000000       0.014
   0.00000000  0.00000000  0.50000000       0.014
   0.16666667  0.00000000  0.50000000       0.028
   0.33333333  0.00000000  0.50000000       0.028
   0.50000000  0.00000000  0.50000000       0.014
   0.00000000  0.16666667  0.50000000       0.028
   0.16666667  0.16666667  0.50000000       0.028
   0.16666667 -0.16666667  0.50000000       0.028
   0.33333333  0.16666667  0.50000000       0.028
   0.33333333 -0.16666667  0.50000000       0.028
   0.50000000  0.16666667  0.50000000       0.028
   0.00000000  0.33333333  0.50000000       0.028
   0.16666667  0.33333333  0.50000000       0.028
   0.16666667 -0.33333333  0.50000000       0.028
   0.33333333  0.33333333  0.50000000       0.028
   0.33333333 -0.33333333  0.50000000       0.028
   0.50000000  0.33333333  0.50000000       0.028
   0.00000000  0.50000000  0.50000000       0.014
   0.16666667  0.50000000  0.50000000       0.028
   0.33333333  0.50000000  0.50000000       0.028
   0.50000000  0.50000000  0.50000000       0.014
 
 position of ions in fractional coordinates (direct lattice) 
   0.36594203  0.78078710  0.12298266
   0.86594203  0.28078710  0.37701734
   0.75000000  0.88587957  0.87701734
   0.25000000  0.38587957  0.62298266
   0.36594203  0.65997656  0.35238181
   0.86594203  0.15997656  0.14761819
   0.75000000  0.00669011  0.64761819
   0.25000000  0.50669011  0.85238181
 
 position of ions in cartesian coordinates  (Angst):
   1.41184101  3.53429144  1.36328454
   3.34089109  1.27100390  4.17930370
   2.89357513  4.01000037  9.72189193
   0.96452504  1.74671283  6.90587277
   1.41184101  2.98743344  3.90621455
   3.34089109  0.72414589  1.63637368
   2.89357513  0.03028329  7.17896192
   0.96452504  2.29357083  9.44880278
 


--------------------------------------------------------------------------------------------------------


 k-point   1 :   0.0000 0.0000 0.0000  plane waves:    5211
 k-point   2 :   0.1667 0.0000 0.0000  plane waves:    5225
 k-point   3 :   0.3333 0.0000 0.0000  plane waves:    5224
 k-point   4 :   0.5000 0.0000 0.0000  plane waves:    5258
 k-point   5 :   0.0000 0.1667 0.0000  plane waves:    5209
 k-point   6 :   0.1667 0.1667 0.0000  plane waves:    5201
 k-point   7 :   0.1667-0.1667 0.0000  plane waves:    5201
 k-point   8 :   0.3333 0.1667 0.0000  plane waves:    5230
 k-point   9 :   0.3333-0.1667 0.0000  plane waves:    5230
 k-point  10 :   0.5000 0.1667 0.0000  plane waves:    5236
 k-point  11 :   0.0000 0.3333 0.0000  plane waves:    5213
 k-point  12 :   0.1667 0.3333 0.0000  plane waves:    5199
 k-point  13 :   0.1667-0.3333 0.0000  plane waves:    5199
 k-point  14 :   0.3333 0.3333 0.0000  plane waves:    5211
 k-point  15 :   0.3333-0.3333 0.0000  plane waves:    5211
 k-point  16 :   0.5000 0.3333 0.0000  plane waves:    5230
 k-point  17 :   0.0000 0.5000 0.0000  plane waves:    5220
 k-point  18 :   0.1667 0.5000 0.0000  plane waves:    5208
 k-point  19 :   0.3333 0.5000 0.0000  plane waves:    5230
 k-point  20 :   0.5000 0.5000 0.0000  plane waves:    5180
 k-point  21 :   0.0000 0.0000 0.5000  plane waves:    5210
 k-point  22 :   0.1667 0.0000 0.5000  plane waves:    5178
 k-point  23 :   0.3333 0.0000 0.5000  plane waves:    5214
 k-point  24 :   0.5000 0.0000 0.5000  plane waves:    5232
 k-point  25 :   0.0000 0.1667 0.5000  plane waves:    5224
 k-point  26 :   0.1667 0.1667 0.5000  plane waves:    5210
 k-point  27 :   0.1667-0.1667 0.5000  plane waves:    5210
 k-point  28 :   0.3333 0.1667 0.5000  plane waves:    5196
 k-point  29 :   0.3333-0.1667 0.5000  plane waves:    5196
 k-point  30 :   0.5000 0.1667 0.5000  plane waves:    5224
 k-point  31 :   0.0000 0.3333 0.5000  plane waves:    5202
 k-point  32 :   0.1667 0.3333 0.5000  plane waves:    5214
 k-point  33 :   0.1667-0.3333 0.5000  plane waves:    5214
 k-point  34 :   0.3333 0.3333 0.5000  plane waves:    5216
 k-point  35 :   0.3333-0.3333 0.5000  plane waves:    5216
 k-point  36 :   0.5000 0.3333 0.5000  plane waves:    5216
 k-point  37 :   0.0000 0.5000 0.5000  plane waves:    5212
 k-point  38 :   0.1667 0.5000 0.5000  plane waves:    5192
 k-point  39 :   0.3333 0.5000 0.5000  plane waves:    5208
 k-point  40 :   0.5000 0.5000 0.5000  plane waves:    5208

 maximum and minimum number of plane-waves per node :      1076     1017

 maximum number of plane-waves:      5258
 maximum index in each direction: 
   IXMAX=    7   IYMAX=    8   IZMAX=   20
   IXMIN=   -7   IYMIN=   -8   IZMIN=  -21


 parallel 3D FFT for wavefunctions:
    minimum data exchange during FFTs selected (reduces bandwidth)
 parallel 3D FFT for charge:
    minimum data exchange during FFTs selected (reduces bandwidth)


 total amount of memory used by VASP MPI-rank0    41770. kBytes
=======================================================================

   base      :      30000. kBytes
   nonl-proj :       9056. kBytes
   fftplans  :        519. kBytes
   grid      :        766. kBytes
   one-center:         16. kBytes
   wavefun   :       1413. kBytes
 
     INWAV:  cpu time      0.0000: real time      0.0001
 Broyden mixing: mesh for mixing (old mesh)
   NGX = 15   NGY = 17   NGZ = 41
  (NGX  = 48   NGY  = 56   NGZ  =128)
  gives a total of  10455 points

 initial charge density was supplied:
 charge density of overlapping atoms calculated
 number of electron      40.0000000 magnetization 
 keeping initial charge density in first step


--------------------------------------------------------------------------------------------------------


 Maximum index for augmentation-charges           490 (set IRDMAX)


--------------------------------------------------------------------------------------------------------


 First call to EWALD:  gamma=   0.306
 Maximum number of real-space cells 4x 3x 2
 Maximum number of reciprocal cells 2x 2x 5

    FEWALD:  cpu time      0.0011: real time      0.0011


--------------------------------------- Ionic step        1  -------------------------------------------




--------------------------------------- Iteration      1(   1)  ---------------------------------------


    POTLOK:  cpu time      0.0110: real time      0.0111
    SETDIJ:  cpu time      0.2176: real time      0.2181
     EDDAV:  cpu time      0.3554: real time      0.3569
       DOS:  cpu time      0.0012: real time      0.0012
    --------------------------------------------
      LOOP:  cpu time      0.5851: real time      0.5873

 eigenvalue-minimisations  :  2560
 total energy-change (2. order) : 0.1634935E+03  (-0.1589101E+04)
 number of electron      40.0000000 magnetization 
 augmentation part       40.0000000 magnetization 

 Free energy of the ion-electron system (eV)
  ---------------------------------------------------
  alpha Z        PSCENC =        87.52689448
  Ewald energy   TEWEN  =     -1417.70954448
  -Hartree energ DENC   =      -128.51377447
  -exchange      EXHF   =         0.00000000
  -V(xc)+E(xc)   XCENC  =       -33.29137859
  PAW double counting   =      1193.78262552    -1080.73714043
  entropy T*S    EENTRO =        -0.00533162
  eigenvalues    EBANDS =        93.94650147
  atomic energy  EATOM  =      1448.49460871
  Solvation  Ediel_sol  =         0.00000000
  ---------------------------------------------------
  free energy    TOTEN  =       163.49346058 eV

  energy without entropy =      163.49879220  energy(sigma->0) =      163.49612639


--------------------------------------------------------------------------------------------------------




--------------------------------------- Iteration      1(   2)  ---------------------------------------


     EDDAV:  cpu time      0.4747: real time      0.4774
       DOS:  cpu time      0.0009: real time      0.0009
    --------------------------------------------
      LOOP:  cpu time      0.4756: real time      0.4783

 eigenvalue-minimisations  :  3616
 total energy-change (2. order) :-0.1857050E+03  (-0.1803001E+03)
 number of electron      40.0000000 magnetization 
 augmentation part       40.0000000 magnetization 

 Free energy of the ion-electron system (eV)
  ---------------------------------------------------
  alpha Z        PSCENC =        87.52689448
  Ewald energy   TEWEN  =     -1417.70954448
  -Hartree energ DENC   =      -128.51377447
  -exchange      EXHF   =         0.00000000
  -V(xc)+E(xc)   XCENC  =       -33.29137859
  PAW double counting   =      1193.78262552    -1080.73714043
  entropy T*S    EENTRO =        -0.00004180
  eigenvalues    EBANDS =       -91.76376924
  atomic energy  EATOM  =      1448.49460871
  Solvation  Ediel_sol  =         0.00000000
  ---------------------------------------------------
  free energy    TOTEN  =       -22.21152031 eV

  energy without entropy =      -22.21147851  energy(sigma->0) =      -22.21149941


--------------------------------------------------------------------------------------------------------




--------------------------------------- Iteration      1(   3)  ---------------------------------------


     EDDAV:  cpu time      0.4964: real time      0.4986
       DOS:  cpu time      0.0006: real time      0.0006
    --------------------------------------------
      LOOP:  cpu time      0.4970: real time      0.4992

 eigenvalue-minimisations  :  3392
 total energy-change (2. order) :-0.1145529E+02  (-0.1142089E+02)
 number of electron      40.0000000 magnetization 
 augmentation part       40.0000000 magnetization 

 Free energy of the ion-electron system (eV)
  ---------------------------------------------------
  alpha Z        PSCENC =        87.52689448
  Ewald energy   TEWEN  =     -1417.70954448
  -Hartree energ DENC   =      -128.51377447
  -exchange      EXHF   =         0.00000000
  -V(xc)+E(xc)   XCENC  =       -33.29137859
  PAW double counting   =      1193.78262552    -1080.73714043
  entropy T*S    EENTRO =        -0.00000000
  eigenvalues    EBANDS =      -103.21910533
  atomic energy  EATOM  =      1448.49460871
  Solvation  Ediel_sol  =         0.00000000
  ---------------------------------------------------
  free energy    TOTEN  =       -33.66681461 eV

  energy without entropy =      -33.66681461  energy(sigma->0) =      -33.66681461


--------------------------------------------------------------------------------------------------------




--------------------------------------- Iteration      1(   4)  ---------------------------------------


     EDDAV:  cpu time      0.4599: real time      0.4622
       DOS:  cpu time      0.0018: real time      0.0018
    --------------------------------------------
      LOOP:  cpu time      0.4617: real time      0.4640

 eigenvalue-minimisations  :  3136
 total energy-change (2. order) :-0.9076084E-01  (-0.9074338E-01)
 number of electron      40.0000000 magnetization 
 augmentation part       40.0000000 magnetization 

 Free energy of the ion-electron system (eV)
  ---------------------------------------------------
  alpha Z        PSCENC =        87.52689448
  Ewald energy   TEWEN  =     -1417.70954448
  -Hartree energ DENC   =      -128.51377447
  -exchange      EXHF   =         0.00000000
  -V(xc)+E(xc)   XCENC  =       -33.29137859
  PAW double counting   =      1193.78262552    -1080.73714043
  entropy T*S    EENTRO =        -0.00000000
  eigenvalues    EBANDS =      -103.30986618
  atomic energy  EATOM  =      1448.49460871
  Solvation  Ediel_sol  =         0.00000000
  ---------------------------------------------------
  free energy    TOTEN  =       -33.75757545 eV

  energy without entropy =      -33.75757545  energy(sigma->0) =      -33.75757545


--------------------------------------------------------------------------------------------------------




--------------------------------------- Iteration      1(   5)  ---------------------------------------


     EDDAV:  cpu time      0.4503: real time      0.4525
       DOS:  cpu time      0.0006: real time      0.0006
    CHARGE:  cpu time      0.0091: real time      0.0091
    MIXING:  cpu time      0.0007: real time      0.0007
    --------------------------------------------
      LOOP:  cpu time      0.4607: real time      0.4629

 eigenvalue-minimisations  :  3328
 total energy-change (2. order) :-0.5794783E-03  (-0.5794720E-03)
 number of electron      39.9999997 magnetization 
 augmentation part       -7.4212956 magnetization 

 Broyden mixing:
  rms(total) = 0.65946E+00    rms(broyden)= 0.65946E+00
  rms(prec ) = 0.74072E+00
  weight for this iteration     100.00

 Free energy of the ion-electron system (eV)
  ---------------------------------------------------
  alpha Z        PSCENC =        87.52689448
  Ewald energy   TEWEN  =     -1417.70954448
  -Hartree energ DENC   =      -128.51377447
  -exchange      EXHF   =         0.00000000
  -V(xc)+E(xc)   XCENC  =       -33.29137859
  PAW double counting   =      1193.78262552    -1080.73714043
  entropy T*S    EENTRO =        -0.00000000
  eigenvalues    EBANDS =      -103.31044566
  atomic energy  EATOM  =      1448.49460871
  Solvation  Ediel_sol  =         0.00000000
  ---------------------------------------------------
  free energy    TOTEN  =       -33.75815493 eV

  energy without entropy =      -33.75815493  energy(sigma->0) =      -33.75815493


--------------------------------------------------------------------------------------------------------




--------------------------------------- Iteration      1(   6)  ---------------------------------------


    POTLOK:  cpu time      0.0102: real time      0.0103
    SETDIJ:  cpu time      0.2178: real time      0.2186
     EDDAV:  cpu time      0.4391: real time      0.4411
       DOS:  cpu time      0.0007: real time      0.0007
    CHARGE:  cpu time      0.0090: real time      0.0090
    MIXING:  cpu time      0.0006: real time      0.0006
    --------------------------------------------
      LOOP:  cpu time      0.6773: real time      0.6802

 eigenvalue-minimisations  :  3312
 total energy-change (2. order) : 0.3702218E+00  (-0.7849542E-01)
 number of electron      39.9999997 magnetization 
 augmentation part       -7.3649078 magnetization 

 Broyden mixing:
  rms(total) = 0.41451E+00    rms(broyden)= 0.41451E+00
  rms(prec ) = 0.43532E+00
  weight for this iteration     100.00

 eigenvalues of (default mixing * dielectric matrix)
  average eigenvalue GAMMA=   2.2001
  2.2001

 Free energy of the ion-electron system (eV)
  ---------------------------------------------------
  alpha Z        PSCENC =        87.52689448
  Ewald energy   TEWEN  =     -1417.70954448
  -Hartree energ DENC   =      -134.36391169
  -exchange      EXHF   =         0.00000000
  -V(xc)+E(xc)   XCENC  =       -32.69141116
  PAW double counting   =      1460.44750267    -1347.72281476
  entropy T*S    EENTRO =        -0.00000001
  eigenvalues    EBANDS =       -97.36925686
  atomic energy  EATOM  =      1448.49460871
  Solvation  Ediel_sol  =         0.00000000
  ---------------------------------------------------
  free energy    TOTEN  =       -33.38793310 eV

  energy without entropy =      -33.38793310  energy(sigma->0) =      -33.38793310


--------------------------------------------------------------------------------------------------------




--------------------------------------- Iteration      1(   7)  ---------------------------------------


    POTLOK:  cpu time      0.0101: real time      0.0103
    SETDIJ:  cpu time      0.2179: real time      0.2184
     EDDAV:  cpu time      0.4153: real time      0.4177
       DOS:  cpu time      0.0008: real time      0.0008
    CHARGE:  cpu time      0.0087: real time      0.0088
    MIXING:  cpu time      0.0006: real time      0.0007
    --------------------------------------------
      LOOP:  cpu time      0.6535: real time      0.6565

 eigenvalue-minimisations  :  2880
 total energy-change (2. order) : 0.1136842E-01  (-0.2090031E-01)
 number of electron      39.9999997 magnetization 
 augmentation part       -7.3494447 magnetization 

 Broyden mixing:
  rms(total) = 0.12885E+00    rms(broyden)= 0.12885E+00
  rms(prec ) = 0.13745E+00
  weight for this iteration     100.00

 eigenvalues of (default mixing * dielectric matrix)
  average eigenvalue GAMMA=   1.7822
  1.1803  2.3841

 Free energy of the ion-electron system (eV)
  ---------------------------------------------------
  alpha Z        PSCENC =        87.52689448
  Ewald energy   TEWEN  =     -1417.70954448
  -Hartree energ DENC   =      -137.08442206
  -exchange      EXHF   =         0.00000000
  -V(xc)+E(xc)   XCENC  =       -32.22900233
  PAW double counting   =      1790.25061967    -1677.76563952
  entropy T*S    EENTRO =        -0.00000003
  eigenvalues    EBANDS =       -94.86007911
  atomic energy  EATOM  =      1448.49460871
  Solvation  Ediel_sol  =         0.00000000
  ---------------------------------------------------
  free energy    TOTEN  =       -33.37656468 eV

  energy without entropy =      -33.37656466  energy(sigma->0) =      -33.37656467


--------------------------------------------------------------------------------------------------------




--------------------------------------- Iteration      1(   8)  ---------------------------------------


    POTLOK:  cpu time      0.0101: real time      0.0102
    SETDIJ:  cpu time      0.2184: real time      0.2190
     EDDAV:  cpu time      0.4889: real time      0.4905
       DOS:  cpu time      0.0008: real time      0.0008
    CHARGE:  cpu time      0.0088: real time      0.0088
    MIXING:  cpu time      0.0011: real time      0.0011
    --------------------------------------------
      LOOP:  cpu time      0.7280: real time      0.7303

 eigenvalue-minimisations  :  2976
 total energy-change (2. order) : 0.1299117E-02  (-0.2013103E-02)
 number of electron      39.9999997 magnetization 
 augmentation part       -7.3567956 magnetization 

 Broyden mixing:
  rms(total) = 0.17456E-01    rms(broyden)= 0.17456E-01
  rms(prec ) = 0.21174E-01
  weight for this iteration     100.00

 eigenvalues of (default mixing * dielectric matrix)
  average eigenvalue GAMMA=   1.6854
  2.5020  1.2772  1.2772

 Free energy of the ion-electron system (eV)
  ---------------------------------------------------
  alpha Z        PSCENC =        87.52689448
  Ewald energy   TEWEN  =     -1417.70954448
  -Hartree energ DENC   =      -137.27105248
  -exchange      EXHF   =         0.00000000
  -V(xc)+E(xc)   XCENC  =       -32.09044192
  PAW double counting   =      1928.37579812    -1815.95347096
  entropy T*S    EENTRO =        -0.00000004
  eigenvalues    EBANDS =       -94.74805698
  atomic energy  EATOM  =      1448.49460871
  Solvation  Ediel_sol  =         0.00000000
  ---------------------------------------------------
  free energy    TOTEN  =       -33.37526557 eV

  energy without entropy =      -33.37526553  energy(sigma->0) =      -33.37526555


--------------------------------------------------------------------------------------------------------




--------------------------------------- Iteration      1(   9)  ---------------------------------------


    POTLOK:  cpu time      0.0102: real time      0.0104
    SETDIJ:  cpu time      0.2184: real time      0.2190
     EDDAV:  cpu time      0.4804: real time      0.4824
       DOS:  cpu time      0.0008: real time      0.0009
    CHARGE:  cpu time      0.0086: real time      0.0086
    MIXING:  cpu time      0.0008: real time      0.0008
    --------------------------------------------
      LOOP:  cpu time      0.7192: real time      0.7220

 eigenvalue-minimisations  :  3280
 total energy-change (2. order) :-0.3777786E-03  (-0.2831543E-03)
 number of electron      39.9999997 magnetization 
 augmentation part       -7.3556928 magnetization 

 Broyden mixing:
  rms(total) = 0.67383E-02    rms(broyden)= 0.67383E-02
  rms(prec ) = 0.75490E-02
  weight for this iteration     100.00

 eigenvalues of (default mixing * dielectric matrix)
  average eigenvalue GAMMA=   1.7319
  2.2908  2.2908  1.1729  1.1729

 Free energy of the ion-electron system (eV)
  ---------------------------------------------------
  alpha Z        PSCENC =        87.52689448
  Ewald energy   TEWEN  =     -1417.70954448
  -Hartree energ DENC   =      -137.57646275
  -exchange      EXHF   =         0.00000000
  -V(xc)+E(xc)   XCENC  =       -32.05196041
  PAW double counting   =      1941.94230626    -1829.52876843
  entropy T*S    EENTRO =        -0.00000004
  eigenvalues    EBANDS =       -94.47271668
  atomic energy  EATOM  =      1448.49460871
  Solvation  Ediel_sol  =         0.00000000
  ---------------------------------------------------
  free energy    TOTEN  =       -33.37564335 eV

  energy without entropy =      -33.37564331  energy(sigma->0) =      -33.37564333


--------------------------------------------------------------------------------------------------------




--------------------------------------- Iteration      1(  10)  ---------------------------------------


    POTLOK:  cpu time      0.0100: real time      0.0101
    SETDIJ:  cpu time      0.2176: real time      0.2181
     EDDAV:  cpu time      0.5417: real time      0.5505
       DOS:  cpu time      0.0017: real time      0.0017
    CHARGE:  cpu time      0.0093: real time      0.0093
    MIXING:  cpu time      0.0017: real time      0.0017
    --------------------------------------------
      LOOP:  cpu time      0.7820: real time      0.7914

 eigenvalue-minimisations  :  3344
 total energy-change (2. order) :-0.1287085E-03  (-0.2615152E-04)
 number of electron      39.9999997 magnetization 
 augmentation part       -7.3556017 magnetization 

 Broyden mixing:
  rms(total) = 0.22973E-02    rms(broyden)= 0.22973E-02
  rms(prec ) = 0.28446E-02
  weight for this iteration     100.00

 eigenvalues of (default mixing * dielectric matrix)
  average eigenvalue GAMMA=   1.7404
  2.6754  2.3849  1.1995  1.2212  1.2212

 Free energy of the ion-electron system (eV)
  ---------------------------------------------------
  alpha Z        PSCENC =        87.52689448
  Ewald energy   TEWEN  =     -1417.70954448
  -Hartree energ DENC   =      -137.62554335
  -exchange      EXHF   =         0.00000000
  -V(xc)+E(xc)   XCENC  =       -32.04673328
  PAW double counting   =      1935.76301357    -1823.34473140
  entropy T*S    EENTRO =        -0.00000004
  eigenvalues    EBANDS =       -94.43373626
  atomic energy  EATOM  =      1448.49460871
  Solvation  Ediel_sol  =         0.00000000
  ---------------------------------------------------
  free energy    TOTEN  =       -33.37577205 eV

  energy without entropy =      -33.37577202  energy(sigma->0) =      -33.37577204


--------------------------------------------------------------------------------------------------------




--------------------------------------- Iteration      1(  11)  ---------------------------------------


    POTLOK:  cpu time      0.0148: real time      0.0150
    SETDIJ:  cpu time      0.2200: real time      0.2206
     EDDAV:  cpu time      0.3964: real time      0.3980
       DOS:  cpu time      0.0008: real time      0.0008
    CHARGE:  cpu time      0.0088: real time      0.0089
    MIXING:  cpu time      0.0008: real time      0.0008
    --------------------------------------------
      LOOP:  cpu time      0.6417: real time      0.6439

 eigenvalue-minimisations  :  2960
 total energy-change (2. order) :-0.2883701E-04  (-0.3668428E-05)
 number of electron      39.9999997 magnetization 
 augmentation part       -7.3557368 magnetization 

 Broyden mixing:
  rms(total) = 0.11000E-02    rms(broyden)= 0.11000E-02
  rms(prec ) = 0.12282E-02
  weight for this iteration     100.00

 eigenvalues of (default mixing * dielectric matrix)
  average eigenvalue GAMMA=   1.7251
  2.5357  2.2581  2.2581  1.1957  1.1957  0.9071

 Free energy of the ion-electron system (eV)
  ---------------------------------------------------
  alpha Z        PSCENC =        87.52689448
  Ewald energy   TEWEN  =     -1417.70954448
  -Hartree energ DENC   =      -137.65556122
  -exchange      EXHF   =         0.00000000
  -V(xc)+E(xc)   XCENC  =       -32.04072098
  PAW double counting   =      1937.20553217    -1824.78752387
  entropy T*S    EENTRO =        -0.00000004
  eigenvalues    EBANDS =       -94.40948566
  atomic energy  EATOM  =      1448.49460871
  Solvation  Ediel_sol  =         0.00000000
  ---------------------------------------------------
  free energy    TOTEN  =       -33.37580089 eV

  energy without entropy =      -33.37580086  energy(sigma->0) =      -33.37580087


--------------------------------------------------------------------------------------------------------




--------------------------------------- Iteration      1(  12)  ---------------------------------------


    POTLOK:  cpu time      0.0104: real time      0.0105
    SETDIJ:  cpu time      0.2171: real time      0.2176
     EDDAV:  cpu time      0.4691: real time      0.4709
       DOS:  cpu time      0.0008: real time      0.0008
    CHARGE:  cpu time      0.0087: real time      0.0087
    MIXING:  cpu time      0.0008: real time      0.0008
    --------------------------------------------
      LOOP:  cpu time      0.7068: real time      0.7094

 eigenvalue-minimisations  :  3504
 total energy-change (2. order) :-0.2006435E-05  (-0.5935504E-06)
 number of electron      39.9999997 magnetization 
 augmentation part       -7.3556292 magnetization 

 Broyden mixing:
  rms(total) = 0.37989E-03    rms(broyden)= 0.37989E-03
  rms(prec ) = 0.43878E-03
  weight for this iteration     100.00

 eigenvalues of (default mixing * dielectric matrix)
  average eigenvalue GAMMA=   1.7225
  2.9826  2.4609  1.9616  0.9940  1.3439  1.1572  1.1572

 Free energy of the ion-electron system (eV)
  ---------------------------------------------------
  alpha Z        PSCENC =        87.52689448
  Ewald energy   TEWEN  =     -1417.70954448
  -Hartree energ DENC   =      -137.67073140
  -exchange      EXHF   =         0.00000000
  -V(xc)+E(xc)   XCENC  =       -32.03954309
  PAW double counting   =      1936.82830348    -1824.41026358
  entropy T*S    EENTRO =        -0.00000004
  eigenvalues    EBANDS =       -94.39552696
  atomic energy  EATOM  =      1448.49460871
  Solvation  Ediel_sol  =         0.00000000
  ---------------------------------------------------
  free energy    TOTEN  =       -33.37580290 eV

  energy without entropy =      -33.37580286  energy(sigma->0) =      -33.37580288


--------------------------------------------------------------------------------------------------------




--------------------------------------- Iteration      1(  13)  ---------------------------------------


    POTLOK:  cpu time      0.0110: real time      0.0111
    SETDIJ:  cpu time      0.2213: real time      0.2218
     EDDAV:  cpu time      0.3179: real time      0.3198
       DOS:  cpu time      0.0009: real time      0.0009
    --------------------------------------------
      LOOP:  cpu time      0.5511: real time      0.5536

 eigenvalue-minimisations  :  2016
 total energy-change (2. order) :-0.2718486E-06  (-0.1406524E-06)
 number of electron      39.9999997 magnetization 
 augmentation part       -7.3556292 magnetization 

 Free energy of the ion-electron system (eV)
  ---------------------------------------------------
  alpha Z        PSCENC =        87.52689448
  Ewald energy   TEWEN  =     -1417.70954448
  -Hartree energ DENC   =      -137.67465124
  -exchange      EXHF   =         0.00000000
  -V(xc)+E(xc)   XCENC  =       -32.03907167
  PAW double counting   =      1936.52918538    -1824.11085135
  entropy T*S    EENTRO =        -0.00000004
  eigenvalues    EBANDS =       -94.39237296
  atomic energy  EATOM  =      1448.49460871
  Solvation  Ediel_sol  =         0.00000000
  ---------------------------------------------------
  free energy    TOTEN  =       -33.37580317 eV

  energy without entropy =      -33.37580313  energy(sigma->0) =      -33.37580315


--------------------------------------------------------------------------------------------------------




 average (electrostatic) potential at core
  the test charge radii are     1.1631  1.0808
  (the norm of the test charge is              1.0000)
       1 -33.4485       2 -33.4485       3 -33.4485       4 -33.4485       5 -54.9826
       6 -54.9826       7 -54.9826       8 -54.9826
 
 
 
 E-fermi :   3.5411     XC(G=0):  -9.2736     alpha+bet : -8.7197

 Fermi energy:         3.5411206627

 k-point     1 :       0.0000    0.0000    0.0000
  band No.  band energies     occupation 
      1     -10.9756      2.00000
      2     -10.6554      2.00000
      3      -9.7071      2.00000
      4      -9.2681      2.00000
      5      -4.9078      2.00000
      6      -3.9971      2.00000
      7      -2.9614      2.00000
      8      -2.3862      2.00000
      9      -1.6661      2.00000
     10      -0.4022      2.00000
     11       0.0041      2.00000
     12       0.0989      2.00000
     13       0.1633      2.00000
     14       0.4658      2.00000
     15       1.3553      2.00000
     16       1.4777      2.00000
     17       1.8202      2.00000
     18       2.2876      2.00000
     19       2.4253      2.00000
     20       3.0826      2.00000
     21       3.6994      0.00001
     22       5.3413      0.00000
     23       5.8270      0.00000
     24       5.9865      0.00000
     25       6.3873      0.00000
     26       6.8165      0.00000
     27       7.2628      0.00000
     28       8.0671      0.00000
     29       8.1001      0.00000
     30       8.1958      0.00000
     31       8.4305      0.00000
     32       8.9122      0.00000

 k-point     2 :       0.1667    0.0000    0.0000
  band No.  band energies     occupation 
      1     -10.7856      2.00000
      2     -10.4799      2.00000
      3      -9.5900      2.00000
      4      -9.2104      2.00000
      5      -5.0966      2.00000
      6      -4.2594      2.00000
      7      -3.2283      2.00000
      8      -2.8425      2.00000
      9      -1.6805      2.00000
     10      -0.2881      2.00000
     11      -0.1965      2.00000
     12       0.1787      2.00000
     13       0.1821      2.00000
     14       0.3425      2.00000
     15       1.1401      2.00000
     16       1.3248      2.00000
     17       1.9905      2.00000
     18       2.1675      2.00000
     19       2.4525      2.00000
     20       3.1014      2.00000
     21       3.8722      0.00000
     22       5.2853      0.00000
     23       5.9884      0.00000
     24       6.0875      0.00000
     25       6.3436      0.00000
     26       6.6517      0.00000
     27       6.8641      0.00000
     28       7.6312      0.00000
     29       7.7878      0.00000
     30       8.0798      0.00000
     31       8.1249      0.00000
     32       8.4642      0.00000

 k-point     3 :       0.3333    0.0000    0.0000
  band No.  band energies     occupation 
      1     -10.2662      2.00000
      2     -10.0148      2.00000
      3      -9.3937      2.00000
      4      -9.2057      2.00000
      5      -5.4775      2.00000
      6      -4.7175      2.00000
      7      -4.3474      2.00000
      8      -3.7250      2.00000
      9      -1.3010      2.00000
     10      -0.3164      2.00000
     11      -0.0891      2.00000
     12       0.4907      2.00000
     13       0.5282      2.00000
     14       0.8615      2.00000
     15       1.0544      2.00000
     16       1.3343      2.00000
     17       1.5040      2.00000
     18       2.0932      2.00000
     19       2.6288      2.00000
     20       2.8596      2.00000
     21       4.0954      0.00000
     22       4.3487      0.00000
     23       4.9593      0.00000
     24       5.2737      0.00000
     25       5.4927      0.00000
     26       5.5727      0.00000
     27       6.0668      0.00000
     28       6.7428      0.00000
     29       6.9530      0.00000
     30       7.4501      0.00000
     31       7.7945      0.00000
     32       8.5369      0.00000

 k-point     4 :       0.5000    0.0000    0.0000
  band No.  band energies     occupation 
      1      -9.6228      2.00000
      2      -9.6228      2.00000
      3      -9.4995      2.00000
      4      -9.4995      2.00000
      5      -5.3253      2.00000
      6      -5.3253      2.00000
      7      -4.5729      2.00000
      8      -4.5729      2.00000
      9      -0.5648      2.00000
     10      -0.5648      2.00000
     11       0.3962      2.00000
     12       0.3962      2.00000
     13       0.9958      2.00000
     14       0.9958      2.00000
     15       1.2134      2.00000
     16       1.2134      2.00000
     17       1.6002      2.00000
     18       1.6002      2.00000
     19       2.5418      2.00000
     20       2.5418      2.00000
     21       4.1458      0.00000
     22       4.1458      0.00000
     23       4.7697      0.00000
     24       4.7697      0.00000
     25       5.3760      0.00000
     26       5.3760      0.00000
     27       5.5624      0.00000
     28       5.5624      0.00000
     29       6.3568      0.00000
     30       6.3568      0.00000
     31       8.0568      0.00000
     32       8.0568      0.00000

 k-point     5 :       0.0000    0.1667    0.0000
  band No.  band energies     occupation 
      1     -10.8561      2.00000
      2     -10.5540      2.00000
      3      -9.7027      2.00000
      4      -9.3457      2.00000
      5      -5.1164      2.00000
      6      -4.2196      2.00000
      7      -3.5820      2.00000
      8      -2.6186      2.00000
      9      -1.7086      2.00000
     10       0.0017      2.00000
     11       0.2947      2.00000
     12       0.4665      2.00000
     13       0.5449      2.00000
     14       0.6115      2.00000
     15       1.4298      2.00000
     16       1.7037      2.00000
     17       1.7532      2.00000
     18       2.0617      2.00000
     19       2.5877      2.00000
     20       3.3430      2.00000
     21       3.8602      0.00000
     22       5.3401      0.00000
     23       5.5370      0.00000
     24       5.8660      0.00000
     25       6.0606      0.00000
     26       6.4276      0.00000
     27       6.7530      0.00000
     28       7.5476      0.00000
     29       7.6049      0.00000
     30       8.1067      0.00000
     31       8.4769      0.00000
     32       8.9943      0.00000

 k-point     6 :       0.1667    0.1667    0.0000
  band No.  band energies     occupation 
      1     -10.6698      2.00000
      2     -10.3858      2.00000
      3      -9.5840      2.00000
      4      -9.2845      2.00000
      5      -5.1830      2.00000
      6      -4.3540      2.00000
      7      -3.7758      2.00000
      8      -2.8543      2.00000
      9      -1.5757      2.00000
     10      -0.8367      2.00000
     11      -0.3742      2.00000
     12       0.2102      2.00000
     13       0.7312      2.00000
     14       0.8194      2.00000
     15       1.1745      2.00000
     16       1.3276      2.00000
     17       1.6879      2.00000
     18       2.4354      2.00000
     19       2.6083      2.00000
     20       3.3777      2.00000
     21       4.0749      0.00000
     22       4.9885      0.00000
     23       5.5572      0.00000
     24       5.5878      0.00000
     25       6.3832      0.00000
     26       6.7405      0.00000
     27       6.9028      0.00000
     28       7.3173      0.00000
     29       7.7120      0.00000
     30       7.8191      0.00000
     31       8.2277      0.00000
     32       9.0117      0.00000

 k-point     7 :       0.1667   -0.1667    0.0000
  band No.  band energies     occupation 
      1     -10.6734      2.00000
      2     -10.3823      2.00000
      3      -9.5914      2.00000
      4      -9.2751      2.00000
      5      -5.2253      2.00000
      6      -4.3067      2.00000
      7      -3.5708      2.00000
      8      -3.1325      2.00000
      9      -1.5821      2.00000
     10      -0.7784      2.00000
     11      -0.4989      2.00000
     12       0.3502      2.00000
     13       0.6736      2.00000
     14       0.9058      2.00000
     15       1.2332      2.00000
     16       1.3513      2.00000
     17       1.8421      2.00000
     18       2.3036      2.00000
     19       2.7176      2.00000
     20       2.9583      2.00000
     21       4.1037      0.00000
     22       5.1779      0.00000
     23       5.4521      0.00000
     24       5.4575      0.00000
     25       6.5840      0.00000
     26       6.7860      0.00000
     27       6.8899      0.00000
     28       7.4927      0.00000
     29       7.6897      0.00000
     30       7.8887      0.00000
     31       8.3581      0.00000
     32       8.3998      0.00000

 k-point     8 :       0.3333    0.1667    0.0000
  band No.  band energies     occupation 
      1     -10.1691      2.00000
      2      -9.9436      2.00000
      3      -9.3801      2.00000
      4      -9.2474      2.00000
      5      -5.3762      2.00000
      6      -4.6769      2.00000
      7      -4.4745      2.00000
      8      -3.6879      2.00000
      9      -1.1962      2.00000
     10      -1.0296      2.00000
     11      -0.7333      2.00000
     12       0.0405      2.00000
     13       0.6062      2.00000
     14       0.6589      2.00000
     15       0.9512      2.00000
     16       1.3083      2.00000
     17       1.5488      2.00000
     18       1.9464      2.00000
     19       2.3400      2.00000
     20       3.1776      2.00000
     21       4.0745      0.00000
     22       4.8245      0.00000
     23       4.8311      0.00000
     24       5.7172      0.00000
     25       5.9401      0.00000
     26       6.2114      0.00000
     27       6.4833      0.00000
     28       6.9040      0.00000
     29       7.2966      0.00000
     30       8.0009      0.00000
     31       8.3739      0.00000
     32       8.8614      0.00000

 k-point     9 :       0.3333   -0.1667    0.0000
  band No.  band energies     occupation 
      1     -10.1776      2.00000
      2      -9.9356      2.00000
      3      -9.3974      2.00000
      4      -9.2263      2.00000
      5      -5.4635      2.00000
      6      -4.5802      2.00000
      7      -4.2419      2.00000
      8      -3.9574      2.00000
      9      -1.2223      2.00000
     10      -1.0331      2.00000
     11      -0.8023      2.00000
     12       0.0805      2.00000
     13       0.5583      2.00000
     14       0.8973      2.00000
     15       0.9807      2.00000
     16       1.3655      2.00000
     17       1.5173      2.00000
     18       1.9902      2.00000
     19       2.5654      2.00000
     20       2.5737      2.00000
     21       4.1081      0.00000
     22       4.8881      0.00000
     23       4.9004      0.00000
     24       5.6629      0.00000
     25       5.7330      0.00000
     26       6.1140      0.00000
     27       6.4790      0.00000
     28       7.5723      0.00000
     29       7.6976      0.00000
     30       8.0284      0.00000
     31       8.1242      0.00000
     32       8.4196      0.00000

 k-point    10 :       0.5000    0.1667    0.0000
  band No.  band energies     occupation 
      1      -9.5834      2.00000
      2      -9.5752      2.00000
      3      -9.4690      2.00000
      4      -9.4626      2.00000
      5      -5.2916      2.00000
      6      -5.1784      2.00000
      7      -4.5846      2.00000
      8      -4.4604      2.00000
      9      -0.7673      2.00000
     10      -0.7090      2.00000
     11      -0.1712      2.00000
     12      -0.1599      2.00000
     13       0.1396      2.00000
     14       0.3813      2.00000
     15       0.7502      2.00000
     16       0.8004      2.00000
     17       1.6406      2.00000
     18       1.7406      2.00000
     19       2.4825      2.00000
     20       2.8692      2.00000
     21       4.2472      0.00000
     22       4.2727      0.00000
     23       5.1361      0.00000
     24       5.2477      0.00000
     25       6.0725      0.00000
     26       6.2850      0.00000
     27       6.4618      0.00000
     28       6.5402      0.00000
     29       7.1134      0.00000
     30       7.2034      0.00000
     31       7.6365      0.00000
     32       8.2752      0.00000

 k-point    11 :       0.0000    0.3333    0.0000
  band No.  band energies     occupation 
      1     -10.5232      2.00000
      2     -10.2842      2.00000
      3      -9.7597      2.00000
      4      -9.6081      2.00000
      5      -5.3762      2.00000
      6      -4.5383      2.00000
      7      -4.4310      2.00000
      8      -3.4682      2.00000
      9      -1.2654      2.00000
     10       0.3944      2.00000
     11       0.6763      2.00000
     12       0.8928      2.00000
     13       1.1504      2.00000
     14       1.2589      2.00000
     15       1.4471      2.00000
     16       1.5437      2.00000
     17       1.6474      2.00000
     18       2.9222      2.00000
     19       3.0398      2.00000
     20       3.1585      2.00000
     21       4.5107      0.00000
     22       4.5241      0.00000
     23       4.8692      0.00000
     24       5.5042      0.00000
     25       5.8461      0.00000
     26       5.8659      0.00000
     27       6.1981      0.00000
     28       6.6740      0.00000
     29       6.7658      0.00000
     30       7.2965      0.00000
     31       8.6360      0.00000
     32       9.2956      0.00000

 k-point    12 :       0.1667    0.3333    0.0000
  band No.  band energies     occupation 
      1     -10.3526      2.00000
      2     -10.1348      2.00000
      3      -9.6374      2.00000
      4      -9.5218      2.00000
      5      -5.2951      2.00000
      6      -4.5427      2.00000
      7      -4.4059      2.00000
      8      -3.4751      2.00000
      9      -1.0821      2.00000
     10      -0.8589      2.00000
     11      -0.2990      2.00000
     12       0.0457      2.00000
     13       0.4467      2.00000
     14       0.5939      2.00000
     15       1.3171      2.00000
     16       1.7046      2.00000
     17       2.3017      2.00000
     18       2.3459      2.00000
     19       2.7386      2.00000
     20       3.2844      2.00000
     21       4.4122      0.00000
     22       5.0507      0.00000
     23       5.3483      0.00000
     24       5.8291      0.00000
     25       5.9478      0.00000
     26       6.5262      0.00000
     27       6.6752      0.00000
     28       7.1674      0.00000
     29       7.4101      0.00000
     30       7.8261      0.00000
     31       8.5048      0.00000
     32       9.2398      0.00000

 k-point    13 :       0.1667   -0.3333    0.0000
  band No.  band energies     occupation 
      1     -10.3601      2.00000
      2     -10.1276      2.00000
      3      -9.6490      2.00000
      4      -9.5082      2.00000
      5      -5.3505      2.00000
      6      -4.4275      2.00000
      7      -4.3484      2.00000
      8      -3.6171      2.00000
      9      -1.1555      2.00000
     10      -0.7842      2.00000
     11      -0.4461      2.00000
     12       0.1554      2.00000
     13       0.5169      2.00000
     14       0.7038      2.00000
     15       1.2716      2.00000
     16       1.7079      2.00000
     17       2.2708      2.00000
     18       2.4411      2.00000
     19       2.8013      2.00000
     20       2.9611      2.00000
     21       4.4329      0.00000
     22       5.0734      0.00000
     23       5.6364      0.00000
     24       5.8620      0.00000
     25       5.9202      0.00000
     26       6.0462      0.00000
     27       6.5010      0.00000
     28       7.5015      0.00000
     29       7.6788      0.00000
     30       7.9898      0.00000
     31       8.6384      0.00000
     32       8.7992      0.00000

 k-point    14 :       0.3333    0.3333    0.0000
  band No.  band energies     occupation 
      1      -9.9171      2.00000
      2      -9.7565      2.00000
      3      -9.4010      2.00000
      4      -9.3779      2.00000
      5      -5.1767      2.00000
      6      -4.7147      2.00000
      7      -4.4916      2.00000
      8      -3.8151      2.00000
      9      -1.6424      2.00000
     10      -1.1344      2.00000
     11      -1.0837      2.00000
     12      -0.5880      2.00000
     13      -0.1427      2.00000
     14       0.1829      2.00000
     15       0.5648      2.00000
     16       0.9277      2.00000
     17       1.0185      2.00000
     18       1.9796      2.00000
     19       2.2895      2.00000
     20       3.2602      2.00000
     21       4.2033      0.00000
     22       5.5101      0.00000
     23       5.5828      0.00000
     24       6.6022      0.00000
     25       6.8604      0.00000
     26       7.1878      0.00000
     27       7.2129      0.00000
     28       7.7408      0.00000
     29       8.1649      0.00000
     30       8.7144      0.00000
     31       8.9341      0.00000
     32       9.3886      0.00000

 k-point    15 :       0.3333   -0.3333    0.0000
  band No.  band energies     occupation 
      1      -9.9345      2.00000
      2      -9.7401      2.00000
      3      -9.4307      2.00000
      4      -9.3440      2.00000
      5      -5.3253      2.00000
      6      -4.3855      2.00000
      7      -4.3238      2.00000
      8      -4.1879      2.00000
      9      -1.6157      2.00000
     10      -1.2346      2.00000
     11      -1.1455      2.00000
     12      -0.5683      2.00000
     13      -0.0845      2.00000
     14       0.3063      2.00000
     15       0.4439      2.00000
     16       1.0343      2.00000
     17       1.3219      2.00000
     18       1.8132      2.00000
     19       2.4478      2.00000
     20       2.6726      2.00000
     21       4.2364      0.00000
     22       5.7157      0.00000
     23       5.8453      0.00000
     24       6.3640      0.00000
     25       6.5831      0.00000
     26       7.3142      0.00000
     27       7.5461      0.00000
     28       8.1001      0.00000
     29       8.3460      0.00000
     30       8.3512      0.00000
     31       8.7661      0.00000
     32       9.3998      0.00000

 k-point    16 :       0.5000    0.3333    0.0000
  band No.  band energies     occupation 
      1      -9.4961      2.00000
      2      -9.4759      2.00000
      3      -9.4066      2.00000
      4      -9.3897      2.00000
      5      -5.1621      2.00000
      6      -4.8958      2.00000
      7      -4.5694      2.00000
      8      -4.2770      2.00000
      9      -1.2633      2.00000
     10      -1.2115      2.00000
     11      -0.9719      2.00000
     12      -0.9498      2.00000
     13      -0.4296      2.00000
     14      -0.3257      2.00000
     15       0.2685      2.00000
     16       0.4216      2.00000
     17       0.9768      2.00000
     18       1.0984      2.00000
     19       2.2268      2.00000
     20       3.0048      2.00000
     21       4.8705      0.00000
     22       4.9430      0.00000
     23       6.2290      0.00000
     24       6.5341      0.00000
     25       7.1082      0.00000
     26       7.2365      0.00000
     27       7.8041      0.00000
     28       8.0802      0.00000
     29       8.2714      0.00000
     30       8.5873      0.00000
     31       8.9541      0.00000
     32       8.9625      0.00000

 k-point    17 :       0.0000    0.5000    0.0000
  band No.  band energies     occupation 
      1     -10.0665      2.00000
      2     -10.0665      2.00000
      3      -9.9547      2.00000
      4      -9.9547      2.00000
      5      -5.2127      2.00000
      6      -5.2127      2.00000
      7      -4.1766      2.00000
      8      -4.1766      2.00000
      9      -0.5002      2.00000
     10      -0.5002      2.00000
     11       1.1706      2.00000
     12       1.1706      2.00000
     13       1.3240      2.00000
     14       1.3240      2.00000
     15       1.7038      2.00000
     16       1.7038      2.00000
     17       2.5040      2.00000
     18       2.5040      2.00000
     19       2.9713      2.00000
     20       2.9713      2.00000
     21       4.7365      0.00000
     22       4.7365      0.00000
     23       5.0525      0.00000
     24       5.0525      0.00000
     25       5.4695      0.00000
     26       5.4695      0.00000
     27       6.0524      0.00000
     28       6.0524      0.00000
     29       6.5283      0.00000
     30       6.5283      0.00000
     31       9.1613      0.00000
     32       9.1613      0.00000

 k-point    18 :       0.1667    0.5000    0.0000
  band No.  band energies     occupation 
      1      -9.9345      2.00000
      2      -9.9253      2.00000
      3      -9.8309      2.00000
      4      -9.8225      2.00000
      5      -5.1445      2.00000
      6      -5.0748      2.00000
      7      -4.1547      2.00000
      8      -4.0802      2.00000
      9      -0.4864      2.00000
     10      -0.4252      2.00000
     11      -0.3477      2.00000
     12      -0.2615      2.00000
     13       0.0860      2.00000
     14       0.1574      2.00000
     15       1.4828      2.00000
     16       1.6516      2.00000
     17       2.3050      2.00000
     18       2.6690      2.00000
     19       2.9300      2.00000
     20       2.9919      2.00000
     21       4.7421      0.00000
     22       4.8087      0.00000
     23       5.5438      0.00000
     24       5.7883      0.00000
     25       6.1911      0.00000
     26       6.2538      0.00000
     27       6.8510      0.00000
     28       7.1505      0.00000
     29       7.4001      0.00000
     30       7.5718      0.00000
     31       8.6481      0.00000
     32       9.2059      0.00000

[...]
     32       8.3100      0.00000

 k-point    32 :       0.1667    0.3333    0.5000
  band No.  band energies     occupation 
      1     -10.2578      2.00000
      2     -10.2578      2.00000
      3      -9.5650      2.00000
      4      -9.5650      2.00000
      5      -5.0226      2.00000
      6      -5.0226      2.00000
      7      -3.9121      2.00000
      8      -3.9121      2.00000
      9      -0.7375      2.00000
     10      -0.7375      2.00000
     11      -0.1024      2.00000
     12      -0.1024      2.00000
     13       0.5418      2.00000
     14       0.5418      2.00000
     15       1.2418      2.00000
     16       1.2418      2.00000
     17       2.4136      2.00000
     18       2.4136      2.00000
     19       2.6026      2.00000
     20       2.6026      2.00000
     21       5.1830      0.00000
     22       5.1830      0.00000
     23       5.7400      0.00000
     24       5.7400      0.00000
     25       6.2020      0.00000
     26       6.2020      0.00000
     27       7.0482      0.00000
     28       7.0482      0.00000
     29       7.6152      0.00000
     30       7.6152      0.00000
     31       8.3506      0.00000
     32       8.3506      0.00000

 k-point    33 :       0.1667   -0.3333    0.5000
  band No.  band energies     occupation 
      1     -10.2604      2.00000
      2     -10.2604      2.00000
      3      -9.5616      2.00000
      4      -9.5616      2.00000
      5      -5.0261      2.00000
      6      -5.0261      2.00000
      7      -3.9044      2.00000
      8      -3.9044      2.00000
      9      -0.6865      2.00000
     10      -0.6865      2.00000
     11      -0.2152      2.00000
     12      -0.2152      2.00000
     13       0.4984      2.00000
     14       0.4984      2.00000
     15       1.3625      2.00000
     16       1.3625      2.00000
     17       2.3686      2.00000
     18       2.3686      2.00000
     19       2.6500      2.00000
     20       2.6500      2.00000
     21       5.2262      0.00000
     22       5.2262      0.00000
     23       5.7574      0.00000
     24       5.7574      0.00000
     25       6.2576      0.00000
     26       6.2576      0.00000
     27       6.7872      0.00000
     28       6.7872      0.00000
     29       7.6941      0.00000
     30       7.6941      0.00000
     31       8.2355      0.00000
     32       8.2355      0.00000

 k-point    34 :       0.3333    0.3333    0.5000
  band No.  band energies     occupation 
      1      -9.8446      2.00000
      2      -9.8446      2.00000
      3      -9.3824      2.00000
      4      -9.3824      2.00000
      5      -4.9638      2.00000
      6      -4.9638      2.00000
      7      -4.1875      2.00000
      8      -4.1875      2.00000
      9      -1.4757      2.00000
     10      -1.4757      2.00000
     11      -0.5894      2.00000
     12      -0.5894      2.00000
     13       0.0291      2.00000
     14       0.0291      2.00000
     15       0.6315      2.00000
     16       0.6315      2.00000
     17       1.6633      2.00000
     18       1.6633      2.00000
     19       2.2043      2.00000
     20       2.2043      2.00000
     21       5.5880      0.00000
     22       5.5880      0.00000
     23       5.8991      0.00000
     24       5.8991      0.00000
     25       6.8938      0.00000
     26       6.8938      0.00000
     27       7.7288      0.00000
     28       7.7288      0.00000
     29       7.8794      0.00000
     30       7.8794      0.00000
     31       9.3702      0.00000
     32       9.3702      0.00000

 k-point    35 :       0.3333   -0.3333    0.5000
  band No.  band energies     occupation 
      1      -9.8506      2.00000
      2      -9.8506      2.00000
      3      -9.3748      2.00000
      4      -9.3748      2.00000
      5      -4.9799      2.00000
      6      -4.9799      2.00000
      7      -4.1649      2.00000
      8      -4.1649      2.00000
      9      -1.4300      2.00000
     10      -1.4300      2.00000
     11      -0.7300      2.00000
     12      -0.7300      2.00000
     13       0.0715      2.00000
     14       0.0715      2.00000
     15       0.6547      2.00000
     16       0.6547      2.00000
     17       1.6058      2.00000
     18       1.6058      2.00000
     19       2.3519      2.00000
     20       2.3519      2.00000
     21       5.4430      0.00000
     22       5.4430      0.00000
     23       5.9336      0.00000
     24       5.9336      0.00000
     25       6.7873      0.00000
     26       6.7873      0.00000
     27       7.8159      0.00000
     28       7.8159      0.00000
     29       7.9840      0.00000
     30       7.9840      0.00000
     31       9.3160      0.00000
     32       9.3160      0.00000

 k-point    36 :       0.5000    0.3333    0.5000
  band No.  band energies     occupation 
      1      -9.4654      2.00000
      2      -9.4654      2.00000
      3      -9.4204      2.00000
      4      -9.4204      2.00000
      5      -4.9594      2.00000
      6      -4.9594      2.00000
      7      -4.5273      2.00000
      8      -4.5273      2.00000
      9      -1.1099      2.00000
     10      -1.1099      2.00000
     11      -0.9827      2.00000
     12      -0.9827      2.00000
     13      -0.2481      2.00000
     14      -0.2481      2.00000
     15      -0.0425      2.00000
     16      -0.0425      2.00000
     17       1.7253      2.00000
     18       1.7253      2.00000
     19       1.8729      2.00000
     20       1.8729      2.00000
     21       5.5612      0.00000
     22       5.5612      0.00000
     23       6.2140      0.00000
     24       6.2140      0.00000
     25       6.9702      0.00000
     26       6.9702      0.00000
     27       7.3973      0.00000
     28       7.3973      0.00000
     29       8.7250      0.00000
     30       8.7250      0.00000
     31       8.9265      0.00000
     32       8.9265      0.00000

 k-point    37 :       0.0000    0.5000    0.5000
  band No.  band energies     occupation 
      1     -10.0451      2.00000
      2     -10.0451      2.00000
      3      -9.9783      2.00000
      4      -9.9783      2.00000
      5      -5.0839      2.00000
      6      -5.0839      2.00000
      7      -4.3912      2.00000
      8      -4.3912      2.00000
      9       0.3077      2.00000
     10       0.3077      2.00000
     11       0.6396      2.00000
     12       0.6396      2.00000
     13       1.1909      2.00000
     14       1.1909      2.00000
     15       1.3191      2.00000
     16       1.3191      2.00000
     17       2.7485      2.00000
     18       2.7485      2.00000
     19       2.7578      2.00000
     20       2.7578      2.00000
     21       4.8460      0.00000
     22       4.8460      0.00000
     23       4.8552      0.00000
     24       4.8552      0.00000
     25       5.9712      0.00000
     26       5.9712      0.00000
     27       6.3796      0.00000
     28       6.3796      0.00000
     29       6.8417      0.00000
     30       6.8417      0.00000
     31       8.0675      0.00000
     32       8.0675      0.00000

 k-point    38 :       0.1667    0.5000    0.5000
  band No.  band energies     occupation 
      1      -9.9080      2.00000
      2      -9.9080      2.00000
      3      -9.8505      2.00000
      4      -9.8505      2.00000
      5      -4.9950      2.00000
      6      -4.9950      2.00000
      7      -4.3050      2.00000
      8      -4.3050      2.00000
      9      -0.3791      2.00000
     10      -0.3791      2.00000
     11      -0.1208      2.00000
     12      -0.1208      2.00000
     13       0.6235      2.00000
     14       0.6235      2.00000
     15       0.7848      2.00000
     16       0.7848      2.00000
     17       2.4307      2.00000
     18       2.4307      2.00000
     19       2.6605      2.00000
     20       2.6605      2.00000
     21       5.4952      0.00000
     22       5.4952      0.00000
     23       5.8198      0.00000
     24       5.8198      0.00000
     25       6.2148      0.00000
     26       6.2148      0.00000
     27       6.9219      0.00000
     28       6.9219      0.00000
     29       7.6319      0.00000
     30       7.6319      0.00000
     31       8.1002      0.00000
     32       8.1002      0.00000

 k-point    39 :       0.3333    0.5000    0.5000
  band No.  band energies     occupation 
      1      -9.5949      2.00000
      2      -9.5949      2.00000
      3      -9.5596      2.00000
      4      -9.5596      2.00000
      5      -4.8746      2.00000
      6      -4.8746      2.00000
      7      -4.2870      2.00000
      8      -4.2870      2.00000
      9      -1.3977      2.00000
     10      -1.3977      2.00000
     11      -1.1641      2.00000
     12      -1.1641      2.00000
     13       0.1355      2.00000
     14       0.1355      2.00000
     15       0.3154      2.00000
     16       0.3154      2.00000
     17       1.6219      2.00000
     18       1.6219      2.00000
     19       1.9926      2.00000
     20       1.9926      2.00000
     21       5.7397      0.00000
     22       5.7397      0.00000
     23       6.6265      0.00000
     24       6.6265      0.00000
     25       7.2612      0.00000
     26       7.2612      0.00000
     27       7.6556      0.00000
     28       7.6556      0.00000
     29       8.9430      0.00000
     30       8.9430      0.00000
     31       9.2061      0.00000
     32       9.2061      0.00000

 k-point    40 :       0.5000    0.5000    0.5000
  band No.  band energies     occupation 
      1      -9.4134      2.00000
      2      -9.4134      2.00000
      3      -9.3880      2.00000
      4      -9.3880      2.00000
      5      -4.8787      2.00000
      6      -4.8787      2.00000
      7      -4.4417      2.00000
      8      -4.4417      2.00000
      9      -1.2908      2.00000
     10      -1.2908      2.00000
     11      -1.1909      2.00000
     12      -1.1909      2.00000
     13      -0.6769      2.00000
     14      -0.6769      2.00000
     15      -0.4558      2.00000
     16      -0.4558      2.00000
     17       1.7257      2.00000
     18       1.7257      2.00000
     19       1.9250      2.00000
     20       1.9250      2.00000
     21       5.4479      0.00000
     22       5.4479      0.00000
     23       6.3613      0.00000
     24       6.3613      0.00000
     25       7.9126      0.00000
     26       7.9126      0.00000
     27       8.1125      0.00000
     28       8.1125      0.00000
     29       9.4470      0.00000
     30       9.4470      0.00000
     31       9.8965      0.00000
     32       9.8965      0.00000


--------------------------------------------------------------------------------------------------------


 soft charge-density along one line, spin component            1
         0         1         2         3         4         5         6         7         8         9
 total charge-density along one line
 
 pseudopotential strength for first ion, spin component:            1
 14.512  18.105   0.039   0.041  -0.001   0.070   0.074  -0.001
 18.105  22.603   0.049   0.052  -0.001   0.088   0.094  -0.001
  0.039   0.049   3.225  -0.002  -0.000   5.489  -0.003  -0.000
  0.041   0.052  -0.002   3.221   0.000  -0.003   5.483   0.000
 -0.001  -0.001  -0.000   0.000   3.226  -0.000   0.000   5.491
  0.070   0.088   5.489  -0.003  -0.000   9.402  -0.006  -0.000
  0.074   0.094  -0.003   5.483   0.000  -0.006   9.392   0.000
 -0.001  -0.001  -0.000   0.000   5.491  -0.000   0.000   9.405
 -0.000  -0.000  -0.000   0.000   0.006  -0.000   0.000   0.012
 -0.004  -0.005   0.010   0.013   0.000   0.019   0.022   0.000
 -0.005  -0.006  -0.003   0.010  -0.000  -0.006   0.019  -0.000
  0.000   0.000   0.000  -0.000   0.010   0.000  -0.001   0.019
  0.001   0.002  -0.012   0.000  -0.000  -0.021   0.000  -0.000
 total augmentation occupancy for first ion, spin component:            1
  2.785  -0.741   0.344   0.317   0.011  -0.067  -0.053  -0.004   0.000  -0.006   0.001  -0.005   0.011
 -0.741   0.689  -0.423  -0.436  -0.007   0.068   0.064   0.002  -0.001  -0.002   0.001   0.003  -0.006
  0.344  -0.423   1.226   0.050   0.000  -0.201   0.001  -0.000  -0.000   0.045  -0.100  -0.001   0.002
  0.317  -0.436   0.050   1.384  -0.015   0.000  -0.223   0.004   0.001  -0.016   0.087   0.009  -0.006
  0.011  -0.007   0.000  -0.015   1.263  -0.001   0.004  -0.220   0.145  -0.002   0.003   0.035   0.001
 -0.067   0.068  -0.201   0.000  -0.001   0.037  -0.001   0.000   0.000  -0.007   0.017   0.000  -0.000
 -0.053   0.064   0.001  -0.223   0.004  -0.001   0.042  -0.001   0.000   0.003  -0.014  -0.001   0.001
 -0.004   0.002  -0.000   0.004  -0.220   0.000  -0.001   0.042  -0.026   0.000  -0.001  -0.006  -0.000
  0.000  -0.001  -0.000   0.001   0.145   0.000   0.000  -0.026   0.031   0.000  -0.000   0.003  -0.000
 -0.006  -0.002   0.045  -0.016  -0.002  -0.007   0.003   0.000   0.000   0.012  -0.006   0.001   0.001
  0.001   0.001  -0.100   0.087   0.003   0.017  -0.014  -0.001  -0.000  -0.006   0.031  -0.001  -0.002
 -0.005   0.003  -0.001   0.009   0.035   0.000  -0.001  -0.006   0.003   0.001  -0.001   0.011  -0.000
  0.011  -0.006   0.002  -0.006   0.001  -0.000   0.001  -0.000  -0.000   0.001  -0.002  -0.000   0.009


------------------------ aborting loop because EDIFF is reached ----------------------------------------


    CHARGE:  cpu time      0.0083: real time      0.0083
    FORLOC:  cpu time      0.0004: real time      0.0004
    FORNL :  cpu time      0.0535: real time      0.0539
    STRESS:  cpu time      0.4448: real time      0.4465
    FORCOR:  cpu time      0.0093: real time      0.0094
    FORHAR:  cpu time      0.0022: real time      0.0022
    MIXING:  cpu time      0.0007: real time      0.0007
    OFIELD:  cpu time      0.0000: real time      0.0000

  FORCE on cell =-STRESS in cart. coord.  units (eV):
  Direction    XX          YY          ZZ          XY          YZ          ZX
  --------------------------------------------------------------------------------------
  Alpha Z    87.52689    87.52689    87.52689
  Ewald    -438.31605  -489.91076  -489.48436     6.39830    -0.00000     0.00000
  Hartree    62.20269    44.24914    31.22637     2.77870    -0.00000     0.00000
  E(xc)    -141.37244  -141.38658  -141.54135     0.02816     0.00000     0.00000
  Local    -188.56552  -125.55033  -115.58624    -9.73918     0.00000     0.00000
  n-local   240.90530   239.96295   241.98240     0.11508    -0.00000    -0.00000
  augment   -11.41721   -11.81526   -12.09174    -0.05674    -0.00000     0.00000
  Kinetic   390.35630   397.99479   401.39840     1.00316     0.00000     0.00000
  Fock        0.00000     0.00000     0.00000     0.00000     0.00000     0.00000
  -------------------------------------------------------------------------------------
  Total       1.31996     1.07084     3.43036     0.52748     0.00000     0.00000
  in kB      10.92409     8.86235    28.38993     4.36547     0.00000     0.00000
  external pressure =       16.06 kB  Pullay stress =        0.00 kB


 VOLUME and BASIS-vectors are now :
 -----------------------------------------------------------------------------
  energy-cutoff  :      520.00
  volume of cell :      193.59
      direct lattice vectors                 reciprocal lattice vectors
     3.858100176  0.000000000  0.000000000     0.259194929  0.000000000  0.000000000
     0.000000000  4.526575088  0.000000000     0.000000000  0.220917577  0.000000000
     0.000000000  0.000000000 11.085176468     0.000000000  0.000000000  0.090210562

  length of vectors
     3.858100176  4.526575088 11.085176468     0.259194929  0.220917577  0.090210562


 FORCES acting on ions
    electron-ion (+dipol)            ewald-force                    non-local-force                 convergence-correction
 -----------------------------------------------------------------------------------------------
   0.602E+00 0.143E+02 0.215E+02   -.484E+00 -.166E+02 -.241E+02   -.602E-01 0.227E+01 0.295E+01   0.901E-04 0.522E-04 -.705E-03
   0.602E+00 0.143E+02 -.215E+02   -.484E+00 -.166E+02 0.241E+02   -.602E-01 0.227E+01 -.295E+01   0.900E-04 0.523E-04 0.706E-03
   -.602E+00 -.143E+02 -.215E+02   0.484E+00 0.166E+02 0.241E+02   0.602E-01 -.227E+01 -.295E+01   -.900E-04 -.523E-04 0.705E-03
   -.602E+00 -.143E+02 0.215E+02   0.484E+00 0.166E+02 -.241E+02   0.602E-01 -.227E+01 0.295E+01   -.900E-04 -.527E-04 -.707E-03
   -.350E+00 -.182E+02 -.267E+02   0.209E+00 0.198E+02 0.283E+02   0.154E+00 -.137E+01 -.180E+01   -.192E-03 -.452E-03 0.997E-03
   -.350E+00 -.182E+02 0.267E+02   0.209E+00 0.198E+02 -.283E+02   0.154E+00 -.137E+01 0.180E+01   -.192E-03 -.453E-03 -.996E-03
   0.350E+00 0.182E+02 0.267E+02   -.209E+00 -.198E+02 -.283E+02   -.154E+00 0.137E+01 0.180E+01   0.192E-03 0.454E-03 -.999E-03
   0.350E+00 0.182E+02 -.267E+02   -.209E+00 -.198E+02 0.283E+02   -.154E+00 0.137E+01 -.180E+01   0.192E-03 0.452E-03 0.997E-03
 -----------------------------------------------------------------------------------------------
   -.696E-05 0.640E-06 0.465E-05   -.305E-14 -.355E-14 -.142E-13   -.118E-03 0.377E-04 -.174E-05   0.416E-06 0.456E-06 -.119E-05
 
 
 POSITION                                       TOTAL-FORCE (eV/Angst)
 -----------------------------------------------------------------------------------
      1.41184      3.53429      1.36328         0.058068     -0.051673      0.393002
      3.34089      1.27100      4.17930         0.058068     -0.051673     -0.393001
      2.89358      4.01000      9.72189        -0.058044      0.051598     -0.393036
      0.96453      1.74671      6.90587        -0.058044      0.051598      0.393036
      1.41184      2.98743      3.90621         0.013155      0.232722     -0.227872
      3.34089      0.72415      1.63637         0.013155      0.232723      0.227872
      2.89358      0.03028      7.17896        -0.013180     -0.232647      0.227872
      0.96453      2.29357      9.44880        -0.013180     -0.232647     -0.227873
 -----------------------------------------------------------------------------------
    total drift:                               -0.000124      0.000039      0.000002


--------------------------------------------------------------------------------------------------------



  FREE ENERGIE OF THE ION-ELECTRON SYSTEM (eV)
  ---------------------------------------------------
  free  energy   TOTEN  =       -33.37580317 eV

  energy  without entropy=      -33.37580313  energy(sigma->0) =      -33.37580315
 


--------------------------------------------------------------------------------------------------------


    POTLOK:  cpu time      0.2274: real time      0.2283


--------------------------------------------------------------------------------------------------------


     LOOP+:  cpu time      8.9000: real time      8.9449
    4ORBIT:  cpu time      0.0000: real time      0.0000

 total amount of memory used by VASP MPI-rank0    41770. kBytes
=======================================================================

   base      :      30000. kBytes
   nonl-proj :       9056. kBytes
   fftplans  :        519. kBytes
   grid      :        766. kBytes
   one-center:         16. kBytes
   wavefun   :       1413. kBytes
 
  
  
 General timing and accounting informations for this job:
 ========================================================
  
                  Total CPU time used (sec):       10.709
                            User time (sec):       10.378
                          System time (sec):        0.332
                         Elapsed time (sec):       11.017
  
                   Maximum memory used (kb):      178536.
                   Average memory used (kb):          N/A
  
                          Minor page faults:        23751
                          Major page faults:           48
                 Voluntary context switches:         1965
