 running  160 mpi-ranks, with    1 threads/rank, on   10 nodes
 distrk:  each k-point on   80 cores,    2 groups
 distr:  one band on    5 cores,   16 groups
 vasp.6.4.2 20Jul23 (build Oct 12 2023 10:31:02) complex                         
 POSCAR found type information on POSCAR GeSe
 POSCAR found :  2 types and       8 ions
 Reading from existing POTCAR
 scaLAPACK will be used
 Reading from existing POTCAR
 LDA part: xc-table for Pade appr. of Perdew
 POSCAR, INCAR and KPOINTS ok, starting setup
 FFT: planning ... GRIDC
 FFT: planning ... GRID_SOFT
 FFT: planning ... GRID
 WAVECAR not read
 entering main loop
       N       E                     dE             d eps       ncg     rms          rms(c)
DAV:   1     0.130434220947E+03    0.13043E+03   -0.13001E+04  2560   0.778E+02
DAV:   2    -0.249124139132E+02   -0.15535E+03   -0.15100E+03  3744   0.142E+02
DAV:   3    -0.331473953395E+02   -0.82350E+01   -0.82198E+01  3232   0.374E+01
DAV:   4    -0.332019790191E+02   -0.54584E-01   -0.54572E-01  3408   0.347E+00
DAV:   5    -0.332023401363E+02   -0.36112E-03   -0.36111E-03  3184   0.272E-01    0.699E+00
DAV:   6    -0.328785715543E+02    0.32377E+00   -0.67057E-01  3264   0.270E+00    0.439E+00
DAV:   7    -0.328660649087E+02    0.12507E-01   -0.20238E-01  3024   0.161E+00    0.117E+00
DAV:   8    -0.328639875253E+02    0.20774E-02   -0.20948E-02  2896   0.543E-01    0.170E-01
DAV:   9    -0.328643262087E+02   -0.33868E-03   -0.24265E-03  3376   0.223E-01    0.637E-02
DAV:  10    -0.328644161674E+02   -0.89959E-04   -0.18278E-04  3296   0.582E-02    0.221E-02
DAV:  11    -0.328644430219E+02   -0.26855E-04   -0.32953E-05  3104   0.254E-02    0.927E-03
DAV:  12    -0.328644447886E+02   -0.17666E-05   -0.46311E-06  3552   0.960E-03    0.382E-03
DAV:  13    -0.328644448067E+02   -0.18186E-07   -0.91580E-07  1840   0.446E-03
   1 F= -.32864445E+02 E0= -.32863737E+02  d E =-.141541E-02
