 running  128 mpi-ranks, with    1 threads/rank, on    2 nodes
 distrk:  each k-point on   64 cores,    2 groups
 distr:  one band on    8 cores,    8 groups
 vasp.6.4.2 20Jul23 (build Oct 12 2023 10:31:02) complex                         
 POSCAR found type information on POSCAR GeSe
 POSCAR found :  2 types and      72 ions
 Reading from existing POTCAR
 -----------------------------------------------------------------------------
|                                                                             |
|           W    W    AA    RRRRR   N    N  II  N    N   GGGG   !!!           |
|           W    W   A  A   R    R  NN   N  II  NN   N  G    G  !!!           |
|           W    W  A    A  R    R  N N  N  II  N N  N  G       !!!           |
|           W WW W  AAAAAA  RRRRR   N  N N  II  N  N N  G  GGG   !            |
|           WW  WW  A    A  R   R   N   NN  II  N   NN  G    G                |
|           W    W  A    A  R    R  N    N  II  N    N   GGGG   !!!           |
|                                                                             |
|     You use a magnetic or noncollinear calculation, but did not specify     |
|     the initial magnetic moment with the MAGMOM tag. Note that a            |
|     default of 1 will be used for all atoms. This ferromagnetic setup       |
|     may break the symmetry of the crystal, in particular it may rule        |
|     out finding an antiferromagnetic solution. Thence, we recommend         |
|     setting the initial magnetic moment manually or verifying carefully     |
|     that this magnetic setup is desired.                                    |
|                                                                             |
 -----------------------------------------------------------------------------

 scaLAPACK will be used
 Reading from existing POTCAR
 -----------------------------------------------------------------------------
|                                                                             |
|               ----> ADVICE to this user running VASP <----                  |
|                                                                             |
|     You have a (more or less) 'large supercell' and for larger cells it     |
|     might be more efficient to use real-space projection operators.         |
|     Therefore, try LREAL= Auto in the INCAR file.                           |
|     Mind: For very accurate calculation, you might also keep the            |
|     reciprocal projection scheme (i.e. LREAL=.FALSE.).                      |
|                                                                             |
 -----------------------------------------------------------------------------

 LDA part: xc-table for Pade appr. of Perdew
 -----------------------------------------------------------------------------
|                                                                             |
|           W    W    AA    RRRRR   N    N  II  N    N   GGGG   !!!           |
|           W    W   A  A   R    R  NN   N  II  NN   N  G    G  !!!           |
|           W    W  A    A  R    R  N N  N  II  N N  N  G       !!!           |
|           W WW W  AAAAAA  RRRRR   N  N N  II  N  N N  G  GGG   !            |
|           WW  WW  A    A  R   R   N   NN  II  N   NN  G    G                |
|           W    W  A    A  R    R  N    N  II  N    N   GGGG   !!!           |
|                                                                             |
|     The number of bands has been changed from the values supplied in        |
|     the INCAR file. This is a result of running the parallel version.       |
|     The orbitals not found in the WAVECAR file will be initialized with     |
|     random numbers, which is usually adequate. For correlated               |
|     calculations, however, you should redo the groundstate calculation.     |
|     I found NBANDS = 220. Now, NBANDS = 224.                                |
|                                                                             |
 -----------------------------------------------------------------------------

 POSCAR, INCAR and KPOINTS ok, starting setup
 FFT: planning ... GRIDC
 FFT: planning ... GRID_SOFT
 FFT: planning ... GRID
 WAVECAR not read
 WARNING: random wavefunctions but no delay for mixing, default for NELMDL
 entering main loop
       N       E                     dE             d eps       ncg     rms          rms(c)
DAV:   1     0.185389497895E+04    0.18539E+04   -0.14236E+05  7168   0.135E+03
DAV:   2    -0.480562814501E+02   -0.19020E+04   -0.18278E+04  8496   0.207E+02
DAV:   3    -0.265105104708E+03   -0.21705E+03   -0.21014E+03  8616   0.697E+01
DAV:   4    -0.273283676694E+03   -0.81786E+01   -0.80675E+01  8752   0.133E+01
DAV:   5    -0.273586582564E+03   -0.30291E+00   -0.30193E+00  9080   0.217E+00    0.316E+01
DAV:   6    -0.271153763450E+03    0.24328E+01   -0.28773E+01  8248   0.836E+00    0.186E+01
DAV:   7    -0.279184011597E+03   -0.80302E+01   -0.10592E+01  7928   0.507E+00    0.986E+00
DAV:   8    -0.282086202317E+03   -0.29022E+01   -0.18166E+00  8488   0.245E+00    0.386E+00
DAV:   9    -0.282596831549E+03   -0.51063E+00   -0.56681E-01  8888   0.116E+00    0.167E+00
DAV:  10    -0.282739512092E+03   -0.14268E+00   -0.13769E-01  8232   0.565E-01    0.817E-01
DAV:  11    -0.282777943209E+03   -0.38431E-01   -0.43913E-02  9184   0.324E-01    0.377E-01
DAV:  12    -0.282784789631E+03   -0.68464E-02   -0.82138E-03  8184   0.157E-01    0.167E-01
DAV:  13    -0.282785451581E+03   -0.66195E-03   -0.14355E-03  9544   0.591E-02    0.736E-02
DAV:  14    -0.282785559601E+03   -0.10802E-03   -0.24062E-04  8648   0.263E-02    0.294E-02
DAV:  15    -0.282785573627E+03   -0.14026E-04   -0.42583E-05  8328   0.123E-02    0.141E-02
DAV:  16    -0.282785575189E+03   -0.15617E-05   -0.47153E-06  7304   0.409E-03    0.669E-03
DAV:  17    -0.282785575931E+03   -0.74263E-06   -0.16437E-06  4520   0.243E-03
   1 F= -.28278558E+03 E0= -.28278558E+03  d E =-.833829E-06  mag=     0.0002
