 vasp.6.4.2 20Jul23 (build Oct 12 2023 10:31:02) complex                         
 executed on              LinuxNV date 2025.05.28  10:16:17
 running  128 mpi-ranks, with    1 threads/rank, on    2 nodes
 distrk:  each k-point on   64 cores,    2 groups
 distr:  one band on NCORE=   4 cores,   16 groups


--------------------------------------------------------------------------------------------------------


 INCAR:
   ENCUT = 360.000000
   SIGMA = 0.050000
   EDIFF = 1.00e-06
   ALGO = Normal
   GGA = PE
   PREC = Normal
   SYSTEM = ./
   ICHARG = 2
   ISMEAR = 0
   ISPIN = 1
   ISTART = 0
   ISYM = 0
   KPAR = 2
   LMAXMIX = 4
   NELM = 100
   NPAR = 16
   LASPH = .TRUE.
   LCHARG = .FALSE.
   LWAVE = .FALSE.

 POTCAR:    PAW_PBE Ge 05Jan2001                  
 POTCAR:    PAW_PBE Se 06Sep2000                  
 POTCAR:    PAW_PBE Ge 05Jan2001                  
   VRHFIN =Ge: s2p2                                                                                 
   LEXCH  = PE                                                                                      
   EATOM  =   104.9960 eV,    7.7170 Ry                                                             
                                                                                                    
   TITEL  = PAW_PBE Ge 05Jan2001                                                                    
   LULTRA =        F    use ultrasoft PP ?                                                          
   IUNSCR =        1    unscreen: 0-lin 1-nonlin 2-no                                               
   RPACOR =    2.170    partial core radius                                                         
   POMASS =   72.610; ZVAL   =    4.000    mass and valenz                                          
   RCORE  =    2.300    outmost cutoff radius                                                       
   RWIGS  =    2.300; RWIGS  =    1.217    wigner-seitz radius (au A)                               
   ENMAX  =  173.807; ENMIN  =  130.355 eV                                                          
   ICORE  =        3    local potential                                                             
   LCOR   =        T    correct aug charges                                                         
   LPAW   =        T    paw PP                                                                      
   EAUG   =  385.843                                                                                
   DEXC   =    0.000                                                                                
   RMAX   =    2.342    core radius for proj-oper                                                   
   RAUG   =    1.300    factor for augmentation sphere                                              
   RDEP   =    2.318    radius for radial grids                                                     
   RDEPT  =    2.103    core radius for aug-charge                                                  
                                                                                                    
   Atomic configuration                                                                             
   10 entries                                                                                       
     n  l   j            E        occ.                                                              
     1  0  0.50    -10959.8463   2.0000                                                             
     2  0  0.50     -1371.6056   2.0000                                                             
     2  1  1.50     -1198.4791   6.0000                                                             
     3  0  0.50      -168.4733   2.0000                                                             
     3  1  1.50      -115.6019   6.0000                                                             
     3  2  2.50       -29.3106  10.0000                                                             
     4  0  0.50       -11.7309   2.0000                                                             
     4  1  0.50        -3.8952   2.0000                                                             
     4  2  1.50        -4.0817   0.0000                                                             
     4  3  2.50        -4.0817   0.0000                                                             
   Description                                                                                      
     l       E           TYP  RCUT    TYP  RCUT                                                     
     0    -11.7309493     23  2.300                                                                 
     0     -7.4578696     23  2.300                                                                 
     1     -3.8952261     23  2.300                                                                 
     1      6.1178114     23  2.300                                                                 
     2     -4.0817478     23  2.300                                                                 
     3     -1.3605826      7  2.300                                                                 
  local pseudopotential read in
  partial core-charges read in
  partial kinetic energy density read in
  atomic valenz-charges read in
  non local Contribution for L=            0  read in
    real space projection operators read in
  non local Contribution for L=            0  read in
    real space projection operators read in
  non local Contribution for L=            1  read in
    real space projection operators read in
  non local Contribution for L=            1  read in
    real space projection operators read in
  non local Contribution for L=            2  read in
    real space projection operators read in
    PAW grid and wavefunctions read in
 
   number of l-projection  operators is LMAX  =            5
   number of lm-projection operators is LMMAX =           13
 
 POTCAR:    PAW_PBE Se 06Sep2000                  
   VRHFIN =Se: s2p4                                                                                 
   LEXCH  = PE                                                                                      
   EATOM  =   257.1286 eV,   18.8984 Ry                                                             
                                                                                                    
   TITEL  = PAW_PBE Se 06Sep2000                                                                    
   LULTRA =        F    use ultrasoft PP ?                                                          
   IUNSCR =        1    unscreen: 0-lin 1-nonlin 2-no                                               
   RPACOR =    1.900    partial core radius                                                         
   POMASS =   78.960; ZVAL   =    6.000    mass and valenz                                          
   RCORE  =    2.100    outmost cutoff radius                                                       
   RWIGS  =    2.200; RWIGS  =    1.164    wigner-seitz radius (au A)                               
   ENMAX  =  211.555; ENMIN  =  158.666 eV                                                          
   ICORE  =        3    local potential                                                             
   LCOR   =        T    correct aug charges                                                         
   LPAW   =        T    paw PP                                                                      
   EAUG   =  446.842                                                                                
   DEXC   =    0.000                                                                                
   RMAX   =    2.147    core radius for proj-oper                                                   
   RAUG   =    1.300    factor for augmentation sphere                                              
   RDEP   =    2.177    radius for radial grids                                                     
   RDEPT  =    1.928    core radius for aug-charge                                                  
                                                                                                    
   Atomic configuration                                                                             
   10 entries                                                                                       
     n  l   j            E        occ.                                                              
     1  0  0.50    -12503.4787   2.0000                                                             
     2  0  0.50     -1606.9547   2.0000                                                             
     2  1  1.50     -1413.3140   6.0000                                                             
     3  0  0.50      -213.4885   2.0000                                                             
     3  1  1.50      -152.9538   6.0000                                                             
     3  2  2.50       -53.1221  10.0000                                                             
     4  0  0.50       -17.2865   2.0000                                                             
     4  1  0.50        -6.5110   4.0000                                                             
     4  2  2.50        -6.8029   0.0000                                                             
     4  3  2.50        -6.8029   0.0000                                                             
   Description                                                                                      
     l       E           TYP  RCUT    TYP  RCUT                                                     
     0    -17.2865377     23  2.100                                                                 
     0    -15.3094411     23  2.100                                                                 
     1     -6.5110275     23  2.100                                                                 
     1     -0.0695192     23  2.100                                                                 
     2     -6.8029130     23  2.100                                                                 
     3     -1.3605826      7  2.100                                                                 
  local pseudopotential read in
  partial core-charges read in
  partial kinetic energy density read in
  atomic valenz-charges read in
  non local Contribution for L=            0  read in
    real space projection operators read in
  non local Contribution for L=            0  read in
    real space projection operators read in
  non local Contribution for L=            1  read in
    real space projection operators read in
  non local Contribution for L=            1  read in
    real space projection operators read in
  non local Contribution for L=            2  read in
    real space projection operators read in
    PAW grid and wavefunctions read in
 
   number of l-projection  operators is LMAX  =            5
   number of lm-projection operators is LMMAX =           13
 
  PAW_PBE Ge 05Jan2001                  :
 energy of atom  1       EATOM= -104.9960
 kinetic energy error for atom=    0.0005 (will be added to EATOM!!)
  PAW_PBE Se 06Sep2000                  :
 energy of atom  2       EATOM= -257.1286
 kinetic energy error for atom=    0.0030 (will be added to EATOM!!)
 
 
 POSCAR: Ge Se
  positions in cartesian coordinates
  No initial velocities read in
 exchange correlation table for  LEXCH =        8
   RHO(1)=    0.500       N(1)  =     2000
   RHO(2)=  100.500       N(2)  =     4000
 


--------------------------------------------------------------------------------------------------------


 ion  position               nearest neighbor table
   1  0.104  0.250  0.127-   5 2.58   6 2.62   6 2.62
   2  0.604  0.750  0.373-   6 2.58   5 2.62   5 2.62
   3  0.896  0.750  0.873-   7 2.58   8 2.62   8 2.62
   4  0.396  0.250  0.627-   8 2.58   7 2.62   7 2.62
   5  0.997  0.250  0.355-   1 2.58   2 2.62   2 2.62
   6  0.497  0.750  0.145-   2 2.58   1 2.62   1 2.62
   7  0.003  0.750  0.645-   3 2.58   4 2.62   4 2.62
   8  0.503  0.250  0.855-   4 2.58   3 2.62   3 2.62
 

IMPORTANT INFORMATION: All symmetrisations will be switched off!
NOSYMM: (Re-)initialisation of all symmetry stuff for point group C_1.


----------------------------------------------------------------------------------------

                                     Primitive cell                                     

  volume of cell :     191.4512

  direct lattice vectors                    reciprocal lattice vectors
     4.350000000  0.000000000  0.000000000     0.229885057  0.000000000  0.000000000
     0.000000000  3.950000000  0.000000000     0.000000000  0.253164557  0.000000000
     0.000000000  0.000000000 11.142221000     0.000000000  0.000000000  0.089748713

  length of vectors
     4.350000000  3.950000000 11.142221000     0.229885057  0.253164557  0.089748713

  position of ions in fractional coordinates (direct lattice)
     0.104195497  0.250000000  0.126504372
     0.604195497  0.750000000  0.373495628
     0.895804503  0.750000000  0.873495628
     0.395804503  0.250000000  0.626504372
     0.996867650  0.250000000  0.354553415
     0.496867650  0.750000000  0.145446585
     0.003132350  0.750000000  0.645446585
     0.503132350  0.250000000  0.854553415

  ion indices of the primitive-cell ions
   primitive index   ion index
                 1           1
                 2           2
                 3           3
                 4           4
                 5           5
                 6           6
                 7           7
                 8           8

----------------------------------------------------------------------------------------

 
 
 KPOINTS: KPOINTS created by Atomic Simulation Env

Automatic generation of k-mesh.
 Grid dimensions read from file:
 generate k-points for:    6    6    2

 Generating k-lattice:

  Cartesian coordinates                     Fractional coordinates (reciprocal lattice)
     0.038314176  0.000000000  0.000000000     0.166666667  0.000000000  0.000000000
     0.000000000  0.042194093  0.000000000     0.000000000  0.166666667  0.000000000
     0.000000000  0.000000000  0.044874357     0.000000000  0.000000000  0.500000000

  Length of vectors
     0.038314176  0.042194093  0.044874357

  Shift w.r.t. Gamma in fractional coordinates (k-lattice)
     0.000000000  0.000000000  0.000000000

 
 Subroutine IBZKPT returns following result:
 ===========================================
 
 Found     40 irreducible k-points:
 
 Following reciprocal coordinates:
            Coordinates               Weight
  0.000000  0.000000  0.000000      1.000000
  0.166667  0.000000  0.000000      2.000000
  0.333333  0.000000  0.000000      2.000000
  0.500000  0.000000  0.000000      1.000000
  0.000000  0.166667  0.000000      2.000000
  0.166667  0.166667  0.000000      2.000000
 -0.166667  0.166667  0.000000      2.000000
  0.333333  0.166667  0.000000      2.000000
 -0.333333  0.166667  0.000000      2.000000
  0.500000  0.166667  0.000000      2.000000
  0.000000  0.333333  0.000000      2.000000
  0.166667  0.333333  0.000000      2.000000
 -0.166667  0.333333  0.000000      2.000000
  0.333333  0.333333  0.000000      2.000000
 -0.333333  0.333333  0.000000      2.000000
  0.500000  0.333333  0.000000      2.000000
  0.000000  0.500000  0.000000      1.000000
  0.166667  0.500000  0.000000      2.000000
  0.333333  0.500000  0.000000      2.000000
  0.500000  0.500000  0.000000      1.000000
  0.000000  0.000000  0.500000      1.000000
  0.166667  0.000000  0.500000      2.000000
  0.333333  0.000000  0.500000      2.000000
  0.500000  0.000000  0.500000      1.000000
  0.000000  0.166667  0.500000      2.000000
  0.166667  0.166667  0.500000      2.000000
 -0.166667  0.166667  0.500000      2.000000
  0.333333  0.166667  0.500000      2.000000
 -0.333333  0.166667  0.500000      2.000000
  0.500000  0.166667  0.500000      2.000000
  0.000000  0.333333  0.500000      2.000000
  0.166667  0.333333  0.500000      2.000000
 -0.166667  0.333333  0.500000      2.000000
  0.333333  0.333333  0.500000      2.000000
 -0.333333  0.333333  0.500000      2.000000
  0.500000  0.333333  0.500000      2.000000
  0.000000  0.500000  0.500000      1.000000
  0.166667  0.500000  0.500000      2.000000
  0.333333  0.500000  0.500000      2.000000
  0.500000  0.500000  0.500000      1.000000
 
 Following cartesian coordinates:
            Coordinates               Weight
  0.000000  0.000000  0.000000      1.000000
  0.038314  0.000000  0.000000      2.000000
  0.076628  0.000000  0.000000      2.000000
  0.114943  0.000000  0.000000      1.000000
  0.000000  0.042194  0.000000      2.000000
  0.038314  0.042194  0.000000      2.000000
 -0.038314  0.042194  0.000000      2.000000
  0.076628  0.042194  0.000000      2.000000
 -0.076628  0.042194  0.000000      2.000000
  0.114943  0.042194  0.000000      2.000000
  0.000000  0.084388  0.000000      2.000000
  0.038314  0.084388  0.000000      2.000000
 -0.038314  0.084388  0.000000      2.000000
  0.076628  0.084388  0.000000      2.000000
 -0.076628  0.084388  0.000000      2.000000
  0.114943  0.084388  0.000000      2.000000
  0.000000  0.126582  0.000000      1.000000
  0.038314  0.126582  0.000000      2.000000
  0.076628  0.126582  0.000000      2.000000
  0.114943  0.126582  0.000000      1.000000
  0.000000  0.000000  0.044874      1.000000
  0.038314  0.000000  0.044874      2.000000
  0.076628  0.000000  0.044874      2.000000
  0.114943  0.000000  0.044874      1.000000
  0.000000  0.042194  0.044874      2.000000
  0.038314  0.042194  0.044874      2.000000
 -0.038314  0.042194  0.044874      2.000000
  0.076628  0.042194  0.044874      2.000000
 -0.076628  0.042194  0.044874      2.000000
  0.114943  0.042194  0.044874      2.000000
  0.000000  0.084388  0.044874      2.000000
  0.038314  0.084388  0.044874      2.000000
 -0.038314  0.084388  0.044874      2.000000
  0.076628  0.084388  0.044874      2.000000
 -0.076628  0.084388  0.044874      2.000000
  0.114943  0.084388  0.044874      2.000000
  0.000000  0.126582  0.044874      1.000000
  0.038314  0.126582  0.044874      2.000000
  0.076628  0.126582  0.044874      2.000000
  0.114943  0.126582  0.044874      1.000000
 


--------------------------------------------------------------------------------------------------------




 Dimension of arrays:
   k-points           NKPTS =     40   k-points in BZ     NKDIM =     40   number of bands    NBANDS=     32
   number of dos      NEDOS =    301   number of ions     NIONS =      8
   non local maximal  LDIM  =      5   non local SUM 2l+1 LMDIM =     13
   total plane-waves  NPLWV =  19440
   max r-space proj   IRMAX =      1   max aug-charges    IRDMAX=   5718
   dimension x,y,z NGX =    20 NGY =   18 NGZ =   54
   dimension x,y,z NGXF=    40 NGYF=   36 NGZF=  108
   support grid    NGXF=    40 NGYF=   36 NGZF=  108
   ions per type =               4   4
   NGX,Y,Z   is equivalent  to a cutoff of   7.64,  7.58,  8.06 a.u.
   NGXF,Y,Z  is equivalent  to a cutoff of  15.29, 15.15, 16.11 a.u.

 SYSTEM =  ./                                      
 POSCAR =  Ge Se                                   

 Startparameter for this run:
   NWRITE =      2    write-flag & timer
   PREC   = normal    normal or accurate (medium, high low for compatibility)
   ISTART =      0    job   : 0-new  1-cont  2-samecut
   ICHARG =      2    charge: 1-file 2-atom 10-const
   ISPIN  =      1    spin polarized calculation?
   LNONCOLLINEAR =      F non collinear calculations
   LSORBIT =      F    spin-orbit coupling
   INIWAV =      1    electr: 0-lowe 1-rand  2-diag
   LASPH  =      T    aspherical Exc in radial PAW
 Electronic Relaxation 1
   ENCUT  =  360.0 eV  26.46 Ry    5.14 a.u.   6.73  6.11 17.24*2*pi/ulx,y,z
   ENINI  =  360.0     initial cutoff
   ENAUG  =  446.8 eV  augmentation charge cutoff
   NELM   =    100;   NELMIN=  2; NELMDL= -5     # of ELM steps 
   EDIFF  = 0.1E-05   stopping-criterion for ELM
   LREAL  =      F    real-space projection
   NLSPLINE    = F    spline interpolate recip. space projectors
   LCOMPAT=      F    compatible to vasp.4.4
   GGA_COMPAT  = T    GGA compatible to vasp.4.4-vasp.4.6
   LMAXPAW     = -100 max onsite density
   LMAXMIX     =    4 max onsite mixed and CHGCAR
   VOSKOWN=      0    Vosko Wilk Nusair interpolation
   ROPT   =    0.00000   0.00000
 Ionic relaxation
   EDIFFG = 0.1E-04   stopping-criterion for IOM
   NSW    =      0    number of steps for IOM
   NBLOCK =      1;   KBLOCK =      1    inner block; outer block 
   IBRION =     -1    ionic relax: 0-MD 1-quasi-New 2-CG
   NFREE  =      0    steps in history (QN), initial steepest desc. (CG)
   ISIF   =      2    stress and relaxation
   IWAVPR =     10    prediction:  0-non 1-charg 2-wave 3-comb
   ISYM   =      0    0-nonsym 1-usesym 2-fastsym
   LCORR  =      T    Harris-Foulkes like correction to forces

   POTIM  = 0.5000    time-step for ionic-motion
   TEIN   =    0.0    initial temperature
   TEBEG  =    0.0;   TEEND  =   0.0 temperature during run
   SMASS  =  -3.00    Nose mass-parameter (am)
   estimated Nose-frequenzy (Omega)   =  0.10E-29 period in steps = 0.13E+47 mass=  -0.432E-27a.u.
   SCALEE = 1.0000    scale energy and forces
   NPACO  =    256;   APACO  = 10.0  distance and # of slots for P.C.
   PSTRESS=    0.0 pullay stress

  Mass of Ions in am
   POMASS =  72.61 78.96
  Ionic Valenz
   ZVAL   =   4.00  6.00
  Atomic Wigner-Seitz radii
   RWIGS  =  -1.00 -1.00
  virtual crystal weights 
   VCA    =   1.00  1.00
   NELECT =      40.0000    total number of electrons
   NUPDOWN=      -1.0000    fix difference up-down

 DOS related values:
   EMIN   =  10.00;   EMAX   =-10.00  energy-range for DOS
   EFERMI =   0.00;   METHOD = LEGACY      
   ISMEAR =     0;   SIGMA  =   0.05  broadening in eV -4-tet -1-fermi 0-gaus

 Electronic relaxation 2 (details)
   IALGO  =     38    algorithm
   LDIAG  =      T    sub-space diagonalisation (order eigenvalues)
   LSUBROT=      F    optimize rotation matrix (better conditioning)
   TURBO    =      0    0=normal 1=particle mesh
   IRESTART =      0    0=no restart 2=restart with 2 vectors
   NREBOOT  =      0    no. of reboots
   NMIN     =      0    reboot dimension
   EREF     =   0.00    reference energy to select bands
   IMIX   =      4    mixing-type and parameters
     AMIX     =   0.40;   BMIX     =  1.00
     AMIX_MAG =   1.60;   BMIX_MAG =  1.00
     AMIN     =   0.10
     WC   =   100.;   INIMIX=   1;  MIXPRE=   1;  MAXMIX= -45

 Intra band minimization:
   WEIMIN = 0.0000     energy-eigenvalue tresh-hold
   EBREAK =  0.78E-08  absolut break condition
   DEPER  =   0.30     relativ break condition  

   TIME   =   0.40     timestep for ELM

  volume/ion in A,a.u.               =      23.93       161.50
  Fermi-wavevector in a.u.,A,eV,Ry     =   0.971424  1.835725 12.839334  0.943664
  Thomas-Fermi vector in A             =   2.101640
 
 Write flags
   LWAVE        =      F    write WAVECAR
   LDOWNSAMPLE  =      F    k-point downsampling of WAVECAR
   LCHARG       =      F    write CHGCAR
   LVTOT        =      F    write LOCPOT, total local potential
   LVHAR        =      F    write LOCPOT, Hartree potential only
   LELF         =      F    write electronic localiz. function (ELF)
   LORBIT       =      0    0 simple, 1 ext, 2 COOP (PROOUT), +10 PAW based schemes


 Dipole corrections
   LMONO  =      F    monopole corrections only (constant potential shift)
   LDIPOL =      F    correct potential (dipole corrections)
   IDIPOL =      0    1-x, 2-y, 3-z, 4-all directions 
   EPSILON=  1.0000000 bulk dielectric constant

 Exchange correlation treatment:
   GGA     =    PE    GGA type
   LEXCH   =     8    internal setting for exchange type
   LIBXC   =     F    Libxc                    
   VOSKOWN =     0    Vosko Wilk Nusair interpolation
   LHFCALC =     F    Hartree Fock is set to
   LHFONE  =     F    Hartree Fock one center treatment
   AEXX    =    0.0000 exact exchange contribution

 Linear response parameters
   LEPSILON=     F    determine dielectric tensor
   LRPA    =     F    only Hartree local field effects (RPA)
   LNABLA  =     F    use nabla operator in PAW spheres
   LVEL    =     F    velocity operator in full k-point grid
   CSHIFT  =0.1000    complex shift for real part using Kramers Kronig
   OMEGAMAX=  -1.0    maximum frequency
   DEG_THRESHOLD= 0.2000000E-02 threshold for treating states as degnerate
   RTIME   =   -0.100 relaxation time in fs
  (WPLASMAI=    0.000 imaginary part of plasma frequency in eV, 0.658/RTIME)
   DFIELD  = 0.0000000 0.0000000 0.0000000 field for delta impulse in time
 
  Optional k-point grid parameters
   LKPOINTS_OPT  =     F    use optional k-point grid
   KPOINTS_OPT_MODE=     1    mode for optional k-point grid
 
 Orbital magnetization related:
   ORBITALMAG=     F  switch on orbital magnetization
   LCHIMAG   =     F  perturbation theory with respect to B field
   DQ        =  0.001000  dq finite difference perturbation B field
   LLRAUG    =     F  two centre corrections for induced B field
   LBONE     =     F  B-component reconstruction in AE one-centre
   LVGVCALC  =     T  calculate vGv susceptibility
   LVGVAPPL  =     F  apply vGv susceptibility instead of pGv for G=0

 Random number generation:
   RANDOM_GENERATOR = DEFAULT
   PCG_SEED         = not used


--------------------------------------------------------------------------------------------------------


 Static calculation
 charge density and potential will be updated during run
 non-spin polarized calculation
 Variant of blocked Davidson
 Davidson routine will perform the subspace rotation
 perform sub-space diagonalisation
    after iterative eigenvector-optimisation
 modified Broyden-mixing scheme, WC =      100.0
 initial mixing is a Kerker type mixing with AMIX =  0.4000 and BMIX =      1.0000
 Hartree-type preconditioning will be used
 using additional bands            12
 reciprocal scheme for non local part
 use partial core corrections
 calculate Harris-corrections to forces 
   (improved forces if not selfconsistent)
 use gradient corrections 
 use of overlap-Matrix (Vanderbilt PP)
 Gauss-broadening in eV      SIGMA  =   0.05


--------------------------------------------------------------------------------------------------------


  energy-cutoff  :      360.00
  volume of cell :      191.45
      direct lattice vectors                 reciprocal lattice vectors
     4.350000000  0.000000000  0.000000000     0.229885057  0.000000000  0.000000000
     0.000000000  3.950000000  0.000000000     0.000000000  0.253164557  0.000000000
     0.000000000  0.000000000 11.142221000     0.000000000  0.000000000  0.089748713

  length of vectors
     4.350000000  3.950000000 11.142221000     0.229885057  0.253164557  0.089748713


 
 k-points in units of 2pi/SCALE and weight: KPOINTS created by Atomic Simulation Env
   0.00000000  0.00000000  0.00000000       0.014
   0.03831418  0.00000000  0.00000000       0.028
   0.07662835  0.00000000  0.00000000       0.028
   0.11494253  0.00000000  0.00000000       0.014
   0.00000000  0.04219409  0.00000000       0.028
   0.03831418  0.04219409  0.00000000       0.028
  -0.03831418  0.04219409  0.00000000       0.028
   0.07662835  0.04219409  0.00000000       0.028
  -0.07662835  0.04219409  0.00000000       0.028
   0.11494253  0.04219409  0.00000000       0.028
   0.00000000  0.08438819  0.00000000       0.028
   0.03831418  0.08438819  0.00000000       0.028
  -0.03831418  0.08438819  0.00000000       0.028
   0.07662835  0.08438819  0.00000000       0.028
  -0.07662835  0.08438819  0.00000000       0.028
   0.11494253  0.08438819  0.00000000       0.028
   0.00000000  0.12658228  0.00000000       0.014
   0.03831418  0.12658228  0.00000000       0.028
   0.07662835  0.12658228  0.00000000       0.028
   0.11494253  0.12658228  0.00000000       0.014
   0.00000000  0.00000000  0.04487436       0.014
   0.03831418  0.00000000  0.04487436       0.028
   0.07662835  0.00000000  0.04487436       0.028
   0.11494253  0.00000000  0.04487436       0.014
   0.00000000  0.04219409  0.04487436       0.028
   0.03831418  0.04219409  0.04487436       0.028
  -0.03831418  0.04219409  0.04487436       0.028
   0.07662835  0.04219409  0.04487436       0.028
  -0.07662835  0.04219409  0.04487436       0.028
   0.11494253  0.04219409  0.04487436       0.028
   0.00000000  0.08438819  0.04487436       0.028
   0.03831418  0.08438819  0.04487436       0.028
  -0.03831418  0.08438819  0.04487436       0.028
   0.07662835  0.08438819  0.04487436       0.028
  -0.07662835  0.08438819  0.04487436       0.028
   0.11494253  0.08438819  0.04487436       0.028
   0.00000000  0.12658228  0.04487436       0.014
   0.03831418  0.12658228  0.04487436       0.028
   0.07662835  0.12658228  0.04487436       0.028
   0.11494253  0.12658228  0.04487436       0.014
 
 k-points in reciprocal lattice and weights: KPOINTS created by Atomic Simulation Env
   0.00000000  0.00000000  0.00000000       0.014
   0.16666667  0.00000000  0.00000000       0.028
   0.33333333  0.00000000  0.00000000       0.028
   0.50000000  0.00000000  0.00000000       0.014
   0.00000000  0.16666667  0.00000000       0.028
   0.16666667  0.16666667  0.00000000       0.028
  -0.16666667  0.16666667  0.00000000       0.028
   0.33333333  0.16666667  0.00000000       0.028
  -0.33333333  0.16666667  0.00000000       0.028
   0.50000000  0.16666667  0.00000000       0.028
   0.00000000  0.33333333  0.00000000       0.028
   0.16666667  0.33333333  0.00000000       0.028
  -0.16666667  0.33333333  0.00000000       0.028
   0.33333333  0.33333333  0.00000000       0.028
  -0.33333333  0.33333333  0.00000000       0.028
   0.50000000  0.33333333  0.00000000       0.028
   0.00000000  0.50000000  0.00000000       0.014
   0.16666667  0.50000000  0.00000000       0.028
   0.33333333  0.50000000  0.00000000       0.028
   0.50000000  0.50000000  0.00000000       0.014
   0.00000000  0.00000000  0.50000000       0.014
   0.16666667  0.00000000  0.50000000       0.028
   0.33333333  0.00000000  0.50000000       0.028
   0.50000000  0.00000000  0.50000000       0.014
   0.00000000  0.16666667  0.50000000       0.028
   0.16666667  0.16666667  0.50000000       0.028
  -0.16666667  0.16666667  0.50000000       0.028
   0.33333333  0.16666667  0.50000000       0.028
  -0.33333333  0.16666667  0.50000000       0.028
   0.50000000  0.16666667  0.50000000       0.028
   0.00000000  0.33333333  0.50000000       0.028
   0.16666667  0.33333333  0.50000000       0.028
  -0.16666667  0.33333333  0.50000000       0.028
   0.33333333  0.33333333  0.50000000       0.028
  -0.33333333  0.33333333  0.50000000       0.028
   0.50000000  0.33333333  0.50000000       0.028
   0.00000000  0.50000000  0.50000000       0.014
   0.16666667  0.50000000  0.50000000       0.028
   0.33333333  0.50000000  0.50000000       0.028
   0.50000000  0.50000000  0.50000000       0.014
 
 position of ions in fractional coordinates (direct lattice) 
   0.10419550  0.25000000  0.12650437
   0.60419550  0.75000000  0.37349563
   0.89580450  0.75000000  0.87349563
   0.39580450  0.25000000  0.62650437
   0.99686765  0.25000000  0.35455341
   0.49686765  0.75000000  0.14544659
   0.00313235  0.75000000  0.64544659
   0.50313235  0.25000000  0.85455341
 
 position of ions in cartesian coordinates  (Angst):
   0.45325041  0.98750000  1.40953967
   2.62825041  2.96250000  4.16157083
   3.89674959  2.96250000  9.73268133
   1.72174959  0.98750000  6.98065017
   4.33637428  0.98750000  3.95051250
   2.16137428  2.96250000  1.62059800
   0.01362572  2.96250000  7.19170850
   2.18862572  0.98750000  9.52162300
 


--------------------------------------------------------------------------------------------------------


 k-point   1 :   0.0000 0.0000 0.0000  plane waves:    2971
 k-point   2 :   0.1667 0.0000 0.0000  plane waves:    2961
 k-point   3 :   0.3333 0.0000 0.0000  plane waves:    2958
 k-point   4 :   0.5000 0.0000 0.0000  plane waves:    2970
 k-point   5 :   0.0000 0.1667 0.0000  plane waves:    2976
 k-point   6 :   0.1667 0.1667 0.0000  plane waves:    2964
 k-point   7 :  -0.1667 0.1667 0.0000  plane waves:    2964
 k-point   8 :   0.3333 0.1667 0.0000  plane waves:    2965
 k-point   9 :  -0.3333 0.1667 0.0000  plane waves:    2965
 k-point  10 :   0.5000 0.1667 0.0000  plane waves:    2962
 k-point  11 :   0.0000 0.3333 0.0000  plane waves:    2990
 k-point  12 :   0.1667 0.3333 0.0000  plane waves:    2983
 k-point  13 :  -0.1667 0.3333 0.0000  plane waves:    2983
 k-point  14 :   0.3333 0.3333 0.0000  plane waves:    2970
 k-point  15 :  -0.3333 0.3333 0.0000  plane waves:    2970
 k-point  16 :   0.5000 0.3333 0.0000  plane waves:    2970
 k-point  17 :   0.0000 0.5000 0.0000  plane waves:    2960
 k-point  18 :   0.1667 0.5000 0.0000  plane waves:    2976
 k-point  19 :   0.3333 0.5000 0.0000  plane waves:    2990
 k-point  20 :   0.5000 0.5000 0.0000  plane waves:    2968
 k-point  21 :   0.0000 0.0000 0.5000  plane waves:    2946
 k-point  22 :   0.1667 0.0000 0.5000  plane waves:    2960
 k-point  23 :   0.3333 0.0000 0.5000  plane waves:    2960
 k-point  24 :   0.5000 0.0000 0.5000  plane waves:    2984
 k-point  25 :   0.0000 0.1667 0.5000  plane waves:    2948
 k-point  26 :   0.1667 0.1667 0.5000  plane waves:    2960
 k-point  27 :  -0.1667 0.1667 0.5000  plane waves:    2960
 k-point  28 :   0.3333 0.1667 0.5000  plane waves:    2970
 k-point  29 :  -0.3333 0.1667 0.5000  plane waves:    2970
 k-point  30 :   0.5000 0.1667 0.5000  plane waves:    2972
 k-point  31 :   0.0000 0.3333 0.5000  plane waves:    2982
 k-point  32 :   0.1667 0.3333 0.5000  plane waves:    2980
 k-point  33 :  -0.1667 0.3333 0.5000  plane waves:    2980
 k-point  34 :   0.3333 0.3333 0.5000  plane waves:    2954
 k-point  35 :  -0.3333 0.3333 0.5000  plane waves:    2954
 k-point  36 :   0.5000 0.3333 0.5000  plane waves:    2956
 k-point  37 :   0.0000 0.5000 0.5000  plane waves:    2992
 k-point  38 :   0.1667 0.5000 0.5000  plane waves:    2980
 k-point  39 :   0.3333 0.5000 0.5000  plane waves:    2984
 k-point  40 :   0.5000 0.5000 0.5000  plane waves:    2976

 maximum and minimum number of plane-waves per node :       758      714

 maximum number of plane-waves:      2992
 maximum index in each direction: 
   IXMAX=    7   IYMAX=    6   IZMAX=   17
   IXMIN=   -7   IYMIN=   -6   IZMIN=  -17


 parallel 3D FFT for wavefunctions:
    minimum data exchange during FFTs selected (reduces bandwidth)
 parallel 3D FFT for charge:
    minimum data exchange during FFTs selected (reduces bandwidth)


 total amount of memory used by VASP MPI-rank0    38233. kBytes
=======================================================================

   base      :      30000. kBytes
   nonl-proj :       6488. kBytes
   fftplans  :        289. kBytes
   grid      :        416. kBytes
   one-center:         16. kBytes
   wavefun   :       1024. kBytes
 
     INWAV:  cpu time      0.0000: real time      0.0001
 Broyden mixing: mesh for mixing (old mesh)
   NGX = 13   NGY = 13   NGZ = 35
  (NGX  = 40   NGY  = 36   NGZ  =108)
  gives a total of   5915 points

 initial charge density was supplied:
 charge density of overlapping atoms calculated
 number of electron      40.0000000 magnetization 
 keeping initial charge density in first step


--------------------------------------------------------------------------------------------------------


 Maximum index for augmentation-charges           321 (set IRDMAX)


--------------------------------------------------------------------------------------------------------


 First call to EWALD:  gamma=   0.308
 Maximum number of real-space cells 3x 4x 2
 Maximum number of reciprocal cells 2x 2x 5

    FEWALD:  cpu time      0.0007: real time      0.0007


--------------------------------------- Ionic step        1  -------------------------------------------




--------------------------------------- Iteration      1(   1)  ---------------------------------------


    POTLOK:  cpu time      0.0058: real time      0.0062
    SETDIJ:  cpu time      0.1376: real time      0.1381
     EDDAV:  cpu time      0.2637: real time      0.2663
       DOS:  cpu time      0.0011: real time      0.0011
    --------------------------------------------
      LOOP:  cpu time      0.4082: real time      0.4117

 eigenvalue-minimisations  :  2560
 total energy-change (2. order) : 0.1294876E+03  (-0.1292025E+04)
 number of electron      40.0000000 magnetization 
 augmentation part       40.0000000 magnetization 

 Free energy of the ion-electron system (eV)
  ---------------------------------------------------
  alpha Z        PSCENC =        88.50529194
  Ewald energy   TEWEN  =     -1429.16938028
  -Hartree energ DENC   =      -123.09601170
  -exchange      EXHF   =         0.00000000
  -V(xc)+E(xc)   XCENC  =       -33.34478809
  PAW double counting   =      1193.78262552    -1080.73714043
  entropy T*S    EENTRO =        -0.00398256
  eigenvalues    EBANDS =        65.06638673
  atomic energy  EATOM  =      1448.48460880
  Solvation  Ediel_sol  =         0.00000000
  ---------------------------------------------------
  free energy    TOTEN  =       129.48760992 eV

  energy without entropy =      129.49159249  energy(sigma->0) =      129.48960120


--------------------------------------------------------------------------------------------------------




--------------------------------------- Iteration      1(   2)  ---------------------------------------


     EDDAV:  cpu time      0.3263: real time      0.3290
       DOS:  cpu time      0.0007: real time      0.0007
    --------------------------------------------
      LOOP:  cpu time      0.3269: real time      0.3297

 eigenvalue-minimisations  :  3792
 total energy-change (2. order) :-0.1553259E+03  (-0.1506361E+03)
 number of electron      40.0000000 magnetization 
 augmentation part       40.0000000 magnetization 

 Free energy of the ion-electron system (eV)
  ---------------------------------------------------
  alpha Z        PSCENC =        88.50529194
  Ewald energy   TEWEN  =     -1429.16938028
  -Hartree energ DENC   =      -123.09601170
  -exchange      EXHF   =         0.00000000
  -V(xc)+E(xc)   XCENC  =       -33.34478809
  PAW double counting   =      1193.78262552    -1080.73714043
  entropy T*S    EENTRO =        -0.00000000
  eigenvalues    EBANDS =       -90.26351983
  atomic energy  EATOM  =      1448.48460880
  Solvation  Ediel_sol  =         0.00000000
  ---------------------------------------------------
  free energy    TOTEN  =       -25.83831406 eV

  energy without entropy =      -25.83831406  energy(sigma->0) =      -25.83831406


--------------------------------------------------------------------------------------------------------




--------------------------------------- Iteration      1(   3)  ---------------------------------------


     EDDAV:  cpu time      0.2932: real time      0.2959
       DOS:  cpu time      0.0005: real time      0.0005
    --------------------------------------------
      LOOP:  cpu time      0.2937: real time      0.2964

 eigenvalue-minimisations  :  3200
 total energy-change (2. order) :-0.8315297E+01  (-0.8299942E+01)
 number of electron      40.0000000 magnetization 
 augmentation part       40.0000000 magnetization 

 Free energy of the ion-electron system (eV)
  ---------------------------------------------------
  alpha Z        PSCENC =        88.50529194
  Ewald energy   TEWEN  =     -1429.16938028
  -Hartree energ DENC   =      -123.09601170
  -exchange      EXHF   =         0.00000000
  -V(xc)+E(xc)   XCENC  =       -33.34478809
  PAW double counting   =      1193.78262552    -1080.73714043
  entropy T*S    EENTRO =        -0.00000000
  eigenvalues    EBANDS =       -98.57881689
  atomic energy  EATOM  =      1448.48460880
  Solvation  Ediel_sol  =         0.00000000
  ---------------------------------------------------
  free energy    TOTEN  =       -34.15361113 eV

  energy without entropy =      -34.15361113  energy(sigma->0) =      -34.15361113


--------------------------------------------------------------------------------------------------------




--------------------------------------- Iteration      1(   4)  ---------------------------------------


     EDDAV:  cpu time      0.2983: real time      0.3014
       DOS:  cpu time      0.0006: real time      0.0006
    --------------------------------------------
      LOOP:  cpu time      0.2989: real time      0.3019

 eigenvalue-minimisations  :  3296
 total energy-change (2. order) :-0.5311140E-01  (-0.5310197E-01)
 number of electron      40.0000000 magnetization 
 augmentation part       40.0000000 magnetization 

 Free energy of the ion-electron system (eV)
  ---------------------------------------------------
  alpha Z        PSCENC =        88.50529194
  Ewald energy   TEWEN  =     -1429.16938028
  -Hartree energ DENC   =      -123.09601170
  -exchange      EXHF   =         0.00000000
  -V(xc)+E(xc)   XCENC  =       -33.34478809
  PAW double counting   =      1193.78262552    -1080.73714043
  entropy T*S    EENTRO =        -0.00000000
  eigenvalues    EBANDS =       -98.63192829
  atomic energy  EATOM  =      1448.48460880
  Solvation  Ediel_sol  =         0.00000000
  ---------------------------------------------------
  free energy    TOTEN  =       -34.20672253 eV

  energy without entropy =      -34.20672253  energy(sigma->0) =      -34.20672253


--------------------------------------------------------------------------------------------------------




--------------------------------------- Iteration      1(   5)  ---------------------------------------


     EDDAV:  cpu time      0.2926: real time      0.2954
       DOS:  cpu time      0.0006: real time      0.0006
    CHARGE:  cpu time      0.0038: real time      0.0038
    MIXING:  cpu time      0.0007: real time      0.0007
    --------------------------------------------
      LOOP:  cpu time      0.2977: real time      0.3005

 eigenvalue-minimisations  :  3216
 total energy-change (2. order) :-0.3226764E-03  (-0.3226594E-03)
 number of electron      40.0000073 magnetization 
 augmentation part       -7.4050175 magnetization 

 Broyden mixing:
  rms(total) = 0.64076E+00    rms(broyden)= 0.64075E+00
  rms(prec ) = 0.72386E+00
  weight for this iteration     100.00

 Free energy of the ion-electron system (eV)
  ---------------------------------------------------
  alpha Z        PSCENC =        88.50529194
  Ewald energy   TEWEN  =     -1429.16938028
  -Hartree energ DENC   =      -123.09601170
  -exchange      EXHF   =         0.00000000
  -V(xc)+E(xc)   XCENC  =       -33.34478809
  PAW double counting   =      1193.78262552    -1080.73714043
  entropy T*S    EENTRO =        -0.00000000
  eigenvalues    EBANDS =       -98.63225097
  atomic energy  EATOM  =      1448.48460880
  Solvation  Ediel_sol  =         0.00000000
  ---------------------------------------------------
  free energy    TOTEN  =       -34.20704521 eV

  energy without entropy =      -34.20704521  energy(sigma->0) =      -34.20704521


--------------------------------------------------------------------------------------------------------




--------------------------------------- Iteration      1(   6)  ---------------------------------------


    POTLOK:  cpu time      0.0051: real time      0.0053
    SETDIJ:  cpu time      0.1390: real time      0.1396
     EDDAV:  cpu time      0.2835: real time      0.2859
       DOS:  cpu time      0.0010: real time      0.0010
    CHARGE:  cpu time      0.0035: real time      0.0035
    MIXING:  cpu time      0.0005: real time      0.0005
    --------------------------------------------
      LOOP:  cpu time      0.4326: real time      0.4358

 eigenvalue-minimisations  :  3088
 total energy-change (2. order) : 0.3854985E+00  (-0.7741569E-01)
 number of electron      40.0000072 magnetization 
 augmentation part       -7.3501481 magnetization 

 Broyden mixing:
  rms(total) = 0.40179E+00    rms(broyden)= 0.40179E+00
  rms(prec ) = 0.42264E+00
  weight for this iteration     100.00

 eigenvalues of (default mixing * dielectric matrix)
  average eigenvalue GAMMA=   2.1842
  2.1842

 Free energy of the ion-electron system (eV)
  ---------------------------------------------------
  alpha Z        PSCENC =        88.50529194
  Ewald energy   TEWEN  =     -1429.16938028
  -Hartree energ DENC   =      -128.75102785
  -exchange      EXHF   =         0.00000000
  -V(xc)+E(xc)   XCENC  =       -32.75712213
  PAW double counting   =      1453.91005471    -1341.17682407
  entropy T*S    EENTRO =        -0.00000000
  eigenvalues    EBANDS =       -92.86714786
  atomic energy  EATOM  =      1448.48460880
  Solvation  Ediel_sol  =         0.00000000
  ---------------------------------------------------
  free energy    TOTEN  =       -33.82154675 eV

  energy without entropy =      -33.82154675  energy(sigma->0) =      -33.82154675


--------------------------------------------------------------------------------------------------------




--------------------------------------- Iteration      1(   7)  ---------------------------------------


    POTLOK:  cpu time      0.0055: real time      0.0057
    SETDIJ:  cpu time      0.1374: real time      0.1381
     EDDAV:  cpu time      0.2893: real time      0.2921
       DOS:  cpu time      0.0005: real time      0.0006
    CHARGE:  cpu time      0.0036: real time      0.0036
    MIXING:  cpu time      0.0005: real time      0.0005
    --------------------------------------------
      LOOP:  cpu time      0.4367: real time      0.4404

 eigenvalue-minimisations  :  3104
 total energy-change (2. order) : 0.9781859E-02  (-0.2363970E-01)
 number of electron      40.0000072 magnetization 
 augmentation part       -7.3388284 magnetization 

 Broyden mixing:
  rms(total) = 0.12928E+00    rms(broyden)= 0.12928E+00
  rms(prec ) = 0.13777E+00
  weight for this iteration     100.00

 eigenvalues of (default mixing * dielectric matrix)
  average eigenvalue GAMMA=   1.7997
  1.2127  2.3868

 Free energy of the ion-electron system (eV)
  ---------------------------------------------------
  alpha Z        PSCENC =        88.50529194
  Ewald energy   TEWEN  =     -1429.16938028
  -Hartree energ DENC   =      -131.18389899
  -exchange      EXHF   =         0.00000000
  -V(xc)+E(xc)   XCENC  =       -32.30563447
  PAW double counting   =      1775.01661298    -1662.51599811
  entropy T*S    EENTRO =        -0.00000000
  eigenvalues    EBANDS =       -90.64336676
  atomic energy  EATOM  =      1448.48460880
  Solvation  Ediel_sol  =         0.00000000
  ---------------------------------------------------
  free energy    TOTEN  =       -33.81176489 eV

  energy without entropy =      -33.81176489  energy(sigma->0) =      -33.81176489


--------------------------------------------------------------------------------------------------------




--------------------------------------- Iteration      1(   8)  ---------------------------------------


    POTLOK:  cpu time      0.0050: real time      0.0051
    SETDIJ:  cpu time      0.1376: real time      0.1382
     EDDAV:  cpu time      0.2680: real time      0.2703
       DOS:  cpu time      0.0006: real time      0.0006
    CHARGE:  cpu time      0.0035: real time      0.0035
    MIXING:  cpu time      0.0005: real time      0.0005
    --------------------------------------------
      LOOP:  cpu time      0.4151: real time      0.4182

 eigenvalue-minimisations  :  2928
 total energy-change (2. order) : 0.1761926E-02  (-0.2465896E-02)
 number of electron      40.0000072 magnetization 
 augmentation part       -7.3484954 magnetization 

 Broyden mixing:
  rms(total) = 0.17393E-01    rms(broyden)= 0.17393E-01
  rms(prec ) = 0.21242E-01
  weight for this iteration     100.00

 eigenvalues of (default mixing * dielectric matrix)
  average eigenvalue GAMMA=   1.6996
  2.5085  1.2952  1.2952

 Free energy of the ion-electron system (eV)
  ---------------------------------------------------
  alpha Z        PSCENC =        88.50529194
  Ewald energy   TEWEN  =     -1429.16938028
  -Hartree energ DENC   =      -131.11043477
  -exchange      EXHF   =         0.00000000
  -V(xc)+E(xc)   XCENC  =       -32.18209021
  PAW double counting   =      1911.27375061    -1798.83078738
  entropy T*S    EENTRO =        -0.00000000
  eigenvalues    EBANDS =       -90.78096168
  atomic energy  EATOM  =      1448.48460880
  Solvation  Ediel_sol  =         0.00000000
  ---------------------------------------------------
  free energy    TOTEN  =       -33.81000297 eV

  energy without entropy =      -33.81000297  energy(sigma->0) =      -33.81000297


--------------------------------------------------------------------------------------------------------




--------------------------------------- Iteration      1(   9)  ---------------------------------------


    POTLOK:  cpu time      0.0049: real time      0.0051
    SETDIJ:  cpu time      0.1371: real time      0.1377
     EDDAV:  cpu time      0.2925: real time      0.2953
       DOS:  cpu time      0.0006: real time      0.0006
    CHARGE:  cpu time      0.0034: real time      0.0034
    MIXING:  cpu time      0.0005: real time      0.0005
    --------------------------------------------
      LOOP:  cpu time      0.4390: real time      0.4426

 eigenvalue-minimisations  :  3152
 total energy-change (2. order) :-0.1906026E-03  (-0.3458384E-03)
 number of electron      40.0000072 magnetization 
 augmentation part       -7.3464488 magnetization 

 Broyden mixing:
  rms(total) = 0.64093E-02    rms(broyden)= 0.64093E-02
  rms(prec ) = 0.71496E-02
  weight for this iteration     100.00

 eigenvalues of (default mixing * dielectric matrix)
  average eigenvalue GAMMA=   1.7418
  2.3100  2.3100  1.1736  1.1736

 Free energy of the ion-electron system (eV)
  ---------------------------------------------------
  alpha Z        PSCENC =        88.50529194
  Ewald energy   TEWEN  =     -1429.16938028
  -Hartree energ DENC   =      -131.46873963
  -exchange      EXHF   =         0.00000000
  -V(xc)+E(xc)   XCENC  =       -32.14328023
  PAW double counting   =      1924.76184692    -1812.32949009
  entropy T*S    EENTRO =        -0.00000000
  eigenvalues    EBANDS =       -90.45105100
  atomic energy  EATOM  =      1448.48460880
  Solvation  Ediel_sol  =         0.00000000
  ---------------------------------------------------
  free energy    TOTEN  =       -33.81019357 eV

  energy without entropy =      -33.81019357  energy(sigma->0) =      -33.81019357


--------------------------------------------------------------------------------------------------------




--------------------------------------- Iteration      1(  10)  ---------------------------------------


    POTLOK:  cpu time      0.0049: real time      0.0050
    SETDIJ:  cpu time      0.1370: real time      0.1376
     EDDAV:  cpu time      0.2411: real time      0.2425
       DOS:  cpu time      0.0003: real time      0.0003
    CHARGE:  cpu time      0.0027: real time      0.0028
    MIXING:  cpu time      0.0003: real time      0.0003
    --------------------------------------------
      LOOP:  cpu time      0.3864: real time      0.3885

 eigenvalue-minimisations  :  3072
 total energy-change (2. order) :-0.5873751E-04  (-0.2514016E-04)
 number of electron      40.0000072 magnetization 
 augmentation part       -7.3463873 magnetization 

 Broyden mixing:
  rms(total) = 0.23876E-02    rms(broyden)= 0.23876E-02
  rms(prec ) = 0.28469E-02
  weight for this iteration     100.00

 eigenvalues of (default mixing * dielectric matrix)
  average eigenvalue GAMMA=   1.7546
  2.7442  2.3837  1.2049  1.2049  1.2354

 Free energy of the ion-electron system (eV)
  ---------------------------------------------------
  alpha Z        PSCENC =        88.50529194
  Ewald energy   TEWEN  =     -1429.16938028
  -Hartree energ DENC   =      -131.48674265
  -exchange      EXHF   =         0.00000000
  -V(xc)+E(xc)   XCENC  =       -32.14217613
  PAW double counting   =      1917.93371952    -1805.49631363
  entropy T*S    EENTRO =        -0.00000000
  eigenvalues    EBANDS =       -90.43925988
  atomic energy  EATOM  =      1448.48460880
  Solvation  Ediel_sol  =         0.00000000
  ---------------------------------------------------
  free energy    TOTEN  =       -33.81025231 eV

  energy without entropy =      -33.81025231  energy(sigma->0) =      -33.81025231


--------------------------------------------------------------------------------------------------------




--------------------------------------- Iteration      1(  11)  ---------------------------------------


    POTLOK:  cpu time      0.0034: real time      0.0035
    SETDIJ:  cpu time      0.1367: real time      0.1370
     EDDAV:  cpu time      0.1851: real time      0.1859
       DOS:  cpu time      0.0003: real time      0.0003
    CHARGE:  cpu time      0.0027: real time      0.0027
    MIXING:  cpu time      0.0003: real time      0.0003
    --------------------------------------------
      LOOP:  cpu time      0.3285: real time      0.3297

 eigenvalue-minimisations  :  2928
 total energy-change (2. order) :-0.2092623E-04  (-0.3348313E-05)
 number of electron      40.0000072 magnetization 
 augmentation part       -7.3466293 magnetization 

 Broyden mixing:
  rms(total) = 0.12540E-02    rms(broyden)= 0.12540E-02
  rms(prec ) = 0.13641E-02
  weight for this iteration     100.00

 eigenvalues of (default mixing * dielectric matrix)
  average eigenvalue GAMMA=   1.7221
  2.5263  2.5263  2.0299  1.1643  1.1643  0.9218

 Free energy of the ion-electron system (eV)
  ---------------------------------------------------
  alpha Z        PSCENC =        88.50529194
  Ewald energy   TEWEN  =     -1429.16938028
  -Hartree energ DENC   =      -131.50743718
  -exchange      EXHF   =         0.00000000
  -V(xc)+E(xc)   XCENC  =       -32.13638535
  PAW double counting   =      1919.85174952    -1807.41491143
  entropy T*S    EENTRO =        -0.00000000
  eigenvalues    EBANDS =       -90.42380924
  atomic energy  EATOM  =      1448.48460880
  Solvation  Ediel_sol  =         0.00000000
  ---------------------------------------------------
  free energy    TOTEN  =       -33.81027323 eV

  energy without entropy =      -33.81027323  energy(sigma->0) =      -33.81027323


--------------------------------------------------------------------------------------------------------




--------------------------------------- Iteration      1(  12)  ---------------------------------------


    POTLOK:  cpu time      0.0034: real time      0.0035
    SETDIJ:  cpu time      0.1362: real time      0.1365
     EDDAV:  cpu time      0.1963: real time      0.1974
       DOS:  cpu time      0.0003: real time      0.0003
    --------------------------------------------
      LOOP:  cpu time      0.3362: real time      0.3378

 eigenvalue-minimisations  :  3216
 total energy-change (2. order) : 0.3158551E-06  (-0.4402659E-06)
 number of electron      40.0000072 magnetization 
 augmentation part       -7.3466293 magnetization 

 Free energy of the ion-electron system (eV)
  ---------------------------------------------------
  alpha Z        PSCENC =        88.50529194
  Ewald energy   TEWEN  =     -1429.16938028
  -Hartree energ DENC   =      -131.51779649
  -exchange      EXHF   =         0.00000000
  -V(xc)+E(xc)   XCENC  =       -32.13568682
  PAW double counting   =      1918.96702674    -1806.52982750
  entropy T*S    EENTRO =        -0.00000000
  eigenvalues    EBANDS =       -90.41450930
  atomic energy  EATOM  =      1448.48460880
  Solvation  Ediel_sol  =         0.00000000
  ---------------------------------------------------
  free energy    TOTEN  =       -33.81027292 eV

  energy without entropy =      -33.81027292  energy(sigma->0) =      -33.81027292


--------------------------------------------------------------------------------------------------------




 average (electrostatic) potential at core
  the test charge radii are     1.1631  1.0808
  (the norm of the test charge is              1.0000)
       1 -33.4104       2 -33.4104       3 -33.4104       4 -33.4104       5 -54.8729
       6 -54.8729       7 -54.8729       8 -54.8729
 
 
 
 E-fermi :   3.5695     XC(G=0):  -9.3654     alpha+bet : -8.8171

 Fermi energy:         3.5694695130

 k-point     1 :       0.0000    0.0000    0.0000
  band No.  band energies     occupation 
      1     -10.8869      2.00000
      2     -10.5625      2.00000
      3      -9.5825      2.00000
      4      -9.0838      2.00000
      5      -4.4993      2.00000
      6      -3.9439      2.00000
      7      -2.3506      2.00000
      8      -2.1687      2.00000
      9      -1.8358      2.00000
     10      -0.1258      2.00000
     11      -0.0454      2.00000
     12       0.0020      2.00000
     13       0.0719      2.00000
     14       0.3542      2.00000
     15       1.2237      2.00000
     16       1.6736      2.00000
     17       1.8381      2.00000
     18       2.1881      2.00000
     19       2.6764      2.00000
     20       3.1245      2.00000
     21       4.0429      0.00000
     22       5.9862      0.00000
     23       6.0498      0.00000
     24       6.0639      0.00000
     25       6.4170      0.00000
     26       6.8492      0.00000
     27       6.9597      0.00000
     28       7.5609      0.00000
     29       8.3525      0.00000
     30       8.4762      0.00000
     31       8.8563      0.00000
     32       9.1975      0.00000

 k-point     2 :       0.1667    0.0000    0.0000
  band No.  band energies     occupation 
      1     -10.7573      2.00000
      2     -10.4400      2.00000
      3      -9.5747      2.00000
      4      -9.1222      2.00000
      5      -4.8643      2.00000
      6      -4.1149      2.00000
      7      -3.1425      2.00000
      8      -2.6067      2.00000
      9      -1.6225      2.00000
     10       0.1080      2.00000
     11       0.1187      2.00000
     12       0.5069      2.00000
     13       0.5235      2.00000
     14       0.6424      2.00000
     15       1.3002      2.00000
     16       1.8589      2.00000
     17       1.9964      2.00000
     18       2.3190      2.00000
     19       2.6324      2.00000
     20       3.0245      2.00000
     21       4.1046      0.00000
     22       5.4228      0.00000
     23       5.9296      0.00000
     24       6.0339      0.00000
     25       6.2965      0.00000
     26       6.3721      0.00000
     27       7.0395      0.00000
     28       7.2437      0.00000
     29       7.5710      0.00000
     30       8.1585      0.00000
     31       8.5146      0.00000
     32       8.6487      0.00000

 k-point     3 :       0.3333    0.0000    0.0000
  band No.  band energies     occupation 
      1     -10.4050      2.00000
      2     -10.1057      2.00000
      3      -9.6497      2.00000
      4      -9.2998      2.00000
      5      -5.2901      2.00000
      6      -4.3477      2.00000
      7      -4.3122      2.00000
      8      -3.4605      2.00000
      9      -1.0921      2.00000
     10       0.4220      2.00000
     11       0.5691      2.00000
     12       0.9193      2.00000
     13       1.3311      2.00000
     14       1.3635      2.00000
     15       1.3881      2.00000
     16       1.7839      2.00000
     17       1.9778      2.00000
     18       2.6514      2.00000
     19       2.8176      2.00000
     20       3.3514      2.00000
     21       4.3608      0.00000
     22       4.6476      0.00000
     23       4.8601      0.00000
     24       5.4449      0.00000
     25       5.5699      0.00000
     26       6.2777      0.00000
     27       6.2898      0.00000
     28       6.3334      0.00000
     29       6.9167      0.00000
     30       7.2934      0.00000
     31       8.1575      0.00000
     32       9.1036      0.00000

 k-point     4 :       0.5000    0.0000    0.0000
  band No.  band energies     occupation 
      1      -9.9598      2.00000
      2      -9.9598      2.00000
      3      -9.6678      2.00000
      4      -9.6678      2.00000
      5      -5.1232      2.00000
      6      -5.1232      2.00000
      7      -4.1440      2.00000
      8      -4.1440      2.00000
      9      -0.2931      2.00000
     10      -0.2931      2.00000
     11       1.1260      2.00000
     12       1.1260      2.00000
     13       1.4274      2.00000
     14       1.4274      2.00000
     15       1.9135      2.00000
     16       1.9135      2.00000
     17       2.4194      2.00000
     18       2.4194      2.00000
     19       2.9217      2.00000
     20       2.9217      2.00000
     21       4.5646      0.00000
     22       4.5646      0.00000
     23       5.2097      0.00000
     24       5.2097      0.00000
     25       5.4124      0.00000
     26       5.4124      0.00000
     27       5.7333      0.00000
     28       5.7333      0.00000
     29       6.4100      0.00000
     30       6.4100      0.00000
     31       8.9741      0.00000
     32       8.9741      0.00000

 k-point     5 :       0.0000    0.1667    0.0000
  band No.  band energies     occupation 
      1     -10.7053      2.00000
      2     -10.3965      2.00000
      3      -9.4812      2.00000
      4      -9.0496      2.00000
      5      -4.7661      2.00000
      6      -4.2843      2.00000
      7      -2.8990      2.00000
      8      -2.7496      2.00000
      9      -1.6384      2.00000
     10      -0.2040      2.00000
     11       0.0661      2.00000
     12       0.2475      2.00000
     13       0.2558      2.00000
     14       0.3446      2.00000
     15       1.4008      2.00000
     16       1.5822      2.00000
     17       1.8411      2.00000
     18       2.5123      2.00000
     19       2.6826      2.00000
     20       2.8765      2.00000
     21       4.2183      0.00000
     22       5.6016      0.00000
     23       6.0139      0.00000
     24       6.4244      0.00000
     25       6.5537      0.00000
     26       6.6034      0.00000
     27       6.8925      0.00000
     28       7.0746      0.00000
     29       7.4861      0.00000
     30       8.0889      0.00000
     31       8.4503      0.00000
     32       8.6109      0.00000

 k-point     6 :       0.1667    0.1667    0.0000
  band No.  band energies     occupation 
      1     -10.5815      2.00000
      2     -10.2807      2.00000
      3      -9.4759      2.00000
      4      -9.0825      2.00000
      5      -4.9625      2.00000
      6      -4.2989      2.00000
      7      -3.3227      2.00000
      8      -3.0195      2.00000
      9      -1.4538      2.00000
     10      -0.7635      2.00000
     11      -0.5191      2.00000
     12       0.3542      2.00000
     13       0.8327      2.00000
     14       1.1402      2.00000
     15       1.2916      2.00000
     16       1.4300      2.00000
     17       2.3741      2.00000
     18       2.3985      2.00000
     19       2.7557      2.00000
     20       2.8870      2.00000
     21       4.2962      0.00000
     22       5.1378      0.00000
     23       5.5033      0.00000
     24       5.6177      0.00000
     25       6.4208      0.00000
     26       6.7362      0.00000
     27       7.2099      0.00000
     28       7.2881      0.00000
     29       7.7601      0.00000
     30       7.9670      0.00000
     31       8.0219      0.00000
     32       8.8372      0.00000

 k-point     7 :      -0.1667    0.1667    0.0000
  band No.  band energies     occupation 
      1     -10.5815      2.00000
      2     -10.2807      2.00000
      3      -9.4759      2.00000
      4      -9.0825      2.00000
      5      -4.9625      2.00000
      6      -4.2989      2.00000
      7      -3.3227      2.00000
      8      -3.0195      2.00000
      9      -1.4538      2.00000
     10      -0.7635      2.00000
     11      -0.5191      2.00000
     12       0.3542      2.00000
     13       0.8327      2.00000
     14       1.1402      2.00000
     15       1.2916      2.00000
     16       1.4300      2.00000
     17       2.3741      2.00000
     18       2.3985      2.00000
     19       2.7557      2.00000
     20       2.8870      2.00000
     21       4.2962      0.00000
     22       5.1378      0.00000
     23       5.5033      0.00000
     24       5.6177      0.00000
     25       6.4208      0.00000
     26       6.7362      0.00000
     27       7.2099      0.00000
     28       7.2881      0.00000
     29       7.7601      0.00000
     30       7.9670      0.00000
     31       8.0219      0.00000
     32       8.8372      0.00000

 k-point     8 :       0.3333    0.1667    0.0000
  band No.  band energies     occupation 
      1     -10.2477      2.00000
      2      -9.9674      2.00000
      3      -9.5478      2.00000
      4      -9.2371      2.00000
      5      -5.2024      2.00000
      6      -4.3184      2.00000
      7      -4.2565      2.00000
      8      -3.5559      2.00000
      9      -0.9414      2.00000
     10      -0.8132      2.00000
     11      -0.5435      2.00000
     12       0.3582      2.00000
     13       0.4698      2.00000
     14       1.0196      2.00000
     15       1.3833      2.00000
     16       1.9377      2.00000
     17       2.2619      2.00000
     18       2.5896      2.00000
     19       2.6481      2.00000
     20       2.8136      2.00000
     21       4.4692      0.00000
     22       4.9478      0.00000
     23       5.5183      0.00000
     24       5.7349      0.00000
     25       5.8247      0.00000
     26       6.4149      0.00000
     27       6.8060      0.00000
     28       7.5893      0.00000
     29       7.7321      0.00000
     30       8.0655      0.00000
     31       8.2422      0.00000
     32       8.8267      0.00000

 k-point     9 :      -0.3333    0.1667    0.0000
  band No.  band energies     occupation 
      1     -10.2477      2.00000
      2      -9.9674      2.00000
      3      -9.5478      2.00000
      4      -9.2371      2.00000
      5      -5.2024      2.00000
      6      -4.3184      2.00000
      7      -4.2565      2.00000
      8      -3.5559      2.00000
      9      -0.9414      2.00000
     10      -0.8132      2.00000
     11      -0.5435      2.00000
     12       0.3582      2.00000
     13       0.4698      2.00000
     14       1.0196      2.00000
     15       1.3833      2.00000
     16       1.9377      2.00000
     17       2.2619      2.00000
     18       2.5896      2.00000
     19       2.6481      2.00000
     20       2.8136      2.00000
     21       4.4692      0.00000
     22       4.9478      0.00000
     23       5.5183      0.00000
     24       5.7349      0.00000
     25       5.8247      0.00000
     26       6.4149      0.00000
     27       6.8060      0.00000
     28       7.5893      0.00000
     29       7.7321      0.00000
     30       8.0655      0.00000
     31       8.2422      0.00000
     32       8.8267      0.00000

 k-point    10 :       0.5000    0.1667    0.0000
  band No.  band energies     occupation 
      1      -9.8330      2.00000
      2      -9.8330      2.00000
      3      -9.5653      2.00000
      4      -9.5653      2.00000
      5      -4.9923      2.00000
      6      -4.9923      2.00000
      7      -4.0886      2.00000
      8      -4.0886      2.00000
      9      -0.4467      2.00000
     10      -0.4467      2.00000
     11      -0.1494      2.00000
     12      -0.1494      2.00000
     13       0.3010      2.00000
     14       0.3010      2.00000
     15       1.6543      2.00000
     16       1.6543      2.00000
     17       2.3564      2.00000
     18       2.3564      2.00000
     19       2.8355      2.00000
     20       2.8355      2.00000
     21       4.7860      0.00000
     22       4.7860      0.00000
     23       5.5196      0.00000
     24       5.5196      0.00000
     25       6.3420      0.00000
     26       6.3420      0.00000
     27       7.1058      0.00000
     28       7.1058      0.00000
     29       7.5992      0.00000
     30       7.5992      0.00000
     31       8.6642      0.00000
     32       8.6642      0.00000

 k-point    11 :       0.0000    0.3333    0.0000
  band No.  band energies     occupation 
      1     -10.2043      2.00000
      2      -9.9568      2.00000
      3      -9.3199      2.00000
      4      -9.1137      2.00000
      5      -5.2514      2.00000
      6      -4.7845      2.00000
      7      -4.2148      2.00000
      8      -3.7270      2.00000
      9      -1.0390      2.00000
     10       0.0254      2.00000
     11       0.3518      2.00000
     12       0.6787      2.00000
     13       0.6823      2.00000
     14       0.7620      2.00000
     15       1.4563      2.00000
     16       1.6926      2.00000
     17       2.0625      2.00000
     18       2.2439      2.00000
     19       2.5265      2.00000
     20       2.7809      2.00000
     21       4.3262      0.00000
     22       4.6090      0.00000
     23       5.0169      0.00000
     24       5.4005      0.00000
     25       5.5568      0.00000
     26       5.8737      0.00000
     27       5.9935      0.00000
     28       6.7995      0.00000
     29       7.0891      0.00000
     30       7.3818      0.00000
     31       7.5794      0.00000
     32       8.6053      0.00000

 k-point    12 :       0.1667    0.3333    0.0000
  band No.  band energies     occupation 
      1     -10.1017      2.00000
      2      -9.8647      2.00000
      3      -9.3115      2.00000
      4      -9.1167      2.00000
      5      -5.1895      2.00000
      6      -4.6675      2.00000
      7      -4.1842      2.00000
      8      -3.8180      2.00000
      9      -0.9371      2.00000
     10      -0.9159      2.00000
     11      -0.6421      2.00000
     12       0.1623      2.00000
     13       0.8079      2.00000
     14       1.1343      2.00000
     15       1.1528      2.00000
     16       1.6091      2.00000
     17       1.7038      2.00000
     18       2.2773      2.00000
     19       2.3762      2.00000
     20       2.5695      2.00000
     21       4.3133      0.00000
     22       4.9592      0.00000
     23       5.3443      0.00000
     24       5.4910      0.00000
     25       5.9263      0.00000
     26       6.5601      0.00000
     27       6.9171      0.00000
     28       7.4995      0.00000
     29       7.5160      0.00000
     30       7.7046      0.00000
     31       8.3215      0.00000
     32       8.6106      0.00000

 k-point    13 :      -0.1667    0.3333    0.0000
  band No.  band energies     occupation 
      1     -10.1017      2.00000
      2      -9.8647      2.00000
      3      -9.3115      2.00000
      4      -9.1167      2.00000
      5      -5.1895      2.00000
      6      -4.6675      2.00000
      7      -4.1842      2.00000
      8      -3.8180      2.00000
      9      -0.9371      2.00000
     10      -0.9159      2.00000
     11      -0.6421      2.00000
     12       0.1623      2.00000
     13       0.8079      2.00000
     14       1.1343      2.00000
     15       1.1528      2.00000
     16       1.6091      2.00000
     17       1.7038      2.00000
     18       2.2773      2.00000
     19       2.3762      2.00000
     20       2.5695      2.00000
     21       4.3133      0.00000
     22       4.9592      0.00000
     23       5.3443      0.00000
     24       5.4910      0.00000
     25       5.9263      0.00000
     26       6.5601      0.00000
     27       6.9171      0.00000
     28       7.4995      0.00000
     29       7.5160      0.00000
     30       7.7046      0.00000
     31       8.3215      0.00000
     32       8.6106      0.00000

 k-point    14 :       0.3333    0.3333    0.0000
  band No.  band energies     occupation 
      1      -9.8353      2.00000
      2      -9.6270      2.00000
      3      -9.3471      2.00000
      4      -9.1727      2.00000
      5      -5.0198      2.00000
      6      -4.3878      2.00000
      7      -4.3050      2.00000
      8      -3.9932      2.00000
      9      -1.6150      2.00000
     10      -1.2556      2.00000
     11      -0.8184      2.00000
     12      -0.5202      2.00000
     13      -0.1010      2.00000
     14       0.4340      2.00000
     15       0.6991      2.00000
     16       1.0736      2.00000
     17       1.4563      2.00000
     18       1.8542      2.00000
     19       2.1234      2.00000
     20       2.4380      2.00000
     21       4.5378      0.00000
     22       6.1248      0.00000
     23       6.5173      0.00000
     24       6.6694      0.00000
     25       6.8731      0.00000
     26       7.2495      0.00000
     27       7.6325      0.00000
     28       7.9240      0.00000
     29       8.3223      0.00000
     30       8.5681      0.00000
     31       8.6540      0.00000
     32       9.5040      0.00000

 k-point    15 :      -0.3333    0.3333    0.0000
  band No.  band energies     occupation 
      1      -9.8353      2.00000
      2      -9.6270      2.00000
      3      -9.3471      2.00000
      4      -9.1727      2.00000
      5      -5.0198      2.00000
      6      -4.3878      2.00000
      7      -4.3050      2.00000
      8      -3.9932      2.00000
      9      -1.6150      2.00000
     10      -1.2556      2.00000
     11      -0.8184      2.00000
     12      -0.5202      2.00000
     13      -0.1010      2.00000
     14       0.4340      2.00000
     15       0.6991      2.00000
     16       1.0736      2.00000
     17       1.4563      2.00000
     18       1.8542      2.00000
     19       2.1234      2.00000
     20       2.4380      2.00000
     21       4.5378      0.00000
     22       6.1248      0.00000
     23       6.5173      0.00000
     24       6.6694      0.00000
     25       6.8731      0.00000
     26       7.2495      0.00000
     27       7.6325      0.00000
     28       7.9240      0.00000
     29       8.3223      0.00000
     30       8.5681      0.00000
     31       8.6540      0.00000
     32       9.5040      0.00000

 k-point    16 :       0.5000    0.3333    0.0000
  band No.  band energies     occupation 
      1      -9.5313      2.00000
      2      -9.5313      2.00000
      3      -9.3538      2.00000
      4      -9.3538      2.00000
      5      -4.7129      2.00000
      6      -4.7129      2.00000
      7      -4.1275      2.00000
      8      -4.1275      2.00000
      9      -1.5014      2.00000
     10      -1.5014      2.00000
     11      -1.0199      2.00000
     12      -1.0199      2.00000
     13      -0.0621      2.00000
     14      -0.0621      2.00000
     15       0.7542      2.00000
     16       0.7542      2.00000
     17       1.2485      2.00000
     18       1.2485      2.00000
     19       2.1891      2.00000
     20       2.1891      2.00000
     21       5.5225      0.00000
     22       5.5225      0.00000
     23       7.2318      0.00000
     24       7.2318      0.00000
     25       7.9171      0.00000
     26       7.9171      0.00000
     27       8.0164      0.00000
     28       8.0164      0.00000
     29       8.4912      0.00000
     30       8.4912      0.00000
     31       9.2571      0.00000
     32       9.2571      0.00000

 k-point    17 :       0.0000    0.5000    0.0000
  band No.  band energies     occupation 
      1      -9.5562      2.00000
      2      -9.5562      2.00000
      3      -9.4705      2.00000
      4      -9.4705      2.00000
      5      -5.1622      2.00000
      6      -5.1622      2.00000
      7      -4.6037      2.00000
      8      -4.6037      2.00000
      9      -0.2132      2.00000
     10      -0.2132      2.00000
     11       0.8202      2.00000
     12       0.8202      2.00000
     13       1.0386      2.00000
     14       1.0386      2.00000
     15       1.5920      2.00000
     16       1.5920      2.00000
     17       2.1749      2.00000
     18       2.1749      2.00000
     19       2.2351      2.00000
     20       2.2351      2.00000
     21       4.5782      0.00000
     22       4.5782      0.00000
     23       4.6984      0.00000
     24       4.6984      0.00000
     25       5.2377      0.00000
     26       5.2377      0.00000
     27       5.7535      0.00000
     28       5.7535      0.00000
     29       6.5018      0.00000
     30       6.5018      0.00000
     31       8.1711      0.00000
     32       8.1711      0.00000

 k-point    18 :       0.1667    0.5000    0.0000
  band No.  band energies     occupation 
      1      -9.5000      2.00000
      2      -9.5000      2.00000
      3      -9.4241      2.00000
      4      -9.4241      2.00000
      5      -5.0330      2.00000
      6      -5.0330      2.00000
      7      -4.5353      2.00000
      8      -4.5353      2.00000
      9      -0.4543      2.00000
     10      -0.4543      2.00000
     11      -0.0765      2.00000
     12      -0.0765      2.00000
     13       0.4872      2.00000
     14       0.4872      2.00000
     15       1.1343      2.00000
     16       1.1343      2.00000
     17       1.7763      2.00000
     18       1.7763      2.00000
     19       2.4851      2.00000
     20       2.4851      2.00000
     21       4.4971      0.00000
     22       4.4971      0.00000
     23       5.5626      0.00000
     24       5.5626      0.00000
     25       6.5299      0.00000
     26       6.5299      0.00000
     27       6.5825      0.00000
     28       6.5825      0.00000
     29       7.4710      0.00000
     30       7.4710      0.00000
     31       7.8451      0.00000
     32       7.8451      0.00000

 k-point    19 :       0.3333    0.5000    0.0000
  band No.  band energies     occupation 
      1      -9.3779      2.00000
      2      -9.3779      2.00000
      3      -9.3299      2.00000
      4      -9.3299      2.00000
      5      -4.7184      2.00000
      6      -4.7184      2.00000
      7      -4.4068      2.00000
      8      -4.4068      2.00000
      9      -1.2825      2.00000
     10      -1.2825      2.00000
     11      -0.9157      2.00000
     12      -0.9157      2.00000
     13      -0.1604      2.00000
     14      -0.1604      2.00000
     15       0.4988      2.00000
     16       0.4988      2.00000
     17       1.1788      2.00000
     18       1.1788      2.00000
     19       2.1083      2.00000
     20       2.1083      2.00000
     21       5.5659      0.00000
     22       5.5659      0.00000
     23       6.9751      0.00000
     24       6.9751      0.00000
     25       7.6033      0.00000
     26       7.6033      0.00000
     27       7.7715      0.00000
     28       7.7715      0.00000
     29       8.3237      0.00000
     30       8.3237      0.00000
     31       9.3609      0.00000
     32       9.3609      0.00000

 k-point    20 :       0.5000    0.5000    0.0000
  band No.  band energies     occupation 
      1      -9.3069      2.00000
      2      -9.3069      2.00000
      3      -9.2866      2.00000
      4      -9.2866      2.00000
      5      -4.5013      2.00000
      6      -4.5013      2.00000
      7      -4.3691      2.00000
      8      -4.3691      2.00000
      9      -1.6240      2.00000
     10      -1.6240      2.00000
     11      -1.3135      2.00000
     12      -1.3135      2.00000
     13      -0.3941      2.00000
     14      -0.3941      2.00000
     15       0.0143      2.00000
     16       0.0143      2.00000
     17       1.2960      2.00000
     18       1.2960      2.00000
[...]
     32       7.6118      0.00000

 k-point    32 :       0.1667    0.3333    0.5000
  band No.  band energies     occupation 
      1     -10.0007      2.00000
      2     -10.0007      2.00000
      3      -9.1957      2.00000
      4      -9.1957      2.00000
      5      -4.9630      2.00000
      6      -4.9630      2.00000
      7      -4.0034      2.00000
      8      -4.0034      2.00000
      9      -0.8510      2.00000
     10      -0.8510      2.00000
     11      -0.0618      2.00000
     12      -0.0618      2.00000
     13       0.6484      2.00000
     14       0.6484      2.00000
     15       1.3990      2.00000
     16       1.3990      2.00000
     17       1.7828      2.00000
     18       1.7828      2.00000
     19       2.5709      2.00000
     20       2.5709      2.00000
     21       5.1223      0.00000
     22       5.1223      0.00000
     23       5.4372      0.00000
     24       5.4372      0.00000
     25       6.4896      0.00000
     26       6.4896      0.00000
     27       6.6652      0.00000
     28       6.6652      0.00000
     29       7.3919      0.00000
     30       7.3919      0.00000
     31       8.3191      0.00000
     32       8.3191      0.00000

 k-point    33 :      -0.1667    0.3333    0.5000
  band No.  band energies     occupation 
      1     -10.0007      2.00000
      2     -10.0007      2.00000
      3      -9.1957      2.00000
      4      -9.1957      2.00000
      5      -4.9630      2.00000
      6      -4.9630      2.00000
      7      -4.0034      2.00000
      8      -4.0034      2.00000
      9      -0.8510      2.00000
     10      -0.8510      2.00000
     11      -0.0618      2.00000
     12      -0.0618      2.00000
     13       0.6484      2.00000
     14       0.6484      2.00000
     15       1.3990      2.00000
     16       1.3990      2.00000
     17       1.7828      2.00000
     18       1.7828      2.00000
     19       2.5709      2.00000
     20       2.5709      2.00000
     21       5.1223      0.00000
     22       5.1223      0.00000
     23       5.4372      0.00000
     24       5.4372      0.00000
     25       6.4896      0.00000
     26       6.4896      0.00000
     27       6.6652      0.00000
     28       6.6652      0.00000
     29       7.3919      0.00000
     30       7.3919      0.00000
     31       8.3191      0.00000
     32       8.3191      0.00000

 k-point    34 :       0.3333    0.3333    0.5000
  band No.  band energies     occupation 
      1      -9.7508      2.00000
      2      -9.7508      2.00000
      3      -9.2405      2.00000
      4      -9.2405      2.00000
      5      -4.7726      2.00000
      6      -4.7726      2.00000
      7      -4.1038      2.00000
      8      -4.1038      2.00000
      9      -1.4330      2.00000
     10      -1.4330      2.00000
     11      -0.5480      2.00000
     12      -0.5480      2.00000
     13       0.0891      2.00000
     14       0.0891      2.00000
     15       0.8073      2.00000
     16       0.8073      2.00000
     17       1.5630      2.00000
     18       1.5630      2.00000
     19       2.3591      2.00000
     20       2.3591      2.00000
     21       5.7605      0.00000
     22       5.7605      0.00000
     23       6.3407      0.00000
     24       6.3407      0.00000
     25       6.6391      0.00000
     26       6.6391      0.00000
     27       7.7736      0.00000
     28       7.7736      0.00000
     29       8.0655      0.00000
     30       8.0655      0.00000
     31       9.5004      0.00000
     32       9.5004      0.00000

 k-point    35 :      -0.3333    0.3333    0.5000
  band No.  band energies     occupation 
      1      -9.7508      2.00000
      2      -9.7508      2.00000
      3      -9.2405      2.00000
      4      -9.2405      2.00000
      5      -4.7726      2.00000
      6      -4.7726      2.00000
      7      -4.1038      2.00000
      8      -4.1038      2.00000
      9      -1.4330      2.00000
     10      -1.4330      2.00000
     11      -0.5480      2.00000
     12      -0.5480      2.00000
     13       0.0891      2.00000
     14       0.0891      2.00000
     15       0.8073      2.00000
     16       0.8073      2.00000
     17       1.5630      2.00000
     18       1.5630      2.00000
     19       2.3591      2.00000
     20       2.3591      2.00000
     21       5.7605      0.00000
     22       5.7605      0.00000
     23       6.3407      0.00000
     24       6.3407      0.00000
     25       6.6391      0.00000
     26       6.6391      0.00000
     27       7.7736      0.00000
     28       7.7736      0.00000
     29       8.0655      0.00000
     30       8.0655      0.00000
     31       9.5004      0.00000
     32       9.5004      0.00000

 k-point    36 :       0.5000    0.3333    0.5000
  band No.  band energies     occupation 
      1      -9.5279      2.00000
      2      -9.5279      2.00000
      3      -9.3579      2.00000
      4      -9.3579      2.00000
      5      -4.6656      2.00000
      6      -4.6656      2.00000
      7      -4.1921      2.00000
      8      -4.1921      2.00000
      9      -1.2744      2.00000
     10      -1.2744      2.00000
     11      -1.2741      2.00000
     12      -1.2741      2.00000
     13       0.2490      2.00000
     14       0.2490      2.00000
     15       0.2880      2.00000
     16       0.2880      2.00000
     17       1.6441      2.00000
     18       1.6441      2.00000
     19       1.9861      2.00000
     20       1.9861      2.00000
     21       5.9318      0.00000
     22       5.9318      0.00000
     23       6.6118      0.00000
     24       6.6118      0.00000
     25       7.5956      0.00000
     26       7.5956      0.00000
     27       7.6446      0.00000
     28       7.6446      0.00000
     29       9.0394      0.00000
     30       9.0394      0.00000
     31       9.2796      0.00000
     32       9.2796      0.00000

 k-point    37 :       0.0000    0.5000    0.5000
  band No.  band energies     occupation 
      1      -9.5144      2.00000
      2      -9.5144      2.00000
      3      -9.5144      2.00000
      4      -9.5144      2.00000
      5      -4.9031      2.00000
      6      -4.9031      2.00000
      7      -4.9031      2.00000
      8      -4.9031      2.00000
      9       0.4098      2.00000
     10       0.4098      2.00000
     11       0.4098      2.00000
     12       0.4098      2.00000
     13       1.2119      2.00000
     14       1.2119      2.00000
     15       1.2119      2.00000
     16       1.2119      2.00000
     17       2.0619      2.00000
     18       2.0619      2.00000
     19       2.0619      2.00000
     20       2.0619      2.00000
     21       4.9411      0.00000
     22       4.9411      0.00000
     23       4.9411      0.00000
     24       4.9411      0.00000
     25       5.4656      0.00000
     26       5.4656      0.00000
     27       5.4656      0.00000
     28       5.4656      0.00000
     29       7.0697      0.00000
     30       7.0697      0.00000
     31       7.0697      0.00000
     32       7.0697      0.00000

 k-point    38 :       0.1667    0.5000    0.5000
  band No.  band energies     occupation 
      1      -9.4629      2.00000
      2      -9.4629      2.00000
      3      -9.4629      2.00000
      4      -9.4629      2.00000
      5      -4.8004      2.00000
      6      -4.8004      2.00000
      7      -4.8004      2.00000
      8      -4.8004      2.00000
      9      -0.1858      2.00000
     10      -0.1858      2.00000
     11      -0.1858      2.00000
     12      -0.1858      2.00000
     13       0.7616      2.00000
     14       0.7616      2.00000
     15       0.7616      2.00000
     16       0.7616      2.00000
     17       1.9728      2.00000
     18       1.9728      2.00000
     19       1.9728      2.00000
     20       1.9728      2.00000
     21       5.3305      0.00000
     22       5.3305      0.00000
     23       5.3305      0.00000
     24       5.3305      0.00000
     25       6.6122      0.00000
     26       6.6122      0.00000
     27       6.6122      0.00000
     28       6.6122      0.00000
     29       7.2702      0.00000
     30       7.2702      0.00000
     31       7.2702      0.00000
     32       7.2702      0.00000

 k-point    39 :       0.3333    0.5000    0.5000
  band No.  band energies     occupation 
      1      -9.3542      2.00000
      2      -9.3542      2.00000
      3      -9.3542      2.00000
      4      -9.3542      2.00000
      5      -4.5705      2.00000
      6      -4.5705      2.00000
      7      -4.5705      2.00000
      8      -4.5705      2.00000
      9      -1.0459      2.00000
     10      -1.0459      2.00000
     11      -1.0459      2.00000
     12      -1.0459      2.00000
     13      -0.0306      2.00000
     14      -0.0306      2.00000
     15      -0.0306      2.00000
     16      -0.0306      2.00000
     17       1.8239      2.00000
     18       1.8239      2.00000
     19       1.8239      2.00000
     20       1.8239      2.00000
     21       6.1337      0.00000
     22       6.1337      0.00000
     23       6.1337      0.00000
     24       6.1337      0.00000
     25       7.3620      0.00000
     26       7.3620      0.00000
     27       7.3620      0.00000
     28       7.3620      0.00000
     29       9.0568      0.00000
     30       9.0568      0.00000
     31       9.0568      0.00000
     32       9.0568      0.00000

 k-point    40 :       0.5000    0.5000    0.5000
  band No.  band energies     occupation 
      1      -9.2968      2.00000
      2      -9.2968      2.00000
      3      -9.2968      2.00000
      4      -9.2968      2.00000
      5      -4.4409      2.00000
      6      -4.4409      2.00000
      7      -4.4409      2.00000
      8      -4.4409      2.00000
      9      -1.3390      2.00000
     10      -1.3390      2.00000
     11      -1.3390      2.00000
     12      -1.3390      2.00000
     13      -0.4990      2.00000
     14      -0.4990      2.00000
     15      -0.4990      2.00000
     16      -0.4990      2.00000
     17       1.8639      2.00000
     18       1.8639      2.00000
     19       1.8639      2.00000
     20       1.8639      2.00000
     21       5.9737      0.00000
     22       5.9737      0.00000
     23       5.9737      0.00000
     24       5.9737      0.00000
     25       8.3867      0.00000
     26       8.3867      0.00000
     27       8.3867      0.00000
     28       8.3867      0.00000
     29      10.0427      0.00000
     30      10.0427      0.00000
     31      10.0427      0.00000
     32      10.0427      0.00000


--------------------------------------------------------------------------------------------------------


 soft charge-density along one line, spin component            1
         0         1         2         3         4         5         6         7         8         9
 total charge-density along one line
 
 pseudopotential strength for first ion, spin component:            1
 14.492  18.079  -0.000   0.046   0.038  -0.000   0.083   0.068
 18.079  22.570  -0.000   0.058   0.048  -0.000   0.105   0.086
 -0.000  -0.000   3.221  -0.000   0.000   5.483  -0.000   0.000
  0.046   0.058  -0.000   3.217  -0.002  -0.000   5.477  -0.004
  0.038   0.048   0.000  -0.002   3.220   0.000  -0.004   5.481
 -0.000  -0.000   5.483  -0.000   0.000   9.390  -0.000   0.000
  0.083   0.105  -0.000   5.477  -0.004  -0.000   9.379  -0.007
  0.068   0.086   0.000  -0.004   5.481   0.000  -0.007   9.387
  0.000   0.000   0.006  -0.000  -0.000   0.012  -0.000  -0.000
 -0.000  -0.000   0.012  -0.000  -0.000   0.022  -0.000  -0.000
 -0.004  -0.005   0.000   0.012  -0.003   0.000   0.021  -0.006
 -0.005  -0.007  -0.000   0.012   0.012  -0.000   0.021   0.022
 -0.001  -0.001   0.000   0.000   0.011   0.000   0.000   0.020
 total augmentation occupancy for first ion, spin component:            1
  2.696  -0.685  -0.000   0.374   0.302   0.000  -0.068  -0.054   0.000  -0.000  -0.002  -0.010  -0.012
 -0.685   0.665   0.000  -0.485  -0.394   0.000   0.076   0.061  -0.000   0.000   0.004   0.007   0.009
 -0.000   0.000   1.223   0.000  -0.000  -0.210  -0.000   0.000   0.132   0.034  -0.000   0.000  -0.000
  0.374  -0.485   0.000   1.309   0.056  -0.000  -0.212   0.002   0.000   0.000   0.111  -0.018   0.002
  0.302  -0.394  -0.000   0.056   1.193  -0.000   0.002  -0.193   0.000   0.000  -0.088   0.039  -0.006
  0.000   0.000  -0.210  -0.000  -0.000   0.040   0.000  -0.000  -0.023  -0.006   0.000  -0.000   0.000
 -0.068   0.076  -0.000  -0.212   0.002   0.000   0.039  -0.002   0.000   0.000  -0.019   0.003  -0.000
 -0.054   0.061   0.000   0.002  -0.193  -0.000  -0.002   0.035   0.000   0.000   0.015  -0.006   0.001
  0.000  -0.000   0.132   0.000   0.000  -0.023   0.000   0.000   0.031   0.003  -0.000   0.000  -0.000
 -0.000   0.000   0.034   0.000   0.000  -0.006   0.000   0.000   0.003   0.010   0.000  -0.000  -0.000
 -0.002   0.004  -0.000   0.111  -0.088   0.000  -0.019   0.015  -0.000   0.000   0.032  -0.007   0.003
 -0.010   0.007   0.000  -0.018   0.039  -0.000   0.003  -0.006   0.000  -0.000  -0.007   0.011  -0.001
 -0.012   0.009  -0.000   0.002  -0.006   0.000  -0.000   0.001  -0.000  -0.000   0.003  -0.001   0.008


------------------------ aborting loop because EDIFF is reached ----------------------------------------


    CHARGE:  cpu time      0.0030: real time      0.0030
    FORLOC:  cpu time      0.0001: real time      0.0001
    FORNL :  cpu time      0.0210: real time      0.0211
    STRESS:  cpu time      0.1923: real time      0.1930
    FORCOR:  cpu time      0.0039: real time      0.0039
    FORHAR:  cpu time      0.0011: real time      0.0012
    MIXING:  cpu time      0.0010: real time      0.0010
    OFIELD:  cpu time      0.0000: real time      0.0000

  FORCE on cell =-STRESS in cart. coord.  units (eV):
  Direction    XX          YY          ZZ          XY          YZ          ZX
  --------------------------------------------------------------------------------------
  Alpha Z    88.50529    88.50529    88.50529
  Ewald    -485.63779  -440.09801  -503.43542    -0.00000     0.00000    -0.00000
  Hartree    42.90398    60.57378    28.04680    -0.00000     0.00000     0.00000
  E(xc)    -141.02966  -140.97226  -141.47528    -0.00000     0.00000     0.00000
  Local    -128.76219  -186.14641   -99.70685     0.00000     0.00000     0.00000
  n-local   239.34318   240.01735   242.15214    -0.00000    -0.00000    -0.00000
  augment   -11.77460   -11.35463   -12.15199    -0.00000     0.00000     0.00000
  Kinetic   397.53044   389.66454   398.70085     0.00000    -0.00000     0.00000
  Fock        0.00000     0.00000     0.00000     0.00000     0.00000     0.00000
  -------------------------------------------------------------------------------------
  Total       1.07865     0.18965     0.63554     0.00000    -0.00000     0.00000
  in kB       9.02680     1.58712     5.31859     0.00001    -0.00000     0.00002
  external pressure =        5.31 kB  Pullay stress =        0.00 kB


 VOLUME and BASIS-vectors are now :
 -----------------------------------------------------------------------------
  energy-cutoff  :      360.00
  volume of cell :      191.45
      direct lattice vectors                 reciprocal lattice vectors
     4.350000000  0.000000000  0.000000000     0.229885057  0.000000000  0.000000000
     0.000000000  3.950000000  0.000000000     0.000000000  0.253164557  0.000000000
     0.000000000  0.000000000 11.142221000     0.000000000  0.000000000  0.089748713

  length of vectors
     4.350000000  3.950000000 11.142221000     0.229885057  0.253164557  0.089748713


 FORCES acting on ions
    electron-ion (+dipol)            ewald-force                    non-local-force                 convergence-correction
 -----------------------------------------------------------------------------------------------
   0.127E+02 -.602E-06 0.266E+02   -.151E+02 0.307E-14 -.295E+02   0.241E+01 0.434E-06 0.289E+01   -.835E-04 0.226E-06 -.132E-02
   0.127E+02 -.119E-05 -.266E+02   -.151E+02 -.184E-14 0.295E+02   0.241E+01 0.683E-06 -.289E+01   -.796E-04 0.655E-06 0.133E-02
   -.127E+02 0.641E-06 -.266E+02   0.151E+02 0.124E-14 0.295E+02   -.241E+01 -.475E-06 -.289E+01   0.818E-04 -.926E-07 0.132E-02
   -.127E+02 0.183E-05 0.266E+02   0.151E+02 -.789E-15 -.295E+02   -.241E+01 -.105E-05 0.289E+01   0.805E-04 -.861E-06 -.133E-02
   -.118E+02 0.327E-06 -.271E+02   0.131E+02 0.244E-14 0.288E+02   -.128E+01 -.438E-06 -.166E+01   0.279E-03 -.671E-07 0.244E-02
   -.118E+02 -.316E-05 0.271E+02   0.131E+02 -.166E-14 -.288E+02   -.128E+01 0.155E-05 0.166E+01   0.281E-03 0.170E-05 -.242E-02
   0.118E+02 0.283E-06 0.271E+02   -.131E+02 0.334E-14 -.288E+02   0.128E+01 -.322E-06 0.166E+01   -.281E-03 -.907E-07 -.244E-02
   0.118E+02 0.336E-05 -.271E+02   -.131E+02 -.224E-14 0.288E+02   0.128E+01 -.147E-05 -.166E+01   -.279E-03 -.196E-05 0.242E-02
 -----------------------------------------------------------------------------------------------
   -.681E-06 0.149E-05 -.392E-05   0.000E+00 0.355E-14 -.284E-13   0.809E-06 -.108E-05 0.313E-06   -.283E-06 -.485E-06 0.308E-05
 
 
 POSITION                                       TOTAL-FORCE (eV/Angst)
 -----------------------------------------------------------------------------------
      0.45325      0.98750      1.40954        -0.027872      0.000000      0.017512
      2.62825      2.96250      4.16157        -0.027872      0.000000     -0.017514
      3.89675      2.96250      9.73268         0.027872      0.000000     -0.017512
      1.72175      0.98750      6.98065         0.027872     -0.000000      0.017514
      4.33637      0.98750      3.95051         0.045442     -0.000000     -0.005330
      2.16137      2.96250      1.62060         0.045442      0.000000      0.005328
      0.01363      2.96250      7.19171        -0.045442     -0.000000      0.005330
      2.18863      0.98750      9.52162        -0.045442     -0.000000     -0.005328
 -----------------------------------------------------------------------------------
    total drift:                               -0.000000     -0.000000     -0.000001


--------------------------------------------------------------------------------------------------------



  FREE ENERGIE OF THE ION-ELECTRON SYSTEM (eV)
  ---------------------------------------------------
  free  energy   TOTEN  =       -33.81027292 eV

  energy  without entropy=      -33.81027292  energy(sigma->0) =      -33.81027292
 


--------------------------------------------------------------------------------------------------------


    POTLOK:  cpu time      0.1149: real time      0.1155


--------------------------------------------------------------------------------------------------------


     LOOP+:  cpu time      4.8471: real time      4.8834
    4ORBIT:  cpu time      0.0000: real time      0.0000

 total amount of memory used by VASP MPI-rank0    38233. kBytes
=======================================================================

   base      :      30000. kBytes
   nonl-proj :       6488. kBytes
   fftplans  :        289. kBytes
   grid      :        416. kBytes
   one-center:         16. kBytes
   wavefun   :       1024. kBytes
 
  
  
 General timing and accounting informations for this job:
 ========================================================
  
                  Total CPU time used (sec):        5.643
                            User time (sec):        5.356
                          System time (sec):        0.287
                         Elapsed time (sec):        7.005
  
                   Maximum memory used (kb):      188736.
                   Average memory used (kb):          N/A
  
                          Minor page faults:        21407
                          Major page faults:           28
                 Voluntary context switches:         4099
