 vasp.6.4.2 20Jul23 (build Oct 12 2023 10:31:02) complex                         
 executed on              LinuxNV date 2025.05.28  16:05:31
 running  128 mpi-ranks, with    1 threads/rank, on    2 nodes
 distrk:  each k-point on   64 cores,    2 groups
 distr:  one band on NCORE=   4 cores,   16 groups


--------------------------------------------------------------------------------------------------------


 INCAR:
   ENCUT = 360.000000
   SIGMA = 0.050000
   EDIFF = 1.00e-06
   ALGO = Normal
   GGA = PE
   PREC = Normal
   SYSTEM = ./
   ICHARG = 2
   ISMEAR = 0
   ISPIN = 1
   ISTART = 0
   ISYM = 0
   KPAR = 2
   LMAXMIX = 4
   NELM = 100
   NPAR = 16
   LASPH = .TRUE.
   LCHARG = .FALSE.
   LWAVE = .FALSE.

 POTCAR:    PAW_PBE Ge 05Jan2001                  
 POTCAR:    PAW_PBE Se 06Sep2000                  
 POTCAR:    PAW_PBE Ge 05Jan2001                  
   VRHFIN =Ge: s2p2                                                                                 
   LEXCH  = PE                                                                                      
   EATOM  =   104.9960 eV,    7.7170 Ry                                                             
                                                                                                    
   TITEL  = PAW_PBE Ge 05Jan2001                                                                    
   LULTRA =        F    use ultrasoft PP ?                                                          
   IUNSCR =        1    unscreen: 0-lin 1-nonlin 2-no                                               
   RPACOR =    2.170    partial core radius                                                         
   POMASS =   72.610; ZVAL   =    4.000    mass and valenz                                          
   RCORE  =    2.300    outmost cutoff radius                                                       
   RWIGS  =    2.300; RWIGS  =    1.217    wigner-seitz radius (au A)                               
   ENMAX  =  173.807; ENMIN  =  130.355 eV                                                          
   ICORE  =        3    local potential                                                             
   LCOR   =        T    correct aug charges                                                         
   LPAW   =        T    paw PP                                                                      
   EAUG   =  385.843                                                                                
   DEXC   =    0.000                                                                                
   RMAX   =    2.342    core radius for proj-oper                                                   
   RAUG   =    1.300    factor for augmentation sphere                                              
   RDEP   =    2.318    radius for radial grids                                                     
   RDEPT  =    2.103    core radius for aug-charge                                                  
                                                                                                    
   Atomic configuration                                                                             
   10 entries                                                                                       
     n  l   j            E        occ.                                                              
     1  0  0.50    -10959.8463   2.0000                                                             
     2  0  0.50     -1371.6056   2.0000                                                             
     2  1  1.50     -1198.4791   6.0000                                                             
     3  0  0.50      -168.4733   2.0000                                                             
     3  1  1.50      -115.6019   6.0000                                                             
     3  2  2.50       -29.3106  10.0000                                                             
     4  0  0.50       -11.7309   2.0000                                                             
     4  1  0.50        -3.8952   2.0000                                                             
     4  2  1.50        -4.0817   0.0000                                                             
     4  3  2.50        -4.0817   0.0000                                                             
   Description                                                                                      
     l       E           TYP  RCUT    TYP  RCUT                                                     
     0    -11.7309493     23  2.300                                                                 
     0     -7.4578696     23  2.300                                                                 
     1     -3.8952261     23  2.300                                                                 
     1      6.1178114     23  2.300                                                                 
     2     -4.0817478     23  2.300                                                                 
     3     -1.3605826      7  2.300                                                                 
  local pseudopotential read in
  partial core-charges read in
  partial kinetic energy density read in
  atomic valenz-charges read in
  non local Contribution for L=            0  read in
    real space projection operators read in
  non local Contribution for L=            0  read in
    real space projection operators read in
  non local Contribution for L=            1  read in
    real space projection operators read in
  non local Contribution for L=            1  read in
    real space projection operators read in
  non local Contribution for L=            2  read in
    real space projection operators read in
    PAW grid and wavefunctions read in
 
   number of l-projection  operators is LMAX  =            5
   number of lm-projection operators is LMMAX =           13
 
 POTCAR:    PAW_PBE Se 06Sep2000                  
   VRHFIN =Se: s2p4                                                                                 
   LEXCH  = PE                                                                                      
   EATOM  =   257.1286 eV,   18.8984 Ry                                                             
                                                                                                    
   TITEL  = PAW_PBE Se 06Sep2000                                                                    
   LULTRA =        F    use ultrasoft PP ?                                                          
   IUNSCR =        1    unscreen: 0-lin 1-nonlin 2-no                                               
   RPACOR =    1.900    partial core radius                                                         
   POMASS =   78.960; ZVAL   =    6.000    mass and valenz                                          
   RCORE  =    2.100    outmost cutoff radius                                                       
   RWIGS  =    2.200; RWIGS  =    1.164    wigner-seitz radius (au A)                               
   ENMAX  =  211.555; ENMIN  =  158.666 eV                                                          
   ICORE  =        3    local potential                                                             
   LCOR   =        T    correct aug charges                                                         
   LPAW   =        T    paw PP                                                                      
   EAUG   =  446.842                                                                                
   DEXC   =    0.000                                                                                
   RMAX   =    2.147    core radius for proj-oper                                                   
   RAUG   =    1.300    factor for augmentation sphere                                              
   RDEP   =    2.177    radius for radial grids                                                     
   RDEPT  =    1.928    core radius for aug-charge                                                  
                                                                                                    
   Atomic configuration                                                                             
   10 entries                                                                                       
     n  l   j            E        occ.                                                              
     1  0  0.50    -12503.4787   2.0000                                                             
     2  0  0.50     -1606.9547   2.0000                                                             
     2  1  1.50     -1413.3140   6.0000                                                             
     3  0  0.50      -213.4885   2.0000                                                             
     3  1  1.50      -152.9538   6.0000                                                             
     3  2  2.50       -53.1221  10.0000                                                             
     4  0  0.50       -17.2865   2.0000                                                             
     4  1  0.50        -6.5110   4.0000                                                             
     4  2  2.50        -6.8029   0.0000                                                             
     4  3  2.50        -6.8029   0.0000                                                             
   Description                                                                                      
     l       E           TYP  RCUT    TYP  RCUT                                                     
     0    -17.2865377     23  2.100                                                                 
     0    -15.3094411     23  2.100                                                                 
     1     -6.5110275     23  2.100                                                                 
     1     -0.0695192     23  2.100                                                                 
     2     -6.8029130     23  2.100                                                                 
     3     -1.3605826      7  2.100                                                                 
  local pseudopotential read in
  partial core-charges read in
  partial kinetic energy density read in
  atomic valenz-charges read in
  non local Contribution for L=            0  read in
    real space projection operators read in
  non local Contribution for L=            0  read in
    real space projection operators read in
  non local Contribution for L=            1  read in
    real space projection operators read in
  non local Contribution for L=            1  read in
    real space projection operators read in
  non local Contribution for L=            2  read in
    real space projection operators read in
    PAW grid and wavefunctions read in
 
   number of l-projection  operators is LMAX  =            5
   number of lm-projection operators is LMMAX =           13
 
  PAW_PBE Ge 05Jan2001                  :
 energy of atom  1       EATOM= -104.9960
 kinetic energy error for atom=    0.0005 (will be added to EATOM!!)
  PAW_PBE Se 06Sep2000                  :
 energy of atom  2       EATOM= -257.1286
 kinetic energy error for atom=    0.0030 (will be added to EATOM!!)
 
 
 POSCAR: Ge Se
  positions in cartesian coordinates
  No initial velocities read in
 exchange correlation table for  LEXCH =        8
   RHO(1)=    0.500       N(1)  =     2000
   RHO(2)=  100.500       N(2)  =     4000
 


--------------------------------------------------------------------------------------------------------


 ion  position               nearest neighbor table
   1  0.108  0.250  0.123-   6 2.56   6 2.56   5 2.61
   2  0.608  0.750  0.377-   5 2.56   5 2.56   6 2.61
   3  0.892  0.750  0.877-   8 2.56   8 2.56   7 2.61
   4  0.392  0.250  0.623-   7 2.56   7 2.56   8 2.61
   5  0.991  0.250  0.352-   2 2.56   2 2.56   1 2.61
   6  0.491  0.750  0.148-   1 2.56   1 2.56   2 2.61
   7  0.009  0.750  0.648-   4 2.56   4 2.56   3 2.61
   8  0.509  0.250  0.852-   3 2.56   3 2.56   4 2.61
 

IMPORTANT INFORMATION: All symmetrisations will be switched off!
NOSYMM: (Re-)initialisation of all symmetry stuff for point group C_1.


----------------------------------------------------------------------------------------

                                     Primitive cell                                     

  volume of cell :     187.5793

  direct lattice vectors                    reciprocal lattice vectors
     4.550000000  0.000000000  0.000000000     0.219780220  0.000000000  0.000000000
     0.000000000  3.700000000  0.000000000     0.000000000  0.270270270  0.000000000
     0.000000000  0.000000000 11.142221000     0.000000000  0.000000000  0.089748713

  length of vectors
     4.550000000  3.700000000 11.142221000     0.219780220  0.270270270  0.089748713

  position of ions in fractional coordinates (direct lattice)
     0.108001262  0.250000000  0.122636032
     0.608001262  0.750000000  0.377363968
     0.891998738  0.750000000  0.877363968
     0.391998738  0.250000000  0.622636032
     0.991231362  0.250000000  0.351741460
     0.491231362  0.750000000  0.148258540
     0.008768638  0.750000000  0.648258540
     0.508768638  0.250000000  0.851741460

  ion indices of the primitive-cell ions
   primitive index   ion index
                 1           1
                 2           2
                 3           3
                 4           4
                 5           5
                 6           6
                 7           7
                 8           8

----------------------------------------------------------------------------------------

 
 
 KPOINTS: KPOINTS created by Atomic Simulation Env

Automatic generation of k-mesh.
 Grid dimensions read from file:
 generate k-points for:    6    6    2

 Generating k-lattice:

  Cartesian coordinates                     Fractional coordinates (reciprocal lattice)
     0.036630037  0.000000000  0.000000000     0.166666667  0.000000000  0.000000000
     0.000000000  0.045045045  0.000000000     0.000000000  0.166666667  0.000000000
     0.000000000  0.000000000  0.044874357     0.000000000  0.000000000  0.500000000

  Length of vectors
     0.036630037  0.045045045  0.044874357

  Shift w.r.t. Gamma in fractional coordinates (k-lattice)
     0.000000000  0.000000000  0.000000000

 
 Subroutine IBZKPT returns following result:
 ===========================================
 
 Found     40 irreducible k-points:
 
 Following reciprocal coordinates:
            Coordinates               Weight
  0.000000  0.000000  0.000000      1.000000
  0.166667  0.000000  0.000000      2.000000
  0.333333  0.000000  0.000000      2.000000
  0.500000  0.000000  0.000000      1.000000
  0.000000  0.166667  0.000000      2.000000
  0.166667  0.166667  0.000000      2.000000
 -0.166667  0.166667  0.000000      2.000000
  0.333333  0.166667  0.000000      2.000000
 -0.333333  0.166667  0.000000      2.000000
  0.500000  0.166667  0.000000      2.000000
  0.000000  0.333333  0.000000      2.000000
  0.166667  0.333333  0.000000      2.000000
 -0.166667  0.333333  0.000000      2.000000
  0.333333  0.333333  0.000000      2.000000
 -0.333333  0.333333  0.000000      2.000000
  0.500000  0.333333  0.000000      2.000000
  0.000000  0.500000  0.000000      1.000000
  0.166667  0.500000  0.000000      2.000000
  0.333333  0.500000  0.000000      2.000000
  0.500000  0.500000  0.000000      1.000000
  0.000000  0.000000  0.500000      1.000000
  0.166667  0.000000  0.500000      2.000000
  0.333333  0.000000  0.500000      2.000000
  0.500000  0.000000  0.500000      1.000000
  0.000000  0.166667  0.500000      2.000000
  0.166667  0.166667  0.500000      2.000000
 -0.166667  0.166667  0.500000      2.000000
  0.333333  0.166667  0.500000      2.000000
 -0.333333  0.166667  0.500000      2.000000
  0.500000  0.166667  0.500000      2.000000
  0.000000  0.333333  0.500000      2.000000
  0.166667  0.333333  0.500000      2.000000
 -0.166667  0.333333  0.500000      2.000000
  0.333333  0.333333  0.500000      2.000000
 -0.333333  0.333333  0.500000      2.000000
  0.500000  0.333333  0.500000      2.000000
  0.000000  0.500000  0.500000      1.000000
  0.166667  0.500000  0.500000      2.000000
  0.333333  0.500000  0.500000      2.000000
  0.500000  0.500000  0.500000      1.000000
 
 Following cartesian coordinates:
            Coordinates               Weight
  0.000000  0.000000  0.000000      1.000000
  0.036630  0.000000  0.000000      2.000000
  0.073260  0.000000  0.000000      2.000000
  0.109890  0.000000  0.000000      1.000000
  0.000000  0.045045  0.000000      2.000000
  0.036630  0.045045  0.000000      2.000000
 -0.036630  0.045045  0.000000      2.000000
  0.073260  0.045045  0.000000      2.000000
 -0.073260  0.045045  0.000000      2.000000
  0.109890  0.045045  0.000000      2.000000
  0.000000  0.090090  0.000000      2.000000
  0.036630  0.090090  0.000000      2.000000
 -0.036630  0.090090  0.000000      2.000000
  0.073260  0.090090  0.000000      2.000000
 -0.073260  0.090090  0.000000      2.000000
  0.109890  0.090090  0.000000      2.000000
  0.000000  0.135135  0.000000      1.000000
  0.036630  0.135135  0.000000      2.000000
  0.073260  0.135135  0.000000      2.000000
  0.109890  0.135135  0.000000      1.000000
  0.000000  0.000000  0.044874      1.000000
  0.036630  0.000000  0.044874      2.000000
  0.073260  0.000000  0.044874      2.000000
  0.109890  0.000000  0.044874      1.000000
  0.000000  0.045045  0.044874      2.000000
  0.036630  0.045045  0.044874      2.000000
 -0.036630  0.045045  0.044874      2.000000
  0.073260  0.045045  0.044874      2.000000
 -0.073260  0.045045  0.044874      2.000000
  0.109890  0.045045  0.044874      2.000000
  0.000000  0.090090  0.044874      2.000000
  0.036630  0.090090  0.044874      2.000000
 -0.036630  0.090090  0.044874      2.000000
  0.073260  0.090090  0.044874      2.000000
 -0.073260  0.090090  0.044874      2.000000
  0.109890  0.090090  0.044874      2.000000
  0.000000  0.135135  0.044874      1.000000
  0.036630  0.135135  0.044874      2.000000
  0.073260  0.135135  0.044874      2.000000
  0.109890  0.135135  0.044874      1.000000
 


--------------------------------------------------------------------------------------------------------




 Dimension of arrays:
   k-points           NKPTS =     40   k-points in BZ     NKDIM =     40   number of bands    NBANDS=     32
   number of dos      NEDOS =    301   number of ions     NIONS =      8
   non local maximal  LDIM  =      5   non local SUM 2l+1 LMDIM =     13
   total plane-waves  NPLWV =  23328
   max r-space proj   IRMAX =      1   max aug-charges    IRDMAX=   6958
   dimension x,y,z NGX =    24 NGY =   18 NGZ =   54
   dimension x,y,z NGXF=    48 NGYF=   36 NGZF=  108
   support grid    NGXF=    48 NGYF=   36 NGZF=  108
   ions per type =               4   4
   NGX,Y,Z   is equivalent  to a cutoff of   8.77,  8.09,  8.06 a.u.
   NGXF,Y,Z  is equivalent  to a cutoff of  17.54, 16.18, 16.11 a.u.

 SYSTEM =  ./                                      
 POSCAR =  Ge Se                                   

 Startparameter for this run:
   NWRITE =      2    write-flag & timer
   PREC   = normal    normal or accurate (medium, high low for compatibility)
   ISTART =      0    job   : 0-new  1-cont  2-samecut
   ICHARG =      2    charge: 1-file 2-atom 10-const
   ISPIN  =      1    spin polarized calculation?
   LNONCOLLINEAR =      F non collinear calculations
   LSORBIT =      F    spin-orbit coupling
   INIWAV =      1    electr: 0-lowe 1-rand  2-diag
   LASPH  =      T    aspherical Exc in radial PAW
 Electronic Relaxation 1
   ENCUT  =  360.0 eV  26.46 Ry    5.14 a.u.   7.04  5.72 17.24*2*pi/ulx,y,z
   ENINI  =  360.0     initial cutoff
   ENAUG  =  446.8 eV  augmentation charge cutoff
   NELM   =    100;   NELMIN=  2; NELMDL= -5     # of ELM steps 
   EDIFF  = 0.1E-05   stopping-criterion for ELM
   LREAL  =      F    real-space projection
   NLSPLINE    = F    spline interpolate recip. space projectors
   LCOMPAT=      F    compatible to vasp.4.4
   GGA_COMPAT  = T    GGA compatible to vasp.4.4-vasp.4.6
   LMAXPAW     = -100 max onsite density
   LMAXMIX     =    4 max onsite mixed and CHGCAR
   VOSKOWN=      0    Vosko Wilk Nusair interpolation
   ROPT   =    0.00000   0.00000
 Ionic relaxation
   EDIFFG = 0.1E-04   stopping-criterion for IOM
   NSW    =      0    number of steps for IOM
   NBLOCK =      1;   KBLOCK =      1    inner block; outer block 
   IBRION =     -1    ionic relax: 0-MD 1-quasi-New 2-CG
   NFREE  =      0    steps in history (QN), initial steepest desc. (CG)
   ISIF   =      2    stress and relaxation
   IWAVPR =     10    prediction:  0-non 1-charg 2-wave 3-comb
   ISYM   =      0    0-nonsym 1-usesym 2-fastsym
   LCORR  =      T    Harris-Foulkes like correction to forces

   POTIM  = 0.5000    time-step for ionic-motion
   TEIN   =    0.0    initial temperature
   TEBEG  =    0.0;   TEEND  =   0.0 temperature during run
   SMASS  =  -3.00    Nose mass-parameter (am)
   estimated Nose-frequenzy (Omega)   =  0.10E-29 period in steps = 0.13E+47 mass=  -0.473E-27a.u.
   SCALEE = 1.0000    scale energy and forces
   NPACO  =    256;   APACO  = 10.0  distance and # of slots for P.C.
   PSTRESS=    0.0 pullay stress

  Mass of Ions in am
   POMASS =  72.61 78.96
  Ionic Valenz
   ZVAL   =   4.00  6.00
  Atomic Wigner-Seitz radii
   RWIGS  =  -1.00 -1.00
  virtual crystal weights 
   VCA    =   1.00  1.00
   NELECT =      40.0000    total number of electrons
   NUPDOWN=      -1.0000    fix difference up-down

 DOS related values:
   EMIN   =  10.00;   EMAX   =-10.00  energy-range for DOS
   EFERMI =   0.00;   METHOD = LEGACY      
   ISMEAR =     0;   SIGMA  =   0.05  broadening in eV -4-tet -1-fermi 0-gaus

 Electronic relaxation 2 (details)
   IALGO  =     38    algorithm
   LDIAG  =      T    sub-space diagonalisation (order eigenvalues)
   LSUBROT=      F    optimize rotation matrix (better conditioning)
   TURBO    =      0    0=normal 1=particle mesh
   IRESTART =      0    0=no restart 2=restart with 2 vectors
   NREBOOT  =      0    no. of reboots
   NMIN     =      0    reboot dimension
   EREF     =   0.00    reference energy to select bands
   IMIX   =      4    mixing-type and parameters
     AMIX     =   0.40;   BMIX     =  1.00
     AMIX_MAG =   1.60;   BMIX_MAG =  1.00
     AMIN     =   0.10
     WC   =   100.;   INIMIX=   1;  MIXPRE=   1;  MAXMIX= -45

 Intra band minimization:
   WEIMIN = 0.0000     energy-eigenvalue tresh-hold
   EBREAK =  0.78E-08  absolut break condition
   DEPER  =   0.30     relativ break condition  

   TIME   =   0.40     timestep for ELM

  volume/ion in A,a.u.               =      23.45       158.23
  Fermi-wavevector in a.u.,A,eV,Ry     =   0.978062  1.848270 13.015414  0.956606
  Thomas-Fermi vector in A             =   2.108809
 
 Write flags
   LWAVE        =      F    write WAVECAR
   LDOWNSAMPLE  =      F    k-point downsampling of WAVECAR
   LCHARG       =      F    write CHGCAR
   LVTOT        =      F    write LOCPOT, total local potential
   LVHAR        =      F    write LOCPOT, Hartree potential only
   LELF         =      F    write electronic localiz. function (ELF)
   LORBIT       =      0    0 simple, 1 ext, 2 COOP (PROOUT), +10 PAW based schemes


 Dipole corrections
   LMONO  =      F    monopole corrections only (constant potential shift)
   LDIPOL =      F    correct potential (dipole corrections)
   IDIPOL =      0    1-x, 2-y, 3-z, 4-all directions 
   EPSILON=  1.0000000 bulk dielectric constant

 Exchange correlation treatment:
   GGA     =    PE    GGA type
   LEXCH   =     8    internal setting for exchange type
   LIBXC   =     F    Libxc                    
   VOSKOWN =     0    Vosko Wilk Nusair interpolation
   LHFCALC =     F    Hartree Fock is set to
   LHFONE  =     F    Hartree Fock one center treatment
   AEXX    =    0.0000 exact exchange contribution

 Linear response parameters
   LEPSILON=     F    determine dielectric tensor
   LRPA    =     F    only Hartree local field effects (RPA)
   LNABLA  =     F    use nabla operator in PAW spheres
   LVEL    =     F    velocity operator in full k-point grid
   CSHIFT  =0.1000    complex shift for real part using Kramers Kronig
   OMEGAMAX=  -1.0    maximum frequency
   DEG_THRESHOLD= 0.2000000E-02 threshold for treating states as degnerate
   RTIME   =   -0.100 relaxation time in fs
  (WPLASMAI=    0.000 imaginary part of plasma frequency in eV, 0.658/RTIME)
   DFIELD  = 0.0000000 0.0000000 0.0000000 field for delta impulse in time
 
  Optional k-point grid parameters
   LKPOINTS_OPT  =     F    use optional k-point grid
   KPOINTS_OPT_MODE=     1    mode for optional k-point grid
 
 Orbital magnetization related:
   ORBITALMAG=     F  switch on orbital magnetization
   LCHIMAG   =     F  perturbation theory with respect to B field
   DQ        =  0.001000  dq finite difference perturbation B field
   LLRAUG    =     F  two centre corrections for induced B field
   LBONE     =     F  B-component reconstruction in AE one-centre
   LVGVCALC  =     T  calculate vGv susceptibility
   LVGVAPPL  =     F  apply vGv susceptibility instead of pGv for G=0

 Random number generation:
   RANDOM_GENERATOR = DEFAULT
   PCG_SEED         = not used


--------------------------------------------------------------------------------------------------------


 Static calculation
 charge density and potential will be updated during run
 non-spin polarized calculation
 Variant of blocked Davidson
 Davidson routine will perform the subspace rotation
 perform sub-space diagonalisation
    after iterative eigenvector-optimisation
 modified Broyden-mixing scheme, WC =      100.0
 initial mixing is a Kerker type mixing with AMIX =  0.4000 and BMIX =      1.0000
 Hartree-type preconditioning will be used
 using additional bands            12
 reciprocal scheme for non local part
 use partial core corrections
 calculate Harris-corrections to forces 
   (improved forces if not selfconsistent)
 use gradient corrections 
 use of overlap-Matrix (Vanderbilt PP)
 Gauss-broadening in eV      SIGMA  =   0.05


--------------------------------------------------------------------------------------------------------


  energy-cutoff  :      360.00
  volume of cell :      187.58
      direct lattice vectors                 reciprocal lattice vectors
     4.550000000  0.000000000  0.000000000     0.219780220  0.000000000  0.000000000
     0.000000000  3.700000000  0.000000000     0.000000000  0.270270270  0.000000000
     0.000000000  0.000000000 11.142221000     0.000000000  0.000000000  0.089748713

  length of vectors
     4.550000000  3.700000000 11.142221000     0.219780220  0.270270270  0.089748713


 
 k-points in units of 2pi/SCALE and weight: KPOINTS created by Atomic Simulation Env
   0.00000000  0.00000000  0.00000000       0.014
   0.03663004  0.00000000  0.00000000       0.028
   0.07326007  0.00000000  0.00000000       0.028
   0.10989011  0.00000000  0.00000000       0.014
   0.00000000  0.04504505  0.00000000       0.028
   0.03663004  0.04504505  0.00000000       0.028
  -0.03663004  0.04504505  0.00000000       0.028
   0.07326007  0.04504505  0.00000000       0.028
  -0.07326007  0.04504505  0.00000000       0.028
   0.10989011  0.04504505  0.00000000       0.028
   0.00000000  0.09009009  0.00000000       0.028
   0.03663004  0.09009009  0.00000000       0.028
  -0.03663004  0.09009009  0.00000000       0.028
   0.07326007  0.09009009  0.00000000       0.028
  -0.07326007  0.09009009  0.00000000       0.028
   0.10989011  0.09009009  0.00000000       0.028
   0.00000000  0.13513514  0.00000000       0.014
   0.03663004  0.13513514  0.00000000       0.028
   0.07326007  0.13513514  0.00000000       0.028
   0.10989011  0.13513514  0.00000000       0.014
   0.00000000  0.00000000  0.04487436       0.014
   0.03663004  0.00000000  0.04487436       0.028
   0.07326007  0.00000000  0.04487436       0.028
   0.10989011  0.00000000  0.04487436       0.014
   0.00000000  0.04504505  0.04487436       0.028
   0.03663004  0.04504505  0.04487436       0.028
  -0.03663004  0.04504505  0.04487436       0.028
   0.07326007  0.04504505  0.04487436       0.028
  -0.07326007  0.04504505  0.04487436       0.028
   0.10989011  0.04504505  0.04487436       0.028
   0.00000000  0.09009009  0.04487436       0.028
   0.03663004  0.09009009  0.04487436       0.028
  -0.03663004  0.09009009  0.04487436       0.028
   0.07326007  0.09009009  0.04487436       0.028
  -0.07326007  0.09009009  0.04487436       0.028
   0.10989011  0.09009009  0.04487436       0.028
   0.00000000  0.13513514  0.04487436       0.014
   0.03663004  0.13513514  0.04487436       0.028
   0.07326007  0.13513514  0.04487436       0.028
   0.10989011  0.13513514  0.04487436       0.014
 
 k-points in reciprocal lattice and weights: KPOINTS created by Atomic Simulation Env
   0.00000000  0.00000000  0.00000000       0.014
   0.16666667  0.00000000  0.00000000       0.028
   0.33333333  0.00000000  0.00000000       0.028
   0.50000000  0.00000000  0.00000000       0.014
   0.00000000  0.16666667  0.00000000       0.028
   0.16666667  0.16666667  0.00000000       0.028
  -0.16666667  0.16666667  0.00000000       0.028
   0.33333333  0.16666667  0.00000000       0.028
  -0.33333333  0.16666667  0.00000000       0.028
   0.50000000  0.16666667  0.00000000       0.028
   0.00000000  0.33333333  0.00000000       0.028
   0.16666667  0.33333333  0.00000000       0.028
  -0.16666667  0.33333333  0.00000000       0.028
   0.33333333  0.33333333  0.00000000       0.028
  -0.33333333  0.33333333  0.00000000       0.028
   0.50000000  0.33333333  0.00000000       0.028
   0.00000000  0.50000000  0.00000000       0.014
   0.16666667  0.50000000  0.00000000       0.028
   0.33333333  0.50000000  0.00000000       0.028
   0.50000000  0.50000000  0.00000000       0.014
   0.00000000  0.00000000  0.50000000       0.014
   0.16666667  0.00000000  0.50000000       0.028
   0.33333333  0.00000000  0.50000000       0.028
   0.50000000  0.00000000  0.50000000       0.014
   0.00000000  0.16666667  0.50000000       0.028
   0.16666667  0.16666667  0.50000000       0.028
  -0.16666667  0.16666667  0.50000000       0.028
   0.33333333  0.16666667  0.50000000       0.028
  -0.33333333  0.16666667  0.50000000       0.028
   0.50000000  0.16666667  0.50000000       0.028
   0.00000000  0.33333333  0.50000000       0.028
   0.16666667  0.33333333  0.50000000       0.028
  -0.16666667  0.33333333  0.50000000       0.028
   0.33333333  0.33333333  0.50000000       0.028
  -0.33333333  0.33333333  0.50000000       0.028
   0.50000000  0.33333333  0.50000000       0.028
   0.00000000  0.50000000  0.50000000       0.014
   0.16666667  0.50000000  0.50000000       0.028
   0.33333333  0.50000000  0.50000000       0.028
   0.50000000  0.50000000  0.50000000       0.014
 
 position of ions in fractional coordinates (direct lattice) 
   0.10800126  0.25000000  0.12263603
   0.60800126  0.75000000  0.37736397
   0.89199874  0.75000000  0.87736397
   0.39199874  0.25000000  0.62263603
   0.99123136  0.25000000  0.35174146
   0.49123136  0.75000000  0.14825854
   0.00876864  0.75000000  0.64825854
   0.50876864  0.25000000  0.85174146
 
 position of ions in cartesian coordinates  (Angst):
   0.49140574  0.92500000  1.36643777
   2.76640574  2.77500000  4.20467273
   4.05859426  2.77500000  9.77578323
   1.78359426  0.92500000  6.93754827
   4.51010270  0.92500000  3.91918109
   2.23510270  2.77500000  1.65192941
   0.03989730  2.77500000  7.22303991
   2.31489730  0.92500000  9.49029159
 


--------------------------------------------------------------------------------------------------------


 k-point   1 :   0.0000 0.0000 0.0000  plane waves:    2887
 k-point   2 :   0.1667 0.0000 0.0000  plane waves:    2916
 k-point   3 :   0.3333 0.0000 0.0000  plane waves:    2918
 k-point   4 :   0.5000 0.0000 0.0000  plane waves:    2886
 k-point   5 :   0.0000 0.1667 0.0000  plane waves:    2901
 k-point   6 :   0.1667 0.1667 0.0000  plane waves:    2903
 k-point   7 :  -0.1667 0.1667 0.0000  plane waves:    2903
 k-point   8 :   0.3333 0.1667 0.0000  plane waves:    2909
 k-point   9 :  -0.3333 0.1667 0.0000  plane waves:    2909
 k-point  10 :   0.5000 0.1667 0.0000  plane waves:    2928
 k-point  11 :   0.0000 0.3333 0.0000  plane waves:    2904
 k-point  12 :   0.1667 0.3333 0.0000  plane waves:    2903
 k-point  13 :  -0.1667 0.3333 0.0000  plane waves:    2903
 k-point  14 :   0.3333 0.3333 0.0000  plane waves:    2910
 k-point  15 :  -0.3333 0.3333 0.0000  plane waves:    2910
 k-point  16 :   0.5000 0.3333 0.0000  plane waves:    2924
 k-point  17 :   0.0000 0.5000 0.0000  plane waves:    2908
 k-point  18 :   0.1667 0.5000 0.0000  plane waves:    2916
 k-point  19 :   0.3333 0.5000 0.0000  plane waves:    2916
 k-point  20 :   0.5000 0.5000 0.0000  plane waves:    2928
 k-point  21 :   0.0000 0.0000 0.5000  plane waves:    2878
 k-point  22 :   0.1667 0.0000 0.5000  plane waves:    2912
 k-point  23 :   0.3333 0.0000 0.5000  plane waves:    2924
 k-point  24 :   0.5000 0.0000 0.5000  plane waves:    2952
 k-point  25 :   0.0000 0.1667 0.5000  plane waves:    2906
 k-point  26 :   0.1667 0.1667 0.5000  plane waves:    2900
 k-point  27 :  -0.1667 0.1667 0.5000  plane waves:    2900
 k-point  28 :   0.3333 0.1667 0.5000  plane waves:    2928
 k-point  29 :  -0.3333 0.1667 0.5000  plane waves:    2928
 k-point  30 :   0.5000 0.1667 0.5000  plane waves:    2932
 k-point  31 :   0.0000 0.3333 0.5000  plane waves:    2900
 k-point  32 :   0.1667 0.3333 0.5000  plane waves:    2902
 k-point  33 :  -0.1667 0.3333 0.5000  plane waves:    2902
 k-point  34 :   0.3333 0.3333 0.5000  plane waves:    2908
 k-point  35 :  -0.3333 0.3333 0.5000  plane waves:    2908
 k-point  36 :   0.5000 0.3333 0.5000  plane waves:    2912
 k-point  37 :   0.0000 0.5000 0.5000  plane waves:    2896
 k-point  38 :   0.1667 0.5000 0.5000  plane waves:    2924
 k-point  39 :   0.3333 0.5000 0.5000  plane waves:    2896
 k-point  40 :   0.5000 0.5000 0.5000  plane waves:    2912

 maximum and minimum number of plane-waves per node :       748      715

 maximum number of plane-waves:      2952
 maximum index in each direction: 
   IXMAX=    7   IYMAX=    5   IZMAX=   17
   IXMIN=   -7   IYMIN=   -6   IZMIN=  -17


 parallel 3D FFT for wavefunctions:
    minimum data exchange during FFTs selected (reduces bandwidth)
 parallel 3D FFT for charge:
    minimum data exchange during FFTs selected (reduces bandwidth)


 total amount of memory used by VASP MPI-rank0    37991. kBytes
=======================================================================

   base      :      30000. kBytes
   nonl-proj :       6217. kBytes
   fftplans  :        320. kBytes
   grid      :        455. kBytes
   one-center:         16. kBytes
   wavefun   :        983. kBytes
 
     INWAV:  cpu time      0.0000: real time      0.0001
 Broyden mixing: mesh for mixing (old mesh)
   NGX = 15   NGY = 11   NGZ = 35
  (NGX  = 48   NGY  = 36   NGZ  =108)
  gives a total of   5775 points

 initial charge density was supplied:
 charge density of overlapping atoms calculated
 number of electron      40.0000000 magnetization 
 keeping initial charge density in first step


--------------------------------------------------------------------------------------------------------


 Maximum index for augmentation-charges           349 (set IRDMAX)


--------------------------------------------------------------------------------------------------------


 First call to EWALD:  gamma=   0.310
 Maximum number of real-space cells 3x 4x 2
 Maximum number of reciprocal cells 2x 2x 5

    FEWALD:  cpu time      0.0007: real time      0.0007


--------------------------------------- Ionic step        1  -------------------------------------------




--------------------------------------- Iteration      1(   1)  ---------------------------------------


    POTLOK:  cpu time      0.0057: real time      0.0061
    SETDIJ:  cpu time      0.1385: real time      0.1391
     EDDAV:  cpu time      0.2630: real time      0.2657
       DOS:  cpu time      0.0010: real time      0.0010
    --------------------------------------------
      LOOP:  cpu time      0.4083: real time      0.4119

 eigenvalue-minimisations  :  2560
 total energy-change (2. order) : 0.1299797E+03  (-0.1300816E+04)
 number of electron      40.0000000 magnetization 
 augmentation part       40.0000000 magnetization 

 Free energy of the ion-electron system (eV)
  ---------------------------------------------------
  alpha Z        PSCENC =        90.33217575
  Ewald energy   TEWEN  =     -1435.13794950
  -Hartree energ DENC   =      -123.32397270
  -exchange      EXHF   =         0.00000000
  -V(xc)+E(xc)   XCENC  =       -32.98381798
  PAW double counting   =      1193.78262552    -1080.73714043
  entropy T*S    EENTRO =        -0.00370987
  eigenvalues    EBANDS =        69.56683217
  atomic energy  EATOM  =      1448.48460880
  Solvation  Ediel_sol  =         0.00000000
  ---------------------------------------------------
  free energy    TOTEN  =       129.97965176 eV

  energy without entropy =      129.98336162  energy(sigma->0) =      129.98150669


--------------------------------------------------------------------------------------------------------




--------------------------------------- Iteration      1(   2)  ---------------------------------------


     EDDAV:  cpu time      0.3292: real time      0.3327
       DOS:  cpu time      0.0008: real time      0.0008
    --------------------------------------------
      LOOP:  cpu time      0.3301: real time      0.3335

 eigenvalue-minimisations  :  3744
 total energy-change (2. order) :-0.1556562E+03  (-0.1509172E+03)
 number of electron      40.0000000 magnetization 
 augmentation part       40.0000000 magnetization 

 Free energy of the ion-electron system (eV)
  ---------------------------------------------------
  alpha Z        PSCENC =        90.33217575
  Ewald energy   TEWEN  =     -1435.13794950
  -Hartree energ DENC   =      -123.32397270
  -exchange      EXHF   =         0.00000000
  -V(xc)+E(xc)   XCENC  =       -32.98381798
  PAW double counting   =      1193.78262552    -1080.73714043
  entropy T*S    EENTRO =        -0.00000001
  eigenvalues    EBANDS =       -86.09307993
  atomic energy  EATOM  =      1448.48460880
  Solvation  Ediel_sol  =         0.00000000
  ---------------------------------------------------
  free energy    TOTEN  =       -25.67655049 eV

  energy without entropy =      -25.67655048  energy(sigma->0) =      -25.67655049


--------------------------------------------------------------------------------------------------------




--------------------------------------- Iteration      1(   3)  ---------------------------------------


     EDDAV:  cpu time      0.3033: real time      0.3066
       DOS:  cpu time      0.0006: real time      0.0006
    --------------------------------------------
      LOOP:  cpu time      0.3038: real time      0.3071

 eigenvalue-minimisations  :  3104
 total energy-change (2. order) :-0.8330891E+01  (-0.8315028E+01)
 number of electron      40.0000000 magnetization 
 augmentation part       40.0000000 magnetization 

 Free energy of the ion-electron system (eV)
  ---------------------------------------------------
  alpha Z        PSCENC =        90.33217575
  Ewald energy   TEWEN  =     -1435.13794950
  -Hartree energ DENC   =      -123.32397270
  -exchange      EXHF   =         0.00000000
  -V(xc)+E(xc)   XCENC  =       -32.98381798
  PAW double counting   =      1193.78262552    -1080.73714043
  entropy T*S    EENTRO =        -0.00000000
  eigenvalues    EBANDS =       -94.42397062
  atomic energy  EATOM  =      1448.48460880
  Solvation  Ediel_sol  =         0.00000000
  ---------------------------------------------------
  free energy    TOTEN  =       -34.00744116 eV

  energy without entropy =      -34.00744116  energy(sigma->0) =      -34.00744116


--------------------------------------------------------------------------------------------------------




--------------------------------------- Iteration      1(   4)  ---------------------------------------


     EDDAV:  cpu time      0.3077: real time      0.3110
       DOS:  cpu time      0.0006: real time      0.0006
    --------------------------------------------
      LOOP:  cpu time      0.3083: real time      0.3116

 eigenvalue-minimisations  :  3280
 total energy-change (2. order) :-0.5472491E-01  (-0.5471755E-01)
 number of electron      40.0000000 magnetization 
 augmentation part       40.0000000 magnetization 

 Free energy of the ion-electron system (eV)
  ---------------------------------------------------
  alpha Z        PSCENC =        90.33217575
  Ewald energy   TEWEN  =     -1435.13794950
  -Hartree energ DENC   =      -123.32397270
  -exchange      EXHF   =         0.00000000
  -V(xc)+E(xc)   XCENC  =       -32.98381798
  PAW double counting   =      1193.78262552    -1080.73714043
  entropy T*S    EENTRO =        -0.00000000
  eigenvalues    EBANDS =       -94.47869553
  atomic energy  EATOM  =      1448.48460880
  Solvation  Ediel_sol  =         0.00000000
  ---------------------------------------------------
  free energy    TOTEN  =       -34.06216607 eV

  energy without entropy =      -34.06216607  energy(sigma->0) =      -34.06216607


--------------------------------------------------------------------------------------------------------




--------------------------------------- Iteration      1(   5)  ---------------------------------------


     EDDAV:  cpu time      0.2926: real time      0.2960
       DOS:  cpu time      0.0006: real time      0.0005
    CHARGE:  cpu time      0.0045: real time      0.0045
    MIXING:  cpu time      0.0007: real time      0.0007
    --------------------------------------------
      LOOP:  cpu time      0.2983: real time      0.3018

 eigenvalue-minimisations  :  3104
 total energy-change (2. order) :-0.3153000E-03  (-0.3152975E-03)
 number of electron      39.9999997 magnetization 
 augmentation part       -7.3980696 magnetization 

 Broyden mixing:
  rms(total) = 0.67129E+00    rms(broyden)= 0.67128E+00
  rms(prec ) = 0.74657E+00
  weight for this iteration     100.00

 Free energy of the ion-electron system (eV)
  ---------------------------------------------------
  alpha Z        PSCENC =        90.33217575
  Ewald energy   TEWEN  =     -1435.13794950
  -Hartree energ DENC   =      -123.32397270
  -exchange      EXHF   =         0.00000000
  -V(xc)+E(xc)   XCENC  =       -32.98381798
  PAW double counting   =      1193.78262552    -1080.73714043
  entropy T*S    EENTRO =        -0.00000000
  eigenvalues    EBANDS =       -94.47901083
  atomic energy  EATOM  =      1448.48460880
  Solvation  Ediel_sol  =         0.00000000
  ---------------------------------------------------
  free energy    TOTEN  =       -34.06248137 eV

  energy without entropy =      -34.06248137  energy(sigma->0) =      -34.06248137


--------------------------------------------------------------------------------------------------------




--------------------------------------- Iteration      1(   6)  ---------------------------------------


    POTLOK:  cpu time      0.0053: real time      0.0055
    SETDIJ:  cpu time      0.1377: real time      0.1385
     EDDAV:  cpu time      0.3041: real time      0.3070
       DOS:  cpu time      0.0005: real time      0.0005
    CHARGE:  cpu time      0.0073: real time      0.0074
    MIXING:  cpu time      0.0010: real time      0.0010
    --------------------------------------------
      LOOP:  cpu time      0.4560: real time      0.4600

 eigenvalue-minimisations  :  3088
 total energy-change (2. order) : 0.3458833E+00  (-0.6751843E-01)
 number of electron      39.9999997 magnetization 
 augmentation part       -7.3454247 magnetization 

 Broyden mixing:
  rms(total) = 0.42305E+00    rms(broyden)= 0.42305E+00
  rms(prec ) = 0.44427E+00
  weight for this iteration     100.00

 eigenvalues of (default mixing * dielectric matrix)
  average eigenvalue GAMMA=   2.2871
  2.2871

 Free energy of the ion-electron system (eV)
  ---------------------------------------------------
  alpha Z        PSCENC =        90.33217575
  Ewald energy   TEWEN  =     -1435.13794950
  -Hartree energ DENC   =      -128.87203133
  -exchange      EXHF   =         0.00000000
  -V(xc)+E(xc)   XCENC  =       -32.38820875
  PAW double counting   =      1472.46819688    -1359.76346154
  entropy T*S    EENTRO =        -0.00000000
  eigenvalues    EBANDS =       -88.83992835
  atomic energy  EATOM  =      1448.48460880
  Solvation  Ediel_sol  =         0.00000000
  ---------------------------------------------------
  free energy    TOTEN  =       -33.71659805 eV

  energy without entropy =      -33.71659805  energy(sigma->0) =      -33.71659805


--------------------------------------------------------------------------------------------------------




--------------------------------------- Iteration      1(   7)  ---------------------------------------


    POTLOK:  cpu time      0.0067: real time      0.0069
    SETDIJ:  cpu time      0.1382: real time      0.1390
     EDDAV:  cpu time      0.2729: real time      0.2757
       DOS:  cpu time      0.0007: real time      0.0007
    CHARGE:  cpu time      0.0037: real time      0.0038
    MIXING:  cpu time      0.0005: real time      0.0005
    --------------------------------------------
      LOOP:  cpu time      0.4228: real time      0.4267

 eigenvalue-minimisations  :  2992
 total energy-change (2. order) : 0.1541456E-01  (-0.2281222E-01)
 number of electron      39.9999996 magnetization 
 augmentation part       -7.3296318 magnetization 

 Broyden mixing:
  rms(total) = 0.11896E+00    rms(broyden)= 0.11896E+00
  rms(prec ) = 0.12742E+00
  weight for this iteration     100.00

 eigenvalues of (default mixing * dielectric matrix)
  average eigenvalue GAMMA=   1.8000
  1.2031  2.3969

 Free energy of the ion-electron system (eV)
  ---------------------------------------------------
  alpha Z        PSCENC =        90.33217575
  Ewald energy   TEWEN  =     -1435.13794950
  -Hartree energ DENC   =      -131.68945488
  -exchange      EXHF   =         0.00000000
  -V(xc)+E(xc)   XCENC  =       -31.87148643
  PAW double counting   =      1841.27751111    -1728.85832738
  entropy T*S    EENTRO =        -0.00000001
  eigenvalues    EBANDS =       -86.23826095
  atomic energy  EATOM  =      1448.48460880
  Solvation  Ediel_sol  =         0.00000000
  ---------------------------------------------------
  free energy    TOTEN  =       -33.70118349 eV

  energy without entropy =      -33.70118348  energy(sigma->0) =      -33.70118348


--------------------------------------------------------------------------------------------------------




--------------------------------------- Iteration      1(   8)  ---------------------------------------


    POTLOK:  cpu time      0.0052: real time      0.0054
    SETDIJ:  cpu time      0.1369: real time      0.1379
     EDDAV:  cpu time      0.2671: real time      0.2698
       DOS:  cpu time      0.0007: real time      0.0007
    CHARGE:  cpu time      0.0036: real time      0.0036
    MIXING:  cpu time      0.0005: real time      0.0005
    --------------------------------------------
      LOOP:  cpu time      0.4140: real time      0.4179

 eigenvalue-minimisations  :  2880
 total energy-change (2. order) : 0.2240796E-02  (-0.2258947E-02)
 number of electron      39.9999997 magnetization 
 augmentation part       -7.3377486 magnetization 

 Broyden mixing:
  rms(total) = 0.18460E-01    rms(broyden)= 0.18460E-01
  rms(prec ) = 0.21818E-01
  weight for this iteration     100.00

 eigenvalues of (default mixing * dielectric matrix)
  average eigenvalue GAMMA=   1.7228
  2.5353  1.3166  1.3166

 Free energy of the ion-electron system (eV)
  ---------------------------------------------------
  alpha Z        PSCENC =        90.33217575
  Ewald energy   TEWEN  =     -1435.13794950
  -Hartree energ DENC   =      -131.67679006
  -exchange      EXHF   =         0.00000000
  -V(xc)+E(xc)   XCENC  =       -31.74970373
  PAW double counting   =      1970.58025057    -1858.22036076
  entropy T*S    EENTRO =        -0.00000000
  eigenvalues    EBANDS =       -86.31117376
  atomic energy  EATOM  =      1448.48460880
  Solvation  Ediel_sol  =         0.00000000
  ---------------------------------------------------
  free energy    TOTEN  =       -33.69894269 eV

  energy without entropy =      -33.69894269  energy(sigma->0) =      -33.69894269


--------------------------------------------------------------------------------------------------------




--------------------------------------- Iteration      1(   9)  ---------------------------------------


    POTLOK:  cpu time      0.0051: real time      0.0053
    SETDIJ:  cpu time      0.1369: real time      0.1377
     EDDAV:  cpu time      0.2784: real time      0.2813
       DOS:  cpu time      0.0008: real time      0.0008
    CHARGE:  cpu time      0.0036: real time      0.0036
    MIXING:  cpu time      0.0005: real time      0.0005
    --------------------------------------------
      LOOP:  cpu time      0.4253: real time      0.4292

 eigenvalue-minimisations  :  3088
 total energy-change (2. order) :-0.2912457E-03  (-0.3450481E-03)
 number of electron      39.9999997 magnetization 
 augmentation part       -7.3363572 magnetization 

 Broyden mixing:
  rms(total) = 0.64503E-02    rms(broyden)= 0.64503E-02
  rms(prec ) = 0.70189E-02
  weight for this iteration     100.00

 eigenvalues of (default mixing * dielectric matrix)
  average eigenvalue GAMMA=   1.6883
  2.2001  2.2001  1.1765  1.1765

 Free energy of the ion-electron system (eV)
  ---------------------------------------------------
  alpha Z        PSCENC =        90.33217575
  Ewald energy   TEWEN  =     -1435.13794950
  -Hartree energ DENC   =      -131.98518386
  -exchange      EXHF   =         0.00000000
  -V(xc)+E(xc)   XCENC  =       -31.71071802
  PAW double counting   =      1986.69601018    -1874.34648926
  entropy T*S    EENTRO =        -0.00000000
  eigenvalues    EBANDS =       -86.03168802
  atomic energy  EATOM  =      1448.48460880
  Solvation  Ediel_sol  =         0.00000000
  ---------------------------------------------------
  free energy    TOTEN  =       -33.69923394 eV

  energy without entropy =      -33.69923394  energy(sigma->0) =      -33.69923394


--------------------------------------------------------------------------------------------------------




--------------------------------------- Iteration      1(  10)  ---------------------------------------


    POTLOK:  cpu time      0.0050: real time      0.0051
    SETDIJ:  cpu time      0.1370: real time      0.1378
     EDDAV:  cpu time      0.2148: real time      0.2167
       DOS:  cpu time      0.0004: real time      0.0004
    CHARGE:  cpu time      0.0030: real time      0.0030
    MIXING:  cpu time      0.0003: real time      0.0003
    --------------------------------------------
      LOOP:  cpu time      0.3605: real time      0.3634

 eigenvalue-minimisations  :  3200
 total energy-change (2. order) :-0.5773296E-04  (-0.1959553E-04)
 number of electron      39.9999997 magnetization 
 augmentation part       -7.3363440 magnetization 

 Broyden mixing:
  rms(total) = 0.24236E-02    rms(broyden)= 0.24236E-02
  rms(prec ) = 0.29244E-02
  weight for this iteration     100.00

 eigenvalues of (default mixing * dielectric matrix)
  average eigenvalue GAMMA=   1.7436
  2.6819  2.3551  1.1382  1.2715  1.2715

 Free energy of the ion-electron system (eV)
  ---------------------------------------------------
  alpha Z        PSCENC =        90.33217575
  Ewald energy   TEWEN  =     -1435.13794950
  -Hartree energ DENC   =      -131.99894397
  -exchange      EXHF   =         0.00000000
  -V(xc)+E(xc)   XCENC  =       -31.71001759
  PAW double counting   =      1979.84458365    -1867.48988546
  entropy T*S    EENTRO =        -0.00000000
  eigenvalues    EBANDS =       -86.02386335
  atomic energy  EATOM  =      1448.48460880
  Solvation  Ediel_sol  =         0.00000000
  ---------------------------------------------------
  free energy    TOTEN  =       -33.69929167 eV

  energy without entropy =      -33.69929167  energy(sigma->0) =      -33.69929167


--------------------------------------------------------------------------------------------------------




--------------------------------------- Iteration      1(  11)  ---------------------------------------


    POTLOK:  cpu time      0.0034: real time      0.0036
    SETDIJ:  cpu time      0.1367: real time      0.1371
     EDDAV:  cpu time      0.1771: real time      0.1780
       DOS:  cpu time      0.0004: real time      0.0004
    CHARGE:  cpu time      0.0029: real time      0.0030
    MIXING:  cpu time      0.0003: real time      0.0003
    --------------------------------------------
      LOOP:  cpu time      0.3209: real time      0.3224

 eigenvalue-minimisations  :  2848
 total energy-change (2. order) :-0.2791777E-04  (-0.3661968E-05)
 number of electron      39.9999997 magnetization 
 augmentation part       -7.3365436 magnetization 

 Broyden mixing:
  rms(total) = 0.11960E-02    rms(broyden)= 0.11960E-02
  rms(prec ) = 0.13043E-02
  weight for this iteration     100.00

 eigenvalues of (default mixing * dielectric matrix)
  average eigenvalue GAMMA=   1.6959
  2.5545  2.1692  2.1692  1.2025  1.2025  0.8777

 Free energy of the ion-electron system (eV)
  ---------------------------------------------------
  alpha Z        PSCENC =        90.33217575
  Ewald energy   TEWEN  =     -1435.13794950
  -Hartree energ DENC   =      -132.02304933
  -exchange      EXHF   =         0.00000000
  -V(xc)+E(xc)   XCENC  =       -31.70346067
  PAW double counting   =      1981.29266417    -1868.93823255
  entropy T*S    EENTRO =        -0.00000000
  eigenvalues    EBANDS =       -86.00607625
  atomic energy  EATOM  =      1448.48460880
  Solvation  Ediel_sol  =         0.00000000
  ---------------------------------------------------
  free energy    TOTEN  =       -33.69931959 eV

  energy without entropy =      -33.69931959  energy(sigma->0) =      -33.69931959


--------------------------------------------------------------------------------------------------------




--------------------------------------- Iteration      1(  12)  ---------------------------------------


    POTLOK:  cpu time      0.0033: real time      0.0035
    SETDIJ:  cpu time      0.1247: real time      0.1251
     EDDAV:  cpu time      0.2073: real time      0.2084
       DOS:  cpu time      0.0004: real time      0.0004
    --------------------------------------------
      LOOP:  cpu time      0.3357: real time      0.3373

 eigenvalue-minimisations  :  3312
 total energy-change (2. order) :-0.1673983E-06  (-0.4217718E-06)
 number of electron      39.9999997 magnetization 
 augmentation part       -7.3365436 magnetization 

 Free energy of the ion-electron system (eV)
  ---------------------------------------------------
  alpha Z        PSCENC =        90.33217575
  Ewald energy   TEWEN  =     -1435.13794950
  -Hartree energ DENC   =      -132.03555491
  -exchange      EXHF   =         0.00000000
  -V(xc)+E(xc)   XCENC  =       -31.70261598
  PAW double counting   =      1980.59382114    -1868.23923376
  entropy T*S    EENTRO =        -0.00000000
  eigenvalues    EBANDS =       -85.99457129
  atomic energy  EATOM  =      1448.48460880
  Solvation  Ediel_sol  =         0.00000000
  ---------------------------------------------------
  free energy    TOTEN  =       -33.69931976 eV

  energy without entropy =      -33.69931975  energy(sigma->0) =      -33.69931975


--------------------------------------------------------------------------------------------------------




 average (electrostatic) potential at core
  the test charge radii are     1.1631  1.0808
  (the norm of the test charge is              1.0000)
       1 -33.1832       2 -33.1832       3 -33.1832       4 -33.1832       5 -54.7309
       6 -54.7309       7 -54.7309       8 -54.7309
 
 
 
 E-fermi :   3.8779     XC(G=0):  -9.4401     alpha+bet : -8.9991

 Fermi energy:         3.8779260287

 k-point     1 :       0.0000    0.0000    0.0000
  band No.  band energies     occupation 
      1     -10.9011      2.00000
      2     -10.5810      2.00000
      3      -9.6075      2.00000
      4      -9.1119      2.00000
      5      -4.5168      2.00000
      6      -3.9395      2.00000
      7      -2.4793      2.00000
      8      -1.8672      2.00000
      9      -1.6951      2.00000
     10      -0.4141      2.00000
     11      -0.1907      2.00000
     12      -0.0702      2.00000
     13       0.7175      2.00000
     14       1.0833      2.00000
     15       1.4449      2.00000
     16       1.8986      2.00000
     17       2.3364      2.00000
     18       2.4289      2.00000
     19       2.6182      2.00000
     20       3.6924      2.00000
     21       4.0633      0.00000
     22       5.9995      0.00000
     23       6.5216      0.00000
     24       6.5292      0.00000
     25       6.7370      0.00000
     26       6.7863      0.00000
     27       7.3075      0.00000
     28       7.9636      0.00000
     29       8.6425      0.00000
     30       8.8608      0.00000
     31       9.1683      0.00000
     32       9.5686      0.00000

 k-point     2 :       0.1667    0.0000    0.0000
  band No.  band energies     occupation 
      1     -10.7826      2.00000
      2     -10.4698      2.00000
      3      -9.6163      2.00000
      4      -9.1699      2.00000
      5      -4.8947      2.00000
      6      -4.0973      2.00000
      7      -3.2191      2.00000
      8      -2.4601      2.00000
      9      -1.5257      2.00000
     10      -0.0043      2.00000
     11       0.5179      2.00000
     12       0.5686      2.00000
     13       0.8556      2.00000
     14       1.2076      2.00000
     15       1.9391      2.00000
     16       1.9814      2.00000
     17       2.1444      2.00000
     18       2.4128      2.00000
     19       2.8061      2.00000
     20       3.4727      2.00000
     21       4.2301      0.00000
     22       5.8227      0.00000
     23       6.4127      0.00000
     24       6.4286      0.00000
     25       6.5615      0.00000
     26       6.8412      0.00000
     27       7.1446      0.00000
     28       7.6342      0.00000
     29       8.0394      0.00000
     30       8.3328      0.00000
     31       9.0467      0.00000
     32       9.0710      0.00000

 k-point     3 :       0.3333    0.0000    0.0000
  band No.  band energies     occupation 
      1     -10.4581      2.00000
      2     -10.1643      2.00000
      3      -9.7231      2.00000
      4      -9.3832      2.00000
      5      -5.3007      2.00000
      6      -4.3582      2.00000
      7      -4.2990      2.00000
      8      -3.3636      2.00000
      9      -1.0730      2.00000
     10       0.4984      2.00000
     11       1.2316      2.00000
     12       1.3714      2.00000
     13       1.5098      2.00000
     14       1.5397      2.00000
     15       1.9327      2.00000
     16       1.9517      2.00000
     17       2.2780      2.00000
     18       3.0334      2.00000
     19       3.1254      2.00000
     20       3.5702      2.00000
     21       4.8489      0.00000
     22       4.8976      0.00000
     23       5.4277      0.00000
     24       6.1306      0.00000
     25       6.2366      0.00000
     26       6.6715      0.00000
     27       6.9857      0.00000
     28       7.1327      0.00000
     29       7.1830      0.00000
     30       8.0537      0.00000
     31       8.0804      0.00000
     32       9.3755      0.00000

 k-point     4 :       0.5000    0.0000    0.0000
  band No.  band energies     occupation 
      1     -10.0387      2.00000
      2     -10.0387      2.00000
      3      -9.7550      2.00000
      4      -9.7550      2.00000
      5      -5.1325      2.00000
      6      -5.1325      2.00000
      7      -4.0669      2.00000
      8      -4.0669      2.00000
      9      -0.3019      2.00000
     10      -0.3019      2.00000
     11       1.6962      2.00000
     12       1.6962      2.00000
     13       1.9500      2.00000
     14       1.9500      2.00000
     15       2.0163      2.00000
     16       2.0163      2.00000
     17       2.6958      2.00000
     18       2.6958      2.00000
     19       3.3904      2.00000
     20       3.3904      2.00000
     21       5.1927      0.00000
     22       5.1927      0.00000
     23       5.5991      0.00000
     24       5.5991      0.00000
     25       6.0676      0.00000
     26       6.0676      0.00000
     27       6.2612      0.00000
     28       6.2612      0.00000
     29       7.3076      0.00000
     30       7.3076      0.00000
     31       9.0945      0.00000
     32       9.0945      0.00000

 k-point     5 :       0.0000    0.1667    0.0000
  band No.  band energies     occupation 
      1     -10.6852      2.00000
      2     -10.3797      2.00000
      3      -9.4595      2.00000
      4      -9.0199      2.00000
      5      -4.6704      2.00000
      6      -4.1594      2.00000
      7      -2.6704      2.00000
      8      -2.4824      2.00000
      9      -1.5224      2.00000
     10      -0.1682      2.00000
     11      -0.1080      2.00000
     12      -0.0066      2.00000
     13       0.4577      2.00000
     14       0.4709      2.00000
     15       1.5436      2.00000
     16       1.6102      2.00000
     17       1.7715      2.00000
     18       2.6568      2.00000
     19       2.6867      2.00000
     20       3.4267      2.00000
     21       4.2784      0.00000
     22       5.6550      0.00000
     23       6.2643      0.00000
     24       6.2976      0.00000
     25       7.0459      0.00000
     26       7.3046      0.00000
     27       7.4026      0.00000
     28       7.5354      0.00000
     29       7.8629      0.00000
     30       8.6645      0.00000
     31       8.6845      0.00000
     32       8.8157      0.00000

 k-point     6 :       0.1667    0.1667    0.0000
  band No.  band energies     occupation 
      1     -10.5717      2.00000
      2     -10.2740      2.00000
      3      -9.4701      2.00000
      4      -9.0723      2.00000
      5      -4.9106      2.00000
      6      -4.1905      2.00000
      7      -3.2626      2.00000
      8      -2.7476      2.00000
      9      -1.3581      2.00000
     10      -0.5720      2.00000
     11      -0.2919      2.00000
     12       0.3473      2.00000
     13       0.9796      2.00000
     14       1.1452      2.00000
     15       1.3620      2.00000
     16       1.5622      2.00000
     17       2.2576      2.00000
     18       2.3402      2.00000
     19       2.9375      2.00000
     20       3.3413      2.00000
     21       4.4308      0.00000
     22       5.5120      0.00000
     23       5.8937      0.00000
     24       6.0648      0.00000
     25       6.6949      0.00000
     26       7.0971      0.00000
     27       7.5349      0.00000
     28       7.7349      0.00000
     29       8.1945      0.00000
     30       8.2271      0.00000
     31       8.4991      0.00000
     32       9.2561      0.00000

 k-point     7 :      -0.1667    0.1667    0.0000
  band No.  band energies     occupation 
      1     -10.5717      2.00000
      2     -10.2740      2.00000
      3      -9.4701      2.00000
      4      -9.0723      2.00000
      5      -4.9106      2.00000
      6      -4.1905      2.00000
      7      -3.2626      2.00000
      8      -2.7476      2.00000
      9      -1.3581      2.00000
     10      -0.5720      2.00000
     11      -0.2919      2.00000
     12       0.3473      2.00000
     13       0.9796      2.00000
     14       1.1452      2.00000
     15       1.3620      2.00000
     16       1.5622      2.00000
     17       2.2576      2.00000
     18       2.3402      2.00000
     19       2.9375      2.00000
     20       3.3413      2.00000
     21       4.4308      0.00000
     22       5.5120      0.00000
     23       5.8937      0.00000
     24       6.0648      0.00000
     25       6.6949      0.00000
     26       7.0971      0.00000
     27       7.5349      0.00000
     28       7.7349      0.00000
     29       8.1945      0.00000
     30       8.2271      0.00000
     31       8.4991      0.00000
     32       9.2561      0.00000

 k-point     8 :       0.3333    0.1667    0.0000
  band No.  band energies     occupation 
      1     -10.2630      2.00000
      2      -9.9858      2.00000
      3      -9.5739      2.00000
      4      -9.2647      2.00000
      5      -5.1738      2.00000
      6      -4.2463      2.00000
      7      -4.2273      2.00000
      8      -3.3899      2.00000
      9      -0.8783      2.00000
     10      -0.4965      2.00000
     11      -0.1900      2.00000
     12       0.5960      2.00000
     13       0.7098      2.00000
     14       1.0746      2.00000
     15       1.5244      2.00000
     16       2.1163      2.00000
     17       2.4475      2.00000
     18       2.5479      2.00000
     19       2.9821      2.00000
     20       3.1522      2.00000
     21       4.7773      0.00000
     22       5.5878      0.00000
     23       6.0010      0.00000
     24       6.1977      0.00000
     25       6.3808      0.00000
     26       6.6493      0.00000
     27       7.3512      0.00000
     28       8.0453      0.00000
     29       8.0522      0.00000
     30       8.2291      0.00000
     31       8.6755      0.00000
     32       9.2332      0.00000

 k-point     9 :      -0.3333    0.1667    0.0000
  band No.  band energies     occupation 
      1     -10.2630      2.00000
      2      -9.9858      2.00000
      3      -9.5739      2.00000
      4      -9.2647      2.00000
      5      -5.1738      2.00000
      6      -4.2463      2.00000
      7      -4.2273      2.00000
      8      -3.3899      2.00000
      9      -0.8783      2.00000
     10      -0.4965      2.00000
     11      -0.1900      2.00000
     12       0.5960      2.00000
     13       0.7098      2.00000
     14       1.0746      2.00000
     15       1.5244      2.00000
     16       2.1163      2.00000
     17       2.4475      2.00000
     18       2.5479      2.00000
     19       2.9821      2.00000
     20       3.1522      2.00000
     21       4.7773      0.00000
     22       5.5878      0.00000
     23       6.0010      0.00000
     24       6.1977      0.00000
     25       6.3808      0.00000
     26       6.6493      0.00000
     27       7.3512      0.00000
     28       8.0453      0.00000
     29       8.0522      0.00000
     30       8.2291      0.00000
     31       8.6755      0.00000
     32       9.2332      0.00000

 k-point    10 :       0.5000    0.1667    0.0000
  band No.  band energies     occupation 
      1      -9.8689      2.00000
      2      -9.8689      2.00000
      3      -9.6046      2.00000
      4      -9.6046      2.00000
      5      -4.9695      2.00000
      6      -4.9695      2.00000
      7      -3.9766      2.00000
      8      -3.9766      2.00000
      9      -0.2807      2.00000
     10      -0.2807      2.00000
     11       0.1647      2.00000
     12       0.1647      2.00000
     13       0.4862      2.00000
     14       0.4862      2.00000
     15       1.8889      2.00000
     16       1.8889      2.00000
     17       2.6901      2.00000
     18       2.6901      2.00000
     19       3.0917      2.00000
     20       3.0917      2.00000
     21       5.0673      0.00000
     22       5.0673      0.00000
     23       6.3385      0.00000
     24       6.3385      0.00000
     25       7.0104      0.00000
     26       7.0104      0.00000
     27       7.4595      0.00000
     28       7.4595      0.00000
     29       7.9812      0.00000
     30       7.9812      0.00000
     31       8.8860      0.00000
     32       8.8860      0.00000

 k-point    11 :       0.0000    0.3333    0.0000
  band No.  band energies     occupation 
      1     -10.0922      2.00000
      2      -9.8459      2.00000
      3      -9.1789      2.00000
      4      -8.9482      2.00000
      5      -5.0609      2.00000
      6      -4.6209      2.00000
      7      -3.8582      2.00000
      8      -3.5031      2.00000
      9      -0.8944      2.00000
     10      -0.1366      2.00000
     11       0.0943      2.00000
     12       0.4700      2.00000
     13       0.5937      2.00000
     14       0.7638      2.00000
     15       1.2321      2.00000
     16       1.7014      2.00000
     17       1.8259      2.00000
     18       2.4939      2.00000
     19       2.6178      2.00000
     20       2.6912      2.00000
     21       4.2858      0.00000
     22       4.7339      0.00000
     23       4.9440      0.00000
     24       5.4443      0.00000
     25       5.6479      0.00000
     26       6.1470      0.00000
     27       6.2708      0.00000
     28       6.9759      0.00000
     29       7.2803      0.00000
     30       7.4724      0.00000
     31       7.9438      0.00000
     32       8.5822      0.00000

 k-point    12 :       0.1667    0.3333    0.0000
  band No.  band energies     occupation 
      1      -9.9984      2.00000
      2      -9.7619      2.00000
      3      -9.1855      2.00000
      4      -8.9695      2.00000
      5      -5.0359      2.00000
      6      -4.5160      2.00000
      7      -3.8817      2.00000
      8      -3.6274      2.00000
      9      -0.9806      2.00000
     10      -0.7759      2.00000
     11      -0.6424      2.00000
     12       0.0166      2.00000
     13       0.7755      2.00000
     14       1.1544      2.00000
     15       1.2503      2.00000
     16       1.4967      2.00000
     17       1.6633      2.00000
     18       2.4100      2.00000
     19       2.4916      2.00000
     20       2.5272      2.00000
     21       4.4518      0.00000
     22       5.0543      0.00000
     23       5.1829      0.00000
     24       5.4524      0.00000
     25       6.0926      0.00000
     26       6.6871      0.00000
     27       7.1849      0.00000
     28       7.3919      0.00000
     29       7.7112      0.00000
     30       7.7143      0.00000
     31       8.5320      0.00000
     32       8.8750      0.00000

 k-point    13 :      -0.1667    0.3333    0.0000
  band No.  band energies     occupation 
      1      -9.9984      2.00000
      2      -9.7619      2.00000
      3      -9.1855      2.00000
      4      -8.9695      2.00000
      5      -5.0359      2.00000
      6      -4.5160      2.00000
      7      -3.8817      2.00000
      8      -3.6274      2.00000
      9      -0.9806      2.00000
     10      -0.7759      2.00000
     11      -0.6424      2.00000
     12       0.0166      2.00000
     13       0.7755      2.00000
     14       1.1544      2.00000
     15       1.2503      2.00000
     16       1.4967      2.00000
     17       1.6633      2.00000
     18       2.4100      2.00000
     19       2.4916      2.00000
     20       2.5272      2.00000
     21       4.4518      0.00000
     22       5.0543      0.00000
     23       5.1829      0.00000
     24       5.4524      0.00000
     25       6.0926      0.00000
     26       6.6871      0.00000
     27       7.1849      0.00000
     28       7.3919      0.00000
     29       7.7112      0.00000
     30       7.7143      0.00000
     31       8.5320      0.00000
     32       8.8750      0.00000

 k-point    14 :       0.3333    0.3333    0.0000
  band No.  band energies     occupation 
      1      -9.7514      2.00000
      2      -9.5413      2.00000
      3      -9.2537      2.00000
      4      -9.0658      2.00000
      5      -4.9280      2.00000
      6      -4.2662      2.00000
      7      -4.1804      2.00000
      8      -3.8020      2.00000
      9      -1.5288      2.00000
     10      -1.0984      2.00000
     11      -0.7768      2.00000
     12      -0.4043      2.00000
     13      -0.0579      2.00000
     14       0.6306      2.00000
     15       0.8333      2.00000
     16       1.2527      2.00000
     17       1.5922      2.00000
     18       1.9925      2.00000
     19       2.3624      2.00000
     20       2.6195      2.00000
     21       4.5095      0.00000
     22       6.1632      0.00000
     23       6.5020      0.00000
     24       6.7079      0.00000
     25       6.7508      0.00000
     26       7.1675      0.00000
     27       7.6792      0.00000
     28       8.2571      0.00000
     29       8.6260      0.00000
     30       8.6519      0.00000
     31       8.8180      0.00000
     32       9.8660      0.00000

 k-point    15 :      -0.3333    0.3333    0.0000
  band No.  band energies     occupation 
      1      -9.7514      2.00000
      2      -9.5413      2.00000
      3      -9.2537      2.00000
      4      -9.0658      2.00000
      5      -4.9280      2.00000
      6      -4.2662      2.00000
      7      -4.1804      2.00000
      8      -3.8020      2.00000
      9      -1.5288      2.00000
     10      -1.0984      2.00000
     11      -0.7768      2.00000
     12      -0.4043      2.00000
     13      -0.0579      2.00000
     14       0.6306      2.00000
     15       0.8333      2.00000
     16       1.2527      2.00000
     17       1.5922      2.00000
     18       1.9925      2.00000
     19       2.3624      2.00000
     20       2.6195      2.00000
     21       4.5095      0.00000
     22       6.1632      0.00000
     23       6.5020      0.00000
     24       6.7079      0.00000
     25       6.7508      0.00000
     26       7.1675      0.00000
     27       7.6792      0.00000
     28       8.2571      0.00000
     29       8.6260      0.00000
     30       8.6519      0.00000
     31       8.8180      0.00000
     32       9.8660      0.00000

 k-point    16 :       0.5000    0.3333    0.0000
  band No.  band energies     occupation 
      1      -9.4569      2.00000
      2      -9.4569      2.00000
      3      -9.2731      2.00000
      4      -9.2731      2.00000
      5      -4.6404      2.00000
      6      -4.6404      2.00000
      7      -3.9980      2.00000
      8      -3.9980      2.00000
      9      -1.3943      2.00000
     10      -1.3943      2.00000
     11      -0.8338      2.00000
     12      -0.8338      2.00000
     13       0.0885      2.00000
     14       0.0885      2.00000
     15       0.9533      2.00000
     16       0.9533      2.00000
     17       1.4384      2.00000
     18       1.4384      2.00000
     19       2.4731      2.00000
     20       2.4731      2.00000
     21       5.4715      0.00000
     22       5.4715      0.00000
     23       7.3409      0.00000
     24       7.3409      0.00000
     25       7.8384      0.00000
     26       7.8384      0.00000
     27       8.2608      0.00000
     28       8.2608      0.00000
     29       8.7148      0.00000
     30       8.7148      0.00000
     31       9.7979      0.00000
     32       9.7998      0.00000

 k-point    17 :       0.0000    0.5000    0.0000
  band No.  band energies     occupation 
      1      -9.3509      2.00000
      2      -9.3509      2.00000
      3      -9.2732      2.00000
      4      -9.2732      2.00000
      5      -4.9446      2.00000
      6      -4.9446      2.00000
      7      -4.4472      2.00000
      8      -4.4472      2.00000
      9      -0.0822      2.00000
     10      -0.0822      2.00000
     11       0.5418      2.00000
     12       0.5418      2.00000
     13       0.9741      2.00000
     14       0.9741      2.00000
     15       1.5028      2.00000
     16       1.5028      2.00000
     17       1.9168      2.00000
     18       1.9168      2.00000
     19       2.2560      2.00000
     20       2.2560      2.00000
     21       4.4955      0.00000
     22       4.4955      0.00000
     23       4.6658      0.00000
     24       4.6658      0.00000
     25       5.3930      0.00000
     26       5.3930      0.00000
     27       5.8493      0.00000
     28       5.8493      0.00000
     29       6.8138      0.00000
     30       6.8138      0.00000
     31       8.0479      0.00000
     32       8.0479      0.00000

 k-point    18 :       0.1667    0.5000    0.0000
  band No.  band energies     occupation 
      1      -9.3058      2.00000
      2      -9.3058      2.00000
      3      -9.2373      2.00000
      4      -9.2373      2.00000
      5      -4.8391      2.00000
      6      -4.8391      2.00000
      7      -4.4064      2.00000
      8      -4.4064      2.00000
      9      -0.4454      2.00000
     10      -0.4454      2.00000
     11      -0.0520      2.00000
     12      -0.0520      2.00000
     13       0.4977      2.00000
     14       0.4977      2.00000
     15       1.0872      2.00000
     16       1.0872      2.00000
     17       1.7394      2.00000
     18       1.7394      2.00000
     19       2.5289      2.00000
     20       2.5289      2.00000
     21       4.4268      0.00000
     22       4.4268      0.00000
     23       5.4765      0.00000
     24       5.4765      0.00000
     25       6.4053      0.00000
     26       6.4053      0.00000
     27       6.7849      0.00000
     28       6.7849      0.00000
     29       7.4577      0.00000
     30       7.4577      0.00000
     31       7.7831      0.00000
     32       7.7831      0.00000

 k-point    19 :       0.3333    0.5000    0.0000
  band No.  band energies     occupation 
      1      -9.2082      2.00000
      2      -9.2082      2.00000
      3      -9.1657      2.00000
      4      -9.1657      2.00000
      5      -4.5892      2.00000
      6      -4.5892      2.00000
      7      -4.3405      2.00000
      8      -4.3405      2.00000
      9      -1.1954      2.00000
     10      -1.1954      2.00000
     11      -0.7029      2.00000
     12      -0.7029      2.00000
     13      -0.1760      2.00000
     14      -0.1760      2.00000
     15       0.5385      2.00000
     16       0.5385      2.00000
     17       1.3747      2.00000
     18       1.3747      2.00000
     19       2.3026      2.00000
     20       2.3026      2.00000
     21       5.4945      0.00000
     22       5.4945      0.00000
     23       6.8778      0.00000
     24       6.8778      0.00000
     25       7.4291      0.00000
     26       7.4291      0.00000
     27       7.7515      0.00000
     28       7.7515      0.00000
     29       8.1258      0.00000
     30       8.1258      0.00000
     31       9.4100      0.00000
     32       9.4100      0.00000

 k-point    20 :       0.5000    0.5000    0.0000
  band No.  band energies     occupation 
      1      -9.1508      2.00000
      2      -9.1508      2.00000
      3      -9.1344      2.00000
      4      -9.1344      2.00000
      5      -4.4205      2.00000
      6      -4.4205      2.00000
      7      -4.3362      2.00000
      8      -4.3362      2.00000
      9      -1.4691      2.00000
     10      -1.4691      2.00000
     11      -1.0576      2.00000
     12      -1.0576      2.00000
     13      -0.3354      2.00000
     14      -0.3354      2.00000
     15       0.0803      2.00000
     16       0.0803      2.00000
     17       1.5035      2.00000
     18       1.5035      2.00000
[...]
     32       7.7596      0.00000

 k-point    32 :       0.1667    0.3333    0.5000
  band No.  band energies     occupation 
      1      -9.8977      2.00000
      2      -9.8977      2.00000
      3      -9.0591      2.00000
      4      -9.0591      2.00000
      5      -4.8104      2.00000
      6      -4.8104      2.00000
      7      -3.7477      2.00000
      8      -3.7477      2.00000
      9      -0.8836      2.00000
     10      -0.8836      2.00000
     11      -0.0674      2.00000
     12      -0.0674      2.00000
     13       0.6729      2.00000
     14       0.6729      2.00000
     15       1.4664      2.00000
     16       1.4664      2.00000
     17       1.7127      2.00000
     18       1.7127      2.00000
     19       2.6504      2.00000
     20       2.6504      2.00000
     21       5.1732      0.00000
     22       5.1732      0.00000
     23       5.3467      0.00000
     24       5.3467      0.00000
     25       6.5019      0.00000
     26       6.5019      0.00000
     27       6.8941      0.00000
     28       6.8941      0.00000
     29       7.5923      0.00000
     30       7.5923      0.00000
     31       8.4793      0.00000
     32       8.4793      0.00000

 k-point    33 :      -0.1667    0.3333    0.5000
  band No.  band energies     occupation 
      1      -9.8977      2.00000
      2      -9.8977      2.00000
      3      -9.0591      2.00000
      4      -9.0591      2.00000
      5      -4.8104      2.00000
      6      -4.8104      2.00000
      7      -3.7477      2.00000
      8      -3.7477      2.00000
      9      -0.8836      2.00000
     10      -0.8836      2.00000
     11      -0.0674      2.00000
     12      -0.0674      2.00000
     13       0.6729      2.00000
     14       0.6729      2.00000
     15       1.4664      2.00000
     16       1.4664      2.00000
     17       1.7127      2.00000
     18       1.7127      2.00000
     19       2.6504      2.00000
     20       2.6504      2.00000
     21       5.1732      0.00000
     22       5.1732      0.00000
     23       5.3467      0.00000
     24       5.3467      0.00000
     25       6.5019      0.00000
     26       6.5019      0.00000
     27       6.8941      0.00000
     28       6.8941      0.00000
     29       7.5923      0.00000
     30       7.5923      0.00000
     31       8.4793      0.00000
     32       8.4793      0.00000

 k-point    34 :       0.3333    0.3333    0.5000
  band No.  band energies     occupation 
      1      -9.6665      2.00000
      2      -9.6665      2.00000
      3      -9.1399      2.00000
      4      -9.1399      2.00000
      5      -4.6808      2.00000
      6      -4.6808      2.00000
      7      -3.9264      2.00000
      8      -3.9264      2.00000
      9      -1.3335      2.00000
     10      -1.3335      2.00000
     11      -0.5438      2.00000
     12      -0.5438      2.00000
     13       0.3013      2.00000
     14       0.3013      2.00000
     15       1.0354      2.00000
     16       1.0354      2.00000
     17       1.6733      2.00000
     18       1.6733      2.00000
     19       2.4872      2.00000
     20       2.4872      2.00000
     21       5.7241      0.00000
     22       5.7241      0.00000
     23       6.3856      0.00000
     24       6.3856      0.00000
     25       6.6867      0.00000
     26       6.6867      0.00000
     27       7.8265      0.00000
     28       7.8265      0.00000
     29       8.3780      0.00000
     30       8.3780      0.00000
     31       9.8717      0.00000
     32       9.8717      0.00000

 k-point    35 :      -0.3333    0.3333    0.5000
  band No.  band energies     occupation 
      1      -9.6665      2.00000
      2      -9.6665      2.00000
      3      -9.1399      2.00000
      4      -9.1399      2.00000
      5      -4.6808      2.00000
      6      -4.6808      2.00000
      7      -3.9264      2.00000
      8      -3.9264      2.00000
      9      -1.3335      2.00000
     10      -1.3335      2.00000
     11      -0.5438      2.00000
     12      -0.5438      2.00000
     13       0.3013      2.00000
     14       0.3013      2.00000
     15       1.0354      2.00000
     16       1.0354      2.00000
     17       1.6733      2.00000
     18       1.6733      2.00000
     19       2.4872      2.00000
     20       2.4872      2.00000
     21       5.7241      0.00000
     22       5.7241      0.00000
     23       6.3856      0.00000
     24       6.3856      0.00000
     25       6.6867      0.00000
     26       6.6867      0.00000
     27       7.8265      0.00000
     28       7.8265      0.00000
     29       8.3780      0.00000
     30       8.3780      0.00000
     31       9.8717      0.00000
     32       9.8717      0.00000

 k-point    36 :       0.5000    0.3333    0.5000
  band No.  band energies     occupation 
      1      -9.4534      2.00000
      2      -9.4534      2.00000
      3      -9.2773      2.00000
      4      -9.2773      2.00000
      5      -4.5985      2.00000
      6      -4.5985      2.00000
      7      -4.0551      2.00000
      8      -4.0551      2.00000
      9      -1.1816      2.00000
     10      -1.1816      2.00000
     11      -1.1400      2.00000
     12      -1.1400      2.00000
     13       0.4710      2.00000
     14       0.4710      2.00000
     15       0.5794      2.00000
     16       0.5794      2.00000
     17       1.8324      2.00000
     18       1.8324      2.00000
     19       2.0970      2.00000
     20       2.0970      2.00000
     21       6.0074      0.00000
     22       6.0074      0.00000
     23       6.7059      0.00000
     24       6.7059      0.00000
     25       7.6898      0.00000
     26       7.6898      0.00000
     27       7.7897      0.00000
     28       7.7897      0.00000
     29       9.5457      0.00000
     30       9.5457      0.00000
     31       9.5858      0.00000
     32       9.5858      0.00000

 k-point    37 :       0.0000    0.5000    0.5000
  band No.  band energies     occupation 
      1      -9.3129      2.00000
      2      -9.3129      2.00000
      3      -9.3129      2.00000
      4      -9.3129      2.00000
      5      -4.7118      2.00000
      6      -4.7118      2.00000
      7      -4.7118      2.00000
      8      -4.7118      2.00000
      9       0.3221      2.00000
     10       0.3221      2.00000
     11       0.3221      2.00000
     12       0.3221      2.00000
     13       1.2451      2.00000
     14       1.2451      2.00000
     15       1.2451      2.00000
     16       1.2451      2.00000
     17       1.8598      2.00000
     18       1.8598      2.00000
     19       1.8598      2.00000
     20       1.8598      2.00000
     21       4.8599      0.00000
     22       4.8599      0.00000
     23       4.8599      0.00000
     24       4.8599      0.00000
     25       5.5838      0.00000
     26       5.5838      0.00000
     27       5.5838      0.00000
     28       5.5838      0.00000
     29       7.2029      0.00000
     30       7.2029      0.00000
     31       7.2029      0.00000
     32       7.2029      0.00000

 k-point    38 :       0.1667    0.5000    0.5000
  band No.  band energies     occupation 
      1      -9.2722      2.00000
      2      -9.2722      2.00000
      3      -9.2722      2.00000
      4      -9.2722      2.00000
      5      -4.6348      2.00000
      6      -4.6348      2.00000
      7      -4.6348      2.00000
      8      -4.6348      2.00000
      9      -0.2362      2.00000
     10      -0.2362      2.00000
     11      -0.2362      2.00000
     12      -0.2362      2.00000
     13       0.8454      2.00000
     14       0.8454      2.00000
     15       0.8454      2.00000
     16       0.8454      2.00000
     17       1.9408      2.00000
     18       1.9408      2.00000
     19       1.9408      2.00000
     20       1.9408      2.00000
     21       5.2245      0.00000
     22       5.2245      0.00000
     23       5.2245      0.00000
     24       5.2245      0.00000
     25       6.6365      0.00000
     26       6.6365      0.00000
     27       6.6365      0.00000
     28       6.6365      0.00000
     29       7.2733      0.00000
     30       7.2733      0.00000
     31       7.2733      0.00000
     32       7.2733      0.00000

 k-point    39 :       0.3333    0.5000    0.5000
  band No.  band energies     occupation 
      1      -9.1871      2.00000
      2      -9.1871      2.00000
      3      -9.1871      2.00000
      4      -9.1871      2.00000
      5      -4.4700      2.00000
      6      -4.4700      2.00000
      7      -4.4700      2.00000
      8      -4.4700      2.00000
      9      -0.9301      2.00000
     10      -0.9301      2.00000
     11      -0.9301      2.00000
     12      -0.9301      2.00000
     13       0.0310      2.00000
     14       0.0310      2.00000
     15       0.0310      2.00000
     16       0.0310      2.00000
     17       2.0007      2.00000
     18       2.0007      2.00000
     19       2.0007      2.00000
     20       2.0007      2.00000
     21       6.0842      0.00000
     22       6.0842      0.00000
     23       6.0842      0.00000
     24       6.0842      0.00000
     25       7.2320      0.00000
     26       7.2320      0.00000
     27       7.2320      0.00000
     28       7.2320      0.00000
     29       8.9780      0.00000
     30       8.9780      0.00000
     31       8.9780      0.00000
     32       8.9780      0.00000

 k-point    40 :       0.5000    0.5000    0.5000
  band No.  band energies     occupation 
      1      -9.1426      2.00000
      2      -9.1426      2.00000
      3      -9.1426      2.00000
      4      -9.1426      2.00000
      5      -4.3827      2.00000
      6      -4.3827      2.00000
      7      -4.3827      2.00000
      8      -4.3827      2.00000
      9      -1.1374      2.00000
     10      -1.1374      2.00000
     11      -1.1374      2.00000
     12      -1.1374      2.00000
     13      -0.4169      2.00000
     14      -0.4169      2.00000
     15      -0.4169      2.00000
     16      -0.4169      2.00000
     17       2.0669      2.00000
     18       2.0669      2.00000
     19       2.0669      2.00000
     20       2.0669      2.00000
     21       5.9923      0.00000
     22       5.9923      0.00000
     23       5.9923      0.00000
     24       5.9923      0.00000
     25       8.2081      0.00000
     26       8.2081      0.00000
     27       8.2081      0.00000
     28       8.2081      0.00000
     29      10.0613      0.00000
     30      10.0613      0.00000
     31      10.0613      0.00000
     32      10.0613      0.00000


--------------------------------------------------------------------------------------------------------


 soft charge-density along one line, spin component            1
         0         1         2         3         4         5         6         7         8         9
 total charge-density along one line
 
 pseudopotential strength for first ion, spin component:            1
 14.435  18.007   0.000   0.045   0.043   0.000   0.082   0.077
 18.007  22.477   0.000   0.057   0.054   0.000   0.103   0.097
  0.000   0.000   3.213   0.000   0.000   5.469   0.000   0.000
  0.045   0.057   0.000   3.210  -0.003   0.000   5.463  -0.006
  0.043   0.054   0.000  -0.003   3.211   0.000  -0.006   5.465
  0.000   0.000   5.469   0.000   0.000   9.365   0.000   0.000
  0.082   0.103   0.000   5.463  -0.006   0.000   9.356  -0.009
  0.077   0.097   0.000  -0.006   5.465   0.000  -0.009   9.358
  0.000   0.000   0.007   0.000   0.000   0.014   0.000   0.000
  0.000   0.000   0.012   0.000   0.000   0.021   0.000   0.000
 -0.002  -0.003  -0.000   0.012  -0.004  -0.000   0.022  -0.007
 -0.007  -0.009   0.000   0.013   0.012   0.000   0.024   0.021
 -0.003  -0.003  -0.000  -0.000   0.012  -0.000  -0.000   0.023
 total augmentation occupancy for first ion, spin component:            1
  2.803  -0.747   0.000   0.363   0.385  -0.000  -0.067  -0.078  -0.000   0.000  -0.012  -0.003  -0.007
 -0.747   0.682  -0.000  -0.474  -0.472   0.000   0.075   0.078   0.000  -0.000   0.010   0.000   0.002
  0.000  -0.000   1.315  -0.000   0.000  -0.230   0.000   0.000   0.158   0.041  -0.000   0.000  -0.000
  0.363  -0.474  -0.000   1.300   0.104  -0.000  -0.213  -0.007  -0.000  -0.000   0.095  -0.014   0.006
  0.385  -0.472   0.000   0.104   1.335  -0.000  -0.007  -0.225  -0.000   0.000  -0.106   0.049   0.009
 -0.000   0.000  -0.230  -0.000  -0.000   0.045  -0.000  -0.000  -0.028  -0.007  -0.000  -0.000   0.000
 -0.067   0.075   0.000  -0.213  -0.007  -0.000   0.040  -0.000   0.000   0.000  -0.017   0.002  -0.001
 -0.078   0.078   0.000  -0.007  -0.225  -0.000  -0.000   0.043   0.000  -0.000   0.018  -0.008  -0.002
 -0.000   0.000   0.158  -0.000  -0.000  -0.028   0.000   0.000   0.035   0.005  -0.000   0.000  -0.000
  0.000  -0.000   0.041  -0.000   0.000  -0.007   0.000  -0.000   0.005   0.011   0.000  -0.000   0.000
 -0.012   0.010  -0.000   0.095  -0.106  -0.000  -0.017   0.018  -0.000   0.000   0.031  -0.008   0.001
 -0.003   0.000   0.000  -0.014   0.049  -0.000   0.002  -0.008   0.000  -0.000  -0.008   0.013  -0.001
 -0.007   0.002  -0.000   0.006   0.009   0.000  -0.001  -0.002  -0.000   0.000   0.001  -0.001   0.010


------------------------ aborting loop because EDIFF is reached ----------------------------------------


    CHARGE:  cpu time      0.0030: real time      0.0030
    FORLOC:  cpu time      0.0002: real time      0.0002
    FORNL :  cpu time      0.0206: real time      0.0207
    STRESS:  cpu time      0.1802: real time      0.1811
    FORCOR:  cpu time      0.0051: real time      0.0051
    FORHAR:  cpu time      0.0010: real time      0.0010
    MIXING:  cpu time      0.0004: real time      0.0004
    OFIELD:  cpu time      0.0000: real time      0.0000

  FORCE on cell =-STRESS in cart. coord.  units (eV):
  Direction    XX          YY          ZZ          XY          YZ          ZX
  --------------------------------------------------------------------------------------
  Alpha Z    90.33218    90.33218    90.33218
  Ewald    -474.97078  -435.30726  -524.86175     0.00000    -0.00000    -0.00000
  Hartree    43.58592    65.25639    23.19920    -0.00000    -0.00000     0.00000
  E(xc)    -141.72015  -141.75965  -141.89648    -0.00000    -0.00000     0.00000
  Local    -142.11019  -198.77005   -77.19709     0.00000     0.00000    -0.00000
  n-local   242.04299   242.18412   241.99717    -0.00000    -0.00000    -0.00000
  augment   -11.68877   -11.43961   -12.09661     0.00000    -0.00000     0.00000
  Kinetic   396.64955   394.74902   401.10295     0.00000     0.00000    -0.00000
  Fock        0.00000     0.00000     0.00000     0.00000     0.00000     0.00000
  -------------------------------------------------------------------------------------
  Total       2.12075     5.24514     0.57958     0.00000     0.00000    -0.00000
  in kB      18.11403    44.80051     4.95035     0.00001     0.00000    -0.00000
  external pressure =       22.62 kB  Pullay stress =        0.00 kB


 VOLUME and BASIS-vectors are now :
 -----------------------------------------------------------------------------
  energy-cutoff  :      360.00
  volume of cell :      187.58
      direct lattice vectors                 reciprocal lattice vectors
     4.550000000  0.000000000  0.000000000     0.219780220  0.000000000  0.000000000
     0.000000000  3.700000000  0.000000000     0.000000000  0.270270270  0.000000000
     0.000000000  0.000000000 11.142221000     0.000000000  0.000000000  0.089748713

  length of vectors
     4.550000000  3.700000000 11.142221000     0.219780220  0.270270270  0.089748713


 FORCES acting on ions
    electron-ion (+dipol)            ewald-force                    non-local-force                 convergence-correction
 -----------------------------------------------------------------------------------------------
   0.175E+02 0.120E-05 0.273E+02   -.200E+02 -.796E-15 -.301E+02   0.245E+01 -.630E-06 0.285E+01   0.547E-04 -.483E-06 -.119E-02
   0.175E+02 0.109E-05 -.273E+02   -.200E+02 -.680E-15 0.301E+02   0.245E+01 -.563E-06 -.285E+01   0.547E-04 -.223E-06 0.118E-02
   -.175E+02 -.109E-05 -.273E+02   0.200E+02 -.767E-15 0.301E+02   -.245E+01 0.624E-06 -.285E+01   -.549E-04 0.427E-06 0.118E-02
   -.175E+02 -.143E-06 0.273E+02   0.200E+02 -.769E-15 -.301E+02   -.245E+01 0.200E-07 0.285E+01   -.536E-04 -.156E-06 -.118E-02
   -.165E+02 0.896E-06 -.254E+02   0.181E+02 0.102E-15 0.269E+02   -.154E+01 -.101E-05 -.152E+01   -.491E-04 0.226E-06 0.230E-02
   -.165E+02 0.482E-06 0.254E+02   0.181E+02 0.273E-14 -.269E+02   -.154E+01 -.400E-07 0.152E+01   -.489E-04 0.848E-06 -.230E-02
   0.165E+02 -.317E-05 0.254E+02   -.181E+02 0.290E-14 -.269E+02   0.154E+01 0.171E-05 0.152E+01   0.459E-04 0.912E-06 -.229E-02
   0.165E+02 0.169E-06 -.254E+02   -.181E+02 -.299E-16 0.269E+02   0.154E+01 0.127E-06 -.152E+01   0.499E-04 -.739E-06 0.230E-02
 -----------------------------------------------------------------------------------------------
   0.163E-05 -.562E-06 -.128E-05   -.355E-14 0.269E-14 0.711E-14   -.826E-06 0.244E-06 0.197E-05   -.118E-05 0.812E-06 0.885E-07
 
 
 POSITION                                       TOTAL-FORCE (eV/Angst)
 -----------------------------------------------------------------------------------
      0.49141      0.92500      1.36644        -0.038314      0.000000      0.013913
      2.76641      2.77500      4.20467        -0.038314      0.000000     -0.013915
      4.05859      2.77500      9.77578         0.038314     -0.000000     -0.013914
      1.78359      0.92500      6.93755         0.038314     -0.000000      0.013915
      4.51010      0.92500      3.91918         0.064765      0.000000     -0.017006
      2.23510      2.77500      1.65193         0.064766      0.000001      0.017007
      0.03990      2.77500      7.22304        -0.064765     -0.000001      0.017006
      2.31490      0.92500      9.49029        -0.064765     -0.000001     -0.017007
 -----------------------------------------------------------------------------------
    total drift:                               -0.000000      0.000000      0.000001


--------------------------------------------------------------------------------------------------------



  FREE ENERGIE OF THE ION-ELECTRON SYSTEM (eV)
  ---------------------------------------------------
  free  energy   TOTEN  =       -33.69931976 eV

  energy  without entropy=      -33.69931975  energy(sigma->0) =      -33.69931975
 


--------------------------------------------------------------------------------------------------------


    POTLOK:  cpu time      0.1138: real time      0.1141


--------------------------------------------------------------------------------------------------------


     LOOP+:  cpu time      4.8195: real time      4.8613
    4ORBIT:  cpu time      0.0000: real time      0.0000

 total amount of memory used by VASP MPI-rank0    37991. kBytes
=======================================================================

   base      :      30000. kBytes
   nonl-proj :       6217. kBytes
   fftplans  :        320. kBytes
   grid      :        455. kBytes
   one-center:         16. kBytes
   wavefun   :        983. kBytes
 
  
  
 General timing and accounting informations for this job:
 ========================================================
  
                  Total CPU time used (sec):        5.643
                            User time (sec):        5.358
                          System time (sec):        0.284
                         Elapsed time (sec):        7.029
  
                   Maximum memory used (kb):      189004.
                   Average memory used (kb):          N/A
  
                          Minor page faults:        21483
                          Major page faults:           36
                 Voluntary context switches:         5181
