 running  128 mpi-ranks, with    1 threads/rank, on    2 nodes
 distrk:  each k-point on   64 cores,    2 groups
 distr:  one band on    4 cores,   16 groups
 vasp.6.4.2 20Jul23 (build Oct 12 2023 10:31:02) complex                         
 POSCAR found type information on POSCAR GeSe
 POSCAR found :  2 types and       8 ions
 Reading from existing POTCAR
 scaLAPACK will be used
 Reading from existing POTCAR
 LDA part: xc-table for Pade appr. of Perdew
 POSCAR, INCAR and KPOINTS ok, starting setup
 FFT: planning ... GRIDC
 FFT: planning ... GRID_SOFT
 FFT: planning ... GRID
 WAVECAR not read
 entering main loop
       N       E                     dE             d eps       ncg     rms          rms(c)
DAV:   1     0.131264719629E+03    0.13126E+03   -0.12579E+04  2560   0.762E+02
DAV:   2    -0.245855555839E+02   -0.15585E+03   -0.15164E+03  3760   0.136E+02
DAV:   3    -0.337970671919E+02   -0.92115E+01   -0.91913E+01  3120   0.385E+01
DAV:   4    -0.338654942865E+02   -0.68427E-01   -0.68421E-01  3216   0.384E+00
DAV:   5    -0.338659301751E+02   -0.43589E-03   -0.43589E-03  3152   0.299E-01    0.605E+00
DAV:   6    -0.332592313476E+02    0.60670E+00   -0.13524E+00  2848   0.377E+00    0.371E+00
DAV:   7    -0.332512814518E+02    0.79499E-02   -0.28463E-01  3136   0.186E+00    0.162E+00
DAV:   8    -0.332508929655E+02    0.38849E-03   -0.29231E-02  2816   0.665E-01    0.182E-01
DAV:   9    -0.332507016536E+02    0.19131E-03   -0.53510E-03  3104   0.300E-01    0.755E-02
DAV:  10    -0.332508646559E+02   -0.16300E-03   -0.58904E-04  2880   0.107E-01    0.257E-02
DAV:  11    -0.332508907640E+02   -0.26108E-04   -0.45055E-05  2992   0.311E-02    0.145E-02
DAV:  12    -0.332508908049E+02   -0.40919E-07   -0.11503E-05  2944   0.138E-02    0.395E-03
DAV:  13    -0.332508916596E+02   -0.85469E-06   -0.13832E-06  2000   0.437E-03
   1 F= -.33250892E+02 E0= -.33250892E+02  d E =-.102461E-14
