 running  160 mpi-ranks, with    1 threads/rank, on   10 nodes
 distrk:  each k-point on   80 cores,    2 groups
 distr:  one band on    5 cores,   16 groups
 vasp.6.4.2 20Jul23 (build Oct 12 2023 10:31:02) complex                         
 POSCAR found type information on POSCAR GeSe
 POSCAR found :  2 types and       8 ions
 Reading from existing POTCAR
 scaLAPACK will be used
 Reading from existing POTCAR
 LDA part: xc-table for Pade appr. of Perdew
 POSCAR, INCAR and KPOINTS ok, starting setup
 FFT: planning ... GRIDC
 FFT: planning ... GRID_SOFT
 FFT: planning ... GRID
 WAVECAR not read
 entering main loop
       N       E                     dE             d eps       ncg     rms          rms(c)
DAV:   1     0.131373540155E+03    0.13137E+03   -0.12999E+04  2560   0.779E+02
DAV:   2    -0.249729409451E+02   -0.15635E+03   -0.15200E+03  3792   0.141E+02
DAV:   3    -0.333281959803E+02   -0.83553E+01   -0.83366E+01  3040   0.377E+01
DAV:   4    -0.333814000246E+02   -0.53204E-01   -0.53196E-01  3440   0.345E+00
DAV:   5    -0.333817063454E+02   -0.30632E-03   -0.30632E-03  3072   0.254E-01    0.699E+00
DAV:   6    -0.330581999097E+02    0.32351E+00   -0.66974E-01  3152   0.271E+00    0.439E+00
DAV:   7    -0.330405574428E+02    0.17642E-01   -0.19754E-01  2960   0.162E+00    0.121E+00
DAV:   8    -0.330396334151E+02    0.92403E-03   -0.16218E-02  3232   0.494E-01    0.168E-01
DAV:   9    -0.330398529789E+02   -0.21956E-03   -0.28347E-03  3136   0.229E-01    0.586E-02
DAV:  10    -0.330399424077E+02   -0.89429E-04   -0.22657E-04  3136   0.610E-02    0.222E-02
DAV:  11    -0.330399709815E+02   -0.28574E-04   -0.37345E-05  2928   0.272E-02    0.100E-02
DAV:  12    -0.330399716791E+02   -0.69768E-06   -0.51023E-06  3520   0.988E-03
   1 F= -.33039972E+02 E0= -.33039056E+02  d E =-.183231E-02
