 running  160 mpi-ranks, with    1 threads/rank, on   10 nodes
 distrk:  each k-point on   80 cores,    2 groups
 distr:  one band on    5 cores,   16 groups
 vasp.6.4.2 20Jul23 (build Oct 12 2023 10:31:02) complex                         
 POSCAR found type information on POSCAR GeSe
 POSCAR found :  2 types and       8 ions
 Reading from existing POTCAR
 scaLAPACK will be used
 Reading from existing POTCAR
 LDA part: xc-table for Pade appr. of Perdew
 POSCAR, INCAR and KPOINTS ok, starting setup
 FFT: planning ... GRIDC
 FFT: planning ... GRID_SOFT
 FFT: planning ... GRID
 WAVECAR not read
 entering main loop
       N       E                     dE             d eps       ncg     rms          rms(c)
DAV:   1     0.131247405416E+03    0.13125E+03   -0.13000E+04  2560   0.779E+02
DAV:   2    -0.247368906794E+02   -0.15598E+03   -0.15150E+03  3776   0.141E+02
DAV:   3    -0.330630626859E+02   -0.83262E+01   -0.83109E+01  3088   0.376E+01
DAV:   4    -0.331156439258E+02   -0.52581E-01   -0.52575E-01  3472   0.343E+00
DAV:   5    -0.331159555370E+02   -0.31161E-03   -0.31161E-03  3136   0.254E-01    0.716E+00
DAV:   6    -0.328355593756E+02    0.28040E+00   -0.59497E-01  3104   0.252E+00    0.448E+00
DAV:   7    -0.328164697405E+02    0.19090E-01   -0.17533E-01  2944   0.155E+00    0.108E+00
DAV:   8    -0.328159139164E+02    0.55582E-03   -0.12806E-02  3088   0.443E-01    0.164E-01
DAV:   9    -0.328161322019E+02   -0.21829E-03   -0.24826E-03  3152   0.213E-01    0.555E-02
DAV:  10    -0.328162106002E+02   -0.78398E-04   -0.19127E-04  3280   0.546E-02    0.215E-02
DAV:  11    -0.328162372939E+02   -0.26694E-04   -0.33330E-05  2896   0.256E-02    0.822E-03
DAV:  12    -0.328162381660E+02   -0.87202E-06   -0.41620E-06  3504   0.923E-03
   1 F= -.32816238E+02 E0= -.32815230E+02  d E =-.201660E-02
