 vasp.6.4.2 20Jul23 (build Oct 12 2023 10:31:02) complex                         
 executed on              LinuxNV date 2024.11.01  21:04:40
 running  128 mpi-ranks, with    1 threads/rank, on    2 nodes
 distrk:  each k-point on   64 cores,    2 groups
 distr:  one band on NCORE=   8 cores,    8 groups


--------------------------------------------------------------------------------------------------------


 INCAR:
   ENCUT = 520.000000
   SIGMA = 0.050000
   EDIFF = 1.00e-06
   ALGO = N
   GGA = PE
   PREC = Accurate
   SYSTEM = 01_AOPT
   ICHARG = 0
   ISMEAR = 0
   ISPIN = 2
   ISTART = 1
   ISYM = -1
   KPAR = 2
   LORBIT = 11
   NBANDS = 220
   NELM = 100
   NELMIN = 5
   NPAR = 8
   LASPH = .TRUE.
   LCHARG = .FALSE.
   LWAVE = .FALSE.
   LREAL = .FALSE.

 POTCAR:    PAW_PBE Ge 05Jan2001                  
 POTCAR:    PAW_PBE Se 06Sep2000                  
 -----------------------------------------------------------------------------
|                                                                             |
|           W    W    AA    RRRRR   N    N  II  N    N   GGGG   !!!           |
|           W    W   A  A   R    R  NN   N  II  NN   N  G    G  !!!           |
|           W    W  A    A  R    R  N N  N  II  N N  N  G       !!!           |
|           W WW W  AAAAAA  RRRRR   N  N N  II  N  N N  G  GGG   !            |
|           WW  WW  A    A  R   R   N   NN  II  N   NN  G    G                |
|           W    W  A    A  R    R  N    N  II  N    N   GGGG   !!!           |
|                                                                             |
|     You use a magnetic or noncollinear calculation, but did not specify     |
|     the initial magnetic moment with the MAGMOM tag. Note that a            |
|     default of 1 will be used for all atoms. This ferromagnetic setup       |
|     may break the symmetry of the crystal, in particular it may rule        |
|     out finding an antiferromagnetic solution. Thence, we recommend         |
|     setting the initial magnetic moment manually or verifying carefully     |
|     that this magnetic setup is desired.                                    |
|                                                                             |
 -----------------------------------------------------------------------------

 POTCAR:    PAW_PBE Ge 05Jan2001                  
   VRHFIN =Ge: s2p2                                                                                 
   LEXCH  = PE                                                                                      
   EATOM  =   104.9960 eV,    7.7170 Ry                                                             
                                                                                                    
   TITEL  = PAW_PBE Ge 05Jan2001                                                                    
   LULTRA =        F    use ultrasoft PP ?                                                          
   IUNSCR =        1    unscreen: 0-lin 1-nonlin 2-no                                               
   RPACOR =    2.170    partial core radius                                                         
   POMASS =   72.610; ZVAL   =    4.000    mass and valenz                                          
   RCORE  =    2.300    outmost cutoff radius                                                       
   RWIGS  =    2.300; RWIGS  =    1.217    wigner-seitz radius (au A)                               
   ENMAX  =  173.807; ENMIN  =  130.355 eV                                                          
   ICORE  =        3    local potential                                                             
   LCOR   =        T    correct aug charges                                                         
   LPAW   =        T    paw PP                                                                      
   EAUG   =  385.843                                                                                
   DEXC   =    0.000                                                                                
   RMAX   =    2.342    core radius for proj-oper                                                   
   RAUG   =    1.300    factor for augmentation sphere                                              
   RDEP   =    2.318    radius for radial grids                                                     
   RDEPT  =    2.103    core radius for aug-charge                                                  
                                                                                                    
   Atomic configuration                                                                             
   10 entries                                                                                       
     n  l   j            E        occ.                                                              
     1  0  0.50    -10959.8463   2.0000                                                             
     2  0  0.50     -1371.6056   2.0000                                                             
     2  1  1.50     -1198.4791   6.0000                                                             
     3  0  0.50      -168.4733   2.0000                                                             
     3  1  1.50      -115.6019   6.0000                                                             
     3  2  2.50       -29.3106  10.0000                                                             
     4  0  0.50       -11.7309   2.0000                                                             
     4  1  0.50        -3.8952   2.0000                                                             
     4  2  1.50        -4.0817   0.0000                                                             
     4  3  2.50        -4.0817   0.0000                                                             
   Description                                                                                      
     l       E           TYP  RCUT    TYP  RCUT                                                     
     0    -11.7309493     23  2.300                                                                 
     0     -7.4578696     23  2.300                                                                 
     1     -3.8952261     23  2.300                                                                 
     1      6.1178114     23  2.300                                                                 
     2     -4.0817478     23  2.300                                                                 
     3     -1.3605826      7  2.300                                                                 
  local pseudopotential read in
  partial core-charges read in
  partial kinetic energy density read in
  atomic valenz-charges read in
  non local Contribution for L=            0  read in
    real space projection operators read in
  non local Contribution for L=            0  read in
    real space projection operators read in
  non local Contribution for L=            1  read in
    real space projection operators read in
  non local Contribution for L=            1  read in
    real space projection operators read in
  non local Contribution for L=            2  read in
    real space projection operators read in
    PAW grid and wavefunctions read in
 
   number of l-projection  operators is LMAX  =            5
   number of lm-projection operators is LMMAX =           13
 
 POTCAR:    PAW_PBE Se 06Sep2000                  
   VRHFIN =Se: s2p4                                                                                 
   LEXCH  = PE                                                                                      
   EATOM  =   257.1286 eV,   18.8984 Ry                                                             
                                                                                                    
   TITEL  = PAW_PBE Se 06Sep2000                                                                    
   LULTRA =        F    use ultrasoft PP ?                                                          
   IUNSCR =        1    unscreen: 0-lin 1-nonlin 2-no                                               
   RPACOR =    1.900    partial core radius                                                         
   POMASS =   78.960; ZVAL   =    6.000    mass and valenz                                          
   RCORE  =    2.100    outmost cutoff radius                                                       
   RWIGS  =    2.200; RWIGS  =    1.164    wigner-seitz radius (au A)                               
   ENMAX  =  211.555; ENMIN  =  158.666 eV                                                          
   ICORE  =        3    local potential                                                             
   LCOR   =        T    correct aug charges                                                         
   LPAW   =        T    paw PP                                                                      
   EAUG   =  446.842                                                                                
   DEXC   =    0.000                                                                                
   RMAX   =    2.147    core radius for proj-oper                                                   
   RAUG   =    1.300    factor for augmentation sphere                                              
   RDEP   =    2.177    radius for radial grids                                                     
   RDEPT  =    1.928    core radius for aug-charge                                                  
                                                                                                    
   Atomic configuration                                                                             
   10 entries                                                                                       
     n  l   j            E        occ.                                                              
     1  0  0.50    -12503.4787   2.0000                                                             
     2  0  0.50     -1606.9547   2.0000                                                             
     2  1  1.50     -1413.3140   6.0000                                                             
     3  0  0.50      -213.4885   2.0000                                                             
     3  1  1.50      -152.9538   6.0000                                                             
     3  2  2.50       -53.1221  10.0000                                                             
     4  0  0.50       -17.2865   2.0000                                                             
     4  1  0.50        -6.5110   4.0000                                                             
     4  2  2.50        -6.8029   0.0000                                                             
     4  3  2.50        -6.8029   0.0000                                                             
   Description                                                                                      
     l       E           TYP  RCUT    TYP  RCUT                                                     
     0    -17.2865377     23  2.100                                                                 
     0    -15.3094411     23  2.100                                                                 
     1     -6.5110275     23  2.100                                                                 
     1     -0.0695192     23  2.100                                                                 
     2     -6.8029130     23  2.100                                                                 
     3     -1.3605826      7  2.100                                                                 
  local pseudopotential read in
  partial core-charges read in
  partial kinetic energy density read in
  atomic valenz-charges read in
  non local Contribution for L=            0  read in
    real space projection operators read in
  non local Contribution for L=            0  read in
    real space projection operators read in
  non local Contribution for L=            1  read in
    real space projection operators read in
  non local Contribution for L=            1  read in
    real space projection operators read in
  non local Contribution for L=            2  read in
    real space projection operators read in
    PAW grid and wavefunctions read in
 
   number of l-projection  operators is LMAX  =            5
   number of lm-projection operators is LMMAX =           13
 
 -----------------------------------------------------------------------------
|                                                                             |
|               ----> ADVICE to this user running VASP <----                  |
|                                                                             |
|     You have a (more or less) 'large supercell' and for larger cells it     |
|     might be more efficient to use real-space projection operators.         |
|     Therefore, try LREAL= Auto in the INCAR file.                           |
|     Mind: For very accurate calculation, you might also keep the            |
|     reciprocal projection scheme (i.e. LREAL=.FALSE.).                      |
|                                                                             |
 -----------------------------------------------------------------------------

  PAW_PBE Ge 05Jan2001                  :
 energy of atom  1       EATOM= -104.9960
 kinetic energy error for atom=    0.0002 (will be added to EATOM!!)
  PAW_PBE Se 06Sep2000                  :
 energy of atom  2       EATOM= -257.1286
 kinetic energy error for atom=    0.0007 (will be added to EATOM!!)
 
 
 POSCAR: Ge Se
  positions in cartesian coordinates
  No initial velocities read in
 exchange correlation table for  LEXCH =        8
   RHO(1)=    0.500       N(1)  =     2000
   RHO(2)=  100.500       N(2)  =     4000
 


--------------------------------------------------------------------------------------------------------


 ion  position               nearest neighbor table
   1  0.099  0.031  0.134-  54 2.61  45 2.61  67 2.71
   2  0.253  0.867  0.362-  67 2.53  50 2.68  48 2.70
   3  0.573  0.212  0.386-  56 2.61  49 2.65  68 2.75
   4  0.592  0.541  0.383-  72 2.48  69 2.54  56 2.64
   5  0.574  0.856  0.383-  70 2.52  44 2.70  48 2.73
   6  0.928  0.194  0.376-  46 2.56  55 2.57  45 2.70
   7  0.922  0.519  0.370-  71 2.56  47 2.59  72 2.70
   8  0.893  0.874  0.354-  53 2.45  44 2.53  45 2.70
   9  0.073  0.168  0.648-  37 2.61  51 2.67  57 2.68
  10  0.091  0.498  0.644-  58 2.41  38 2.49  39 2.84
  11  0.044  0.818  0.600-  39 2.62  52 2.69  59 2.70
  12  0.404  0.136  0.616-  60 2.54  40 2.58  51 2.70
  13  0.416  0.498  0.628-  61 2.56  38 2.64  41 2.68
  14  0.414  0.836  0.639-  62 2.39  42 2.69  40 2.83
  15  0.744  0.174  0.632-  63 2.51  43 2.61  37 2.78
  16  0.732  0.470  0.636-  64 2.54  43 2.63  41 2.66
  17  0.250  0.536  0.372-  50 2.59  66 2.64  47 2.84
  18  0.244  0.212  0.375-  49 2.48  46 2.66  54 2.68
  19  0.746  0.817  0.626-  52 2.49  65 2.52  42 2.72
  20  0.889  0.658  0.877-  52 2.57  58 2.77  64 2.82
  21  0.916  0.998  0.874-  37 2.60  59 2.71
  22  0.090  0.371  0.122-  66 2.55  46 2.62  71 2.84
  23  0.048  0.713  0.123-  53 2.52  67 2.62  47 2.64
  24  0.425  0.029  0.135-  68 2.52  48 2.54  54 2.83
  25  0.409  0.378  0.119-  69 2.58  49 2.65  66 2.74
  26  0.715  0.049  0.131-  44 2.44  68 2.54  55 2.72
  27  0.746  0.357  0.126-  56 2.55  55 2.63  71 2.71
  28  0.406  0.692  0.156-  50 2.53  69 2.65  70 2.70
  29  0.262  0.328  0.872-  38 2.45  60 2.55
  30  0.243  0.683  0.858-  39 2.59  62 2.62
  31  0.235  0.985  0.876-  51 2.56  59 2.74  62 2.78
  32  0.565  0.318  0.875-  41 2.64  63 2.76  60 2.78
  33  0.580  0.645  0.881-  64 2.59  61 2.62  42 2.71
  34  0.578  0.997  0.856-  40 2.49  63 2.77
  35  0.928  0.334  0.861-  43 2.53  57 2.61  58 2.65
  36  0.735  0.691  0.132-  72 2.55  70 2.65  53 2.82
  37  0.914  0.031  0.643-  21 2.60   9 2.61  15 2.78
  38  0.246  0.374  0.657-  29 2.45  10 2.49  13 2.64
  39  0.210  0.692  0.627-  30 2.59  11 2.62  10 2.84
  40  0.563  0.006  0.632-  34 2.49  12 2.58  14 2.83
  41  0.562  0.341  0.638-  32 2.64  16 2.66  13 2.68
  42  0.571  0.688  0.641-  14 2.69  33 2.71  19 2.72
  43  0.887  0.327  0.637-  35 2.53  15 2.61  16 2.63
  44  0.733  0.998  0.343-  26 2.44   8 2.53   5 2.70
  45  0.054  0.018  0.365-   1 2.61   8 2.70   6 2.70
  46  0.073  0.338  0.355-   6 2.56  22 2.62  18 2.66
  47  0.066  0.668  0.355-   7 2.59  23 2.64  17 2.84
  48  0.417  0.008  0.363-  24 2.54   2 2.70   5 2.73
  49  0.401  0.332  0.353-  18 2.48   3 2.65  25 2.65
  50  0.382  0.696  0.383-  28 2.53  17 2.59   2 2.68
  51  0.225  0.017  0.647-  31 2.56   9 2.67  12 2.70
  52  0.887  0.677  0.646-  19 2.49  20 2.57  11 2.69
  53  0.898  0.848  0.135-   8 2.45  23 2.52  36 2.82
  54  0.251  0.174  0.137-   1 2.61  18 2.68  24 2.83
  55  0.877  0.194  0.151-   6 2.57  27 2.63  26 2.72
  56  0.709  0.367  0.353-  27 2.55   3 2.61   4 2.64
  57  0.072  0.184  0.889-  35 2.61   9 2.68
  58  0.050  0.507  0.857-  10 2.41  35 2.65  20 2.77
  59  0.068  0.846  0.840-  11 2.70  21 2.71  31 2.74
  60  0.396  0.177  0.840-  12 2.54  29 2.55  32 2.78
  61  0.408  0.525  0.858-  13 2.56  33 2.62
  62  0.393  0.829  0.853-  14 2.39  30 2.62  31 2.78
  63  0.724  0.164  0.857-  15 2.51  32 2.76  34 2.77
  64  0.728  0.500  0.863-  16 2.54  33 2.59  20 2.82
  65  0.746  0.840  0.852-  19 2.52
  66  0.237  0.512  0.136-  22 2.55  17 2.64  25 2.74
  67  0.210  0.845  0.141-   2 2.53  23 2.62   1 2.71
  68  0.560  0.179  0.141-  24 2.52  26 2.54   3 2.75
  69  0.543  0.531  0.161-   4 2.54  25 2.58  28 2.65
  70  0.574  0.828  0.157-   5 2.52  36 2.65  28 2.70
  71  0.906  0.503  0.140-   7 2.56  27 2.71  22 2.84
  72  0.754  0.654  0.358-   4 2.48  36 2.55   7 2.70
 

IMPORTANT INFORMATION: All symmetrisations will be switched off!
NOSYMM: (Re-)initialisation of all symmetry stuff for point group C_1.


----------------------------------------------------------------------------------------

                                     Primitive cell                                     

  volume of cell :    1724.7580

  direct lattice vectors                    reciprocal lattice vectors
    12.454559456  0.000004388 -0.000002668     0.080291881 -0.000000028  0.000000022
     0.000004410 12.517366459  0.000002550    -0.000000028  0.079889009 -0.000000021
    -0.000003051  0.000002902 11.063354309     0.000000019 -0.000000018  0.090388500

  length of vectors
    12.454559456 12.517366459 11.063354309     0.080291881  0.079889009  0.090388500

  position of ions in fractional coordinates (direct lattice)
     0.098619367  0.031371921  0.134241764
     0.253317008  0.866628223  0.362498764
     0.572579066  0.212008956  0.386113048
     0.591831782  0.540856025  0.383246489
     0.573749257  0.856161514  0.382851642
     0.928366248  0.194226227  0.375624791
     0.922100138  0.518694514  0.370010096
     0.893082876  0.874127074  0.354273979
     0.073205075  0.167634230  0.648094871
     0.091196311  0.498489399  0.643909647
     0.044445752  0.818380431  0.600120166
     0.403615562  0.136255356  0.615642716
     0.415596010  0.497532899  0.628265464
     0.414126809  0.835561800  0.638770657
     0.743926791  0.174373544  0.631541470
     0.731967375  0.469800491  0.636270242
     0.250299914  0.535815093  0.372011877
     0.243894833  0.211841782  0.375206999
     0.745713831  0.817473646  0.625828699
     0.888570095  0.658473533  0.877373829
     0.915611750  0.997931177  0.874460424
     0.090308520  0.370770356  0.122465721
     0.047641609  0.713341938  0.122566824
     0.425222412  0.029006554  0.135183911
     0.409365350  0.377875959  0.118860353
     0.715200123  0.048625616  0.131188817
     0.746061796  0.357182596  0.126284119
     0.405725672  0.691981104  0.156328207
     0.261599765  0.327818398  0.872366321
     0.242731522  0.682907046  0.857959619
     0.235119085  0.985172479  0.875526483
     0.564923760  0.317832118  0.874870280
     0.579775812  0.644783308  0.881199444
     0.578425582  0.996797102  0.856344430
     0.927582142  0.333681433  0.860847910
     0.735098928  0.691400707  0.132423420
     0.914474798  0.031243349  0.642630790
     0.246213565  0.373519883  0.657290690
     0.209735887  0.691507296  0.626787374
     0.563123294  0.005647786  0.631922621
     0.562198163  0.341153123  0.637596263
     0.571323251  0.687812866  0.641493712
     0.886709772  0.327343814  0.636828044
     0.732951837  0.998178761  0.342925634
     0.053763716  0.018397735  0.364523571
     0.072891647  0.338277241  0.355400711
     0.065905545  0.667865258  0.355012951
     0.417148293  0.008180151  0.363306000
     0.400501149  0.332456879  0.352617025
     0.381774082  0.696264635  0.382935096
     0.225040190  0.016816029  0.647012058
     0.886589064  0.676961750  0.646200556
     0.897701661  0.847863971  0.134857616
     0.250799691  0.174465363  0.136859968
     0.876738715  0.193684928  0.150581495
     0.709266650  0.367083257  0.352635804
     0.071889521  0.184463077  0.889181811
     0.049673694  0.507153530  0.856808629
     0.067963670  0.846488956  0.840489972
     0.395568033  0.176889115  0.839972277
     0.408431478  0.524714964  0.857652064
     0.392728270  0.829115315  0.853469241
     0.723580976  0.164148870  0.856932248
     0.727550448  0.500298910  0.863351824
     0.746469861  0.840065080  0.852128263
     0.236634053  0.512248379  0.135682313
     0.209659350  0.845290069  0.140537239
     0.559834404  0.179335981  0.140692036
     0.543178844  0.530799760  0.160522838
     0.573945942  0.828114080  0.157263310
     0.906373546  0.503296168  0.140247861
     0.753608373  0.654207296  0.358037075

  ion indices of the primitive-cell ions
   primitive index   ion index
                 1           1
                 2           2
                 3           3
                 4           4
                 5           5
                 6           6
                 7           7
                 8           8
                 9           9
                10          10
                11          11
                12          12
                13          13
                14          14
                15          15
                16          16
                17          17
                18          18
                19          19
                20          20
                21          21
                22          22
                23          23
                24          24
                25          25
                26          26
                27          27
                28          28
                29          29
                30          30
                31          31
                32          32
                33          33
                34          34
                35          35
                36          36
                37          37
                38          38
                39          39
                40          40
                41          41
                42          42
                43          43
                44          44
                45          45
                46          46
                47          47
                48          48
                49          49
                50          50
                51          51
                52          52
                53          53
                54          54
                55          55
                56          56
                57          57
                58          58
                59          59
                60          60
                61          61
                62          62
                63          63
                64          64
                65          65
                66          66
                67          67
                68          68
                69          69
                70          70
                71          71
                72          72

----------------------------------------------------------------------------------------

 
 
 KPOINTS: KPOINTS created by Atomic Simulation Env

Automatic generation of k-mesh.
 Grid dimensions read from file:
 generate k-points for:    2    2    2

 Generating k-lattice:

  Cartesian coordinates                     Fractional coordinates (reciprocal lattice)
     0.040145940 -0.000000014  0.000000011     0.500000000  0.000000000 -0.000000000
    -0.000000014  0.039944504 -0.000000010     0.000000000  0.500000000  0.000000000
     0.000000010 -0.000000009  0.045194250     0.000000000 -0.000000000  0.500000000

  Length of vectors
     0.040145940  0.039944504  0.045194250

  Shift w.r.t. Gamma in fractional coordinates (k-lattice)
     0.000000000  0.000000000  0.000000000

 
 Subroutine IBZKPT returns following result:
 ===========================================
 
 Found      8 irreducible k-points:
 
 Following reciprocal coordinates:
            Coordinates               Weight
  0.000000  0.000000  0.000000      1.000000
  0.500000  0.000000  0.000000      1.000000
  0.000000  0.500000  0.000000      1.000000
  0.500000  0.500000  0.000000      1.000000
  0.000000  0.000000  0.500000      1.000000
  0.500000  0.000000  0.500000      1.000000
  0.000000  0.500000  0.500000      1.000000
  0.500000  0.500000  0.500000      1.000000
 
 Following cartesian coordinates:
            Coordinates               Weight
  0.000000  0.000000  0.000000      1.000000
  0.040146 -0.000000  0.000000      1.000000
 -0.000000  0.039945 -0.000000      1.000000
  0.040146  0.039944  0.000000      1.000000
  0.000000 -0.000000  0.045194      1.000000
  0.040146 -0.000000  0.045194      1.000000
 -0.000000  0.039944  0.045194      1.000000
  0.040146  0.039944  0.045194      1.000000
 
 -----------------------------------------------------------------------------
|                                                                             |
|           W    W    AA    RRRRR   N    N  II  N    N   GGGG   !!!           |
|           W    W   A  A   R    R  NN   N  II  NN   N  G    G  !!!           |
|           W    W  A    A  R    R  N N  N  II  N N  N  G       !!!           |
|           W WW W  AAAAAA  RRRRR   N  N N  II  N  N N  G  GGG   !            |
|           WW  WW  A    A  R   R   N   NN  II  N   NN  G    G                |
|           W    W  A    A  R    R  N    N  II  N    N   GGGG   !!!           |
|                                                                             |
|     The number of bands has been changed from the values supplied in        |
|     the INCAR file. This is a result of running the parallel version.       |
|     The orbitals not found in the WAVECAR file will be initialized with     |
|     random numbers, which is usually adequate. For correlated               |
|     calculations, however, you should redo the groundstate calculation.     |
|     I found NBANDS = 220. Now, NBANDS = 224.                                |
|                                                                             |
 -----------------------------------------------------------------------------



--------------------------------------------------------------------------------------------------------




 Dimension of arrays:
   k-points           NKPTS =      8   k-points in BZ     NKDIM =      8   number of bands    NBANDS=    224
   number of dos      NEDOS =    301   number of ions     NIONS =     72
   non local maximal  LDIM  =      5   non local SUM 2l+1 LMDIM =     13
   total plane-waves  NPLWV = 774144
   max r-space proj   IRMAX =      1   max aug-charges    IRDMAX=  24591
   dimension x,y,z NGX =    96 NGY =   96 NGZ =   84
   dimension x,y,z NGXF=   192 NGYF=  192 NGZF=  168
   support grid    NGXF=   192 NGYF=  192 NGZF=  168
   ions per type =              36  36
   NGX,Y,Z   is equivalent  to a cutoff of  12.81, 12.75, 12.62 a.u.
   NGXF,Y,Z  is equivalent  to a cutoff of  25.63, 25.50, 25.24 a.u.

 SYSTEM =  01_AOPT                                 
 POSCAR =  Ge Se                                   

 Startparameter for this run:
   NWRITE =      2    write-flag & timer
   PREC   = accura    normal or accurate (medium, high low for compatibility)
   ISTART =      0    job   : 0-new  1-cont  2-samecut
   ICHARG =      2    charge: 1-file 2-atom 10-const
   ISPIN  =      2    spin polarized calculation?
   LNONCOLLINEAR =      F non collinear calculations
   LSORBIT =      F    spin-orbit coupling
   INIWAV =      1    electr: 0-lowe 1-rand  2-diag
   LASPH  =      T    aspherical Exc in radial PAW
 Electronic Relaxation 1
   ENCUT  =  520.0 eV  38.22 Ry    6.18 a.u.  23.16 23.27 20.57*2*pi/ulx,y,z
   ENINI  =  520.0     initial cutoff
   ENAUG  =  446.8 eV  augmentation charge cutoff
   NELM   =    100;   NELMIN=  5; NELMDL=  0     # of ELM steps 
   EDIFF  = 0.1E-05   stopping-criterion for ELM
   LREAL  =      F    real-space projection
   NLSPLINE    = F    spline interpolate recip. space projectors
   LCOMPAT=      F    compatible to vasp.4.4
   GGA_COMPAT  = T    GGA compatible to vasp.4.4-vasp.4.6
   LMAXPAW     = -100 max onsite density
   LMAXMIX     =    2 max onsite mixed and CHGCAR
   VOSKOWN=      0    Vosko Wilk Nusair interpolation
   ROPT   =    0.00000   0.00000
 Ionic relaxation
   EDIFFG = 0.1E-04   stopping-criterion for IOM
   NSW    =      0    number of steps for IOM
   NBLOCK =      1;   KBLOCK =      1    inner block; outer block 
   IBRION =     -1    ionic relax: 0-MD 1-quasi-New 2-CG
   NFREE  =      0    steps in history (QN), initial steepest desc. (CG)
   ISIF   =      2    stress and relaxation
   IWAVPR =     10    prediction:  0-non 1-charg 2-wave 3-comb
   ISYM   =     -1    0-nonsym 1-usesym 2-fastsym
   LCORR  =      T    Harris-Foulkes like correction to forces

   POTIM  = 0.5000    time-step for ionic-motion
   TEIN   =    0.0    initial temperature
   TEBEG  =    0.0;   TEEND  =   0.0 temperature during run
   SMASS  =  -3.00    Nose mass-parameter (am)
   estimated Nose-frequenzy (Omega)   =  0.10E-29 period in steps = 0.13E+47 mass=  -0.354E-26a.u.
   SCALEE = 1.0000    scale energy and forces
   NPACO  =    256;   APACO  = 10.0  distance and # of slots for P.C.
   PSTRESS=    0.0 pullay stress

  Mass of Ions in am
   POMASS =  72.61 78.96
  Ionic Valenz
   ZVAL   =   4.00  6.00
  Atomic Wigner-Seitz radii
   RWIGS  =  -1.00 -1.00
  virtual crystal weights 
   VCA    =   1.00  1.00
   NELECT =     360.0000    total number of electrons
   NUPDOWN=      -1.0000    fix difference up-down

 DOS related values:
   EMIN   =  10.00;   EMAX   =-10.00  energy-range for DOS
   EFERMI =   0.00;   METHOD = LEGACY      
   ISMEAR =     0;   SIGMA  =   0.05  broadening in eV -4-tet -1-fermi 0-gaus

 Electronic relaxation 2 (details)
   IALGO  =     38    algorithm
   LDIAG  =      T    sub-space diagonalisation (order eigenvalues)
   LSUBROT=      F    optimize rotation matrix (better conditioning)
   TURBO    =      0    0=normal 1=particle mesh
   IRESTART =      0    0=no restart 2=restart with 2 vectors
   NREBOOT  =      0    no. of reboots
   NMIN     =      0    reboot dimension
   EREF     =   0.00    reference energy to select bands
   IMIX   =      4    mixing-type and parameters
     AMIX     =   0.40;   BMIX     =  1.00
     AMIX_MAG =   1.60;   BMIX_MAG =  1.00
     AMIN     =   0.10
     WC   =   100.;   INIMIX=   1;  MIXPRE=   1;  MAXMIX= -45

 Intra band minimization:
   WEIMIN = 0.0000     energy-eigenvalue tresh-hold
   EBREAK =  0.11E-08  absolut break condition
   DEPER  =   0.30     relativ break condition  

   TIME   =   0.40     timestep for ELM

  volume/ion in A,a.u.               =      23.95       161.66
  Fermi-wavevector in a.u.,A,eV,Ry     =   0.971105  1.835123 12.830910  0.943045
  Thomas-Fermi vector in A             =   2.101295
 
 Write flags
   LWAVE        =      F    write WAVECAR
   LDOWNSAMPLE  =      F    k-point downsampling of WAVECAR
   LCHARG       =      F    write CHGCAR
   LVTOT        =      F    write LOCPOT, total local potential
   LVHAR        =      F    write LOCPOT, Hartree potential only
   LELF         =      F    write electronic localiz. function (ELF)
   LORBIT       =     11    0 simple, 1 ext, 2 COOP (PROOUT), +10 PAW based schemes


 Dipole corrections
   LMONO  =      F    monopole corrections only (constant potential shift)
   LDIPOL =      F    correct potential (dipole corrections)
   IDIPOL =      0    1-x, 2-y, 3-z, 4-all directions 
   EPSILON=  1.0000000 bulk dielectric constant

 Exchange correlation treatment:
   GGA     =    PE    GGA type
   LEXCH   =     8    internal setting for exchange type
   LIBXC   =     F    Libxc                    
   VOSKOWN =     0    Vosko Wilk Nusair interpolation
   LHFCALC =     F    Hartree Fock is set to
   LHFONE  =     F    Hartree Fock one center treatment
   AEXX    =    0.0000 exact exchange contribution

 Linear response parameters
   LEPSILON=     F    determine dielectric tensor
   LRPA    =     F    only Hartree local field effects (RPA)
   LNABLA  =     F    use nabla operator in PAW spheres
   LVEL    =     F    velocity operator in full k-point grid
   CSHIFT  =0.1000    complex shift for real part using Kramers Kronig
   OMEGAMAX=  -1.0    maximum frequency
   DEG_THRESHOLD= 0.2000000E-02 threshold for treating states as degnerate
   RTIME   =   -0.100 relaxation time in fs
  (WPLASMAI=    0.000 imaginary part of plasma frequency in eV, 0.658/RTIME)
   DFIELD  = 0.0000000 0.0000000 0.0000000 field for delta impulse in time
 
  Optional k-point grid parameters
   LKPOINTS_OPT  =     F    use optional k-point grid
   KPOINTS_OPT_MODE=     1    mode for optional k-point grid
 
 Orbital magnetization related:
   ORBITALMAG=     F  switch on orbital magnetization
   LCHIMAG   =     F  perturbation theory with respect to B field
   DQ        =  0.001000  dq finite difference perturbation B field
   LLRAUG    =     F  two centre corrections for induced B field
   LBONE     =     F  B-component reconstruction in AE one-centre
   LVGVCALC  =     T  calculate vGv susceptibility
   LVGVAPPL  =     F  apply vGv susceptibility instead of pGv for G=0

 Random number generation:
   RANDOM_GENERATOR = DEFAULT
   PCG_SEED         = not used


--------------------------------------------------------------------------------------------------------


 Static calculation
 charge density and potential will be updated during run
 spin polarized calculation
 Variant of blocked Davidson
 Davidson routine will perform the subspace rotation
 perform sub-space diagonalisation
    after iterative eigenvector-optimisation
 modified Broyden-mixing scheme, WC =      100.0
 initial mixing is a Kerker type mixing with AMIX =  0.4000 and BMIX =      1.0000
 Hartree-type preconditioning will be used
 using additional bands            44
 reciprocal scheme for non local part
 use partial core corrections
 calculate Harris-corrections to forces 
   (improved forces if not selfconsistent)
 use gradient corrections 
 use of overlap-Matrix (Vanderbilt PP)
 Gauss-broadening in eV      SIGMA  =   0.05


--------------------------------------------------------------------------------------------------------


  energy-cutoff  :      520.00
  volume of cell :     1724.76
      direct lattice vectors                 reciprocal lattice vectors
    12.454559456  0.000004388 -0.000002668     0.080291881 -0.000000028  0.000000022
     0.000004410 12.517366459  0.000002550    -0.000000028  0.079889009 -0.000000021
    -0.000003051  0.000002902 11.063354309     0.000000019 -0.000000018  0.090388500

  length of vectors
    12.454559456 12.517366459 11.063354309     0.080291881  0.079889009  0.090388500


 
 k-points in units of 2pi/SCALE and weight: KPOINTS created by Atomic Simulation Env
   0.00000000  0.00000000  0.00000000       0.125
   0.04014594 -0.00000001  0.00000001       0.125
  -0.00000001  0.03994450 -0.00000001       0.125
   0.04014593  0.03994449  0.00000000       0.125
   0.00000001 -0.00000001  0.04519425       0.125
   0.04014595 -0.00000002  0.04519426       0.125
  -0.00000000  0.03994450  0.04519424       0.125
   0.04014594  0.03994448  0.04519425       0.125
 
 k-points in reciprocal lattice and weights: KPOINTS created by Atomic Simulation Env
   0.00000000  0.00000000  0.00000000       0.125
   0.50000000  0.00000000  0.00000000       0.125
   0.00000000  0.50000000  0.00000000       0.125
   0.50000000  0.50000000  0.00000000       0.125
   0.00000000  0.00000000  0.50000000       0.125
   0.50000000  0.00000000  0.50000000       0.125
   0.00000000  0.50000000  0.50000000       0.125
   0.50000000  0.50000000  0.50000000       0.125
 
 position of ions in fractional coordinates (direct lattice) 
   0.09861937  0.03137192  0.13424176
   0.25331701  0.86662822  0.36249876
   0.57257907  0.21200896  0.38611305
   0.59183178  0.54085603  0.38324649
   0.57374926  0.85616151  0.38285164
   0.92836625  0.19422623  0.37562479
   0.92210014  0.51869451  0.37001010
   0.89308288  0.87412707  0.35427398
   0.07320507  0.16763423  0.64809487
   0.09119631  0.49848940  0.64390965
   0.04444575  0.81838043  0.60012017
   0.40361556  0.13625536  0.61564272
   0.41559601  0.49753290  0.62826546
   0.41412681  0.83556180  0.63877066
   0.74392679  0.17437354  0.63154147
   0.73196737  0.46980049  0.63627024
   0.25029991  0.53581509  0.37201188
   0.24389483  0.21184178  0.37520700
   0.74571383  0.81747365  0.62582870
   0.88857009  0.65847353  0.87737383
   0.91561175  0.99793118  0.87446042
   0.09030852  0.37077036  0.12246572
   0.04764161  0.71334194  0.12256682
   0.42522241  0.02900655  0.13518391
   0.40936535  0.37787596  0.11886035
   0.71520012  0.04862562  0.13118882
   0.74606180  0.35718260  0.12628412
   0.40572567  0.69198110  0.15632821
   0.26159976  0.32781840  0.87236632
   0.24273152  0.68290705  0.85795962
   0.23511908  0.98517248  0.87552648
   0.56492376  0.31783212  0.87487028
   0.57977581  0.64478331  0.88119944
   0.57842558  0.99679710  0.85634443
   0.92758214  0.33368143  0.86084791
   0.73509893  0.69140071  0.13242342
   0.91447480  0.03124335  0.64263079
   0.24621356  0.37351988  0.65729069
   0.20973589  0.69150730  0.62678737
   0.56312329  0.00564779  0.63192262
   0.56219816  0.34115312  0.63759626
   0.57132325  0.68781287  0.64149371
   0.88670977  0.32734381  0.63682804
   0.73295184  0.99817876  0.34292563
   0.05376372  0.01839774  0.36452357
   0.07289165  0.33827724  0.35540071
   0.06590554  0.66786526  0.35501295
   0.41714829  0.00818015  0.36330600
   0.40050115  0.33245688  0.35261702
   0.38177408  0.69626464  0.38293510
   0.22504019  0.01681603  0.64701206
   0.88658906  0.67696175  0.64620056
   0.89770166  0.84786397  0.13485762
   0.25079969  0.17446536  0.13685997
   0.87673871  0.19368493  0.15058149
   0.70926665  0.36708326  0.35263580
   0.07188952  0.18446308  0.88918181
   0.04967369  0.50715353  0.85680863
   0.06796367  0.84648896  0.84048997
   0.39556803  0.17688911  0.83997228
   0.40843148  0.52471496  0.85765206
   0.39272827  0.82911531  0.85346924
   0.72358098  0.16414887  0.85693225
   0.72755045  0.50029891  0.86335182
   0.74646986  0.84006508  0.85212826
   0.23663405  0.51224838  0.13568231
   0.20965935  0.84529007  0.14053724
   0.55983440  0.17933598  0.14069204
   0.54317884  0.53079976  0.16052284
   0.57394594  0.82811408  0.15726331
   0.90637355  0.50329617  0.14024786
   0.75360837  0.65420730  0.35803707
 
 position of ions in cartesian coordinates  (Angst):
   1.22826050  0.39269466  1.48516401
   3.15495445 10.84790522  4.01045379
   7.13121978  2.65379742  4.27170446
   7.37100533  6.77009678  4.23999150
   7.14579684 10.71689104  4.23562402
  11.56239234  2.43120603  4.15566817
  11.48435216  6.49269443  4.09355166
  11.12295655 10.94177387  3.91945839
   0.91173572  2.09834129  7.17010342
   1.13581011  6.23977675  7.12380160
   0.55355403 10.24396969  6.63934399
   5.02685274  1.70556178  6.81107277
   5.17606550  6.22780527  6.95072359
   5.15776871 10.45903692  7.06694713
   9.26527930  2.18270265  6.98696550
   9.11633132  5.88066996  7.03928237
   3.11737639  6.70699605  4.11569991
   3.03760249  2.65170338  4.15104785
   9.28753894 10.23262229  6.92376473
  11.06674931  8.24236096  9.70669684
  11.40354271 12.49147680  9.67446561
   1.12475409  4.64106917  1.35488237
   0.59335802  8.92916301  1.35600189
   5.29595753  0.36308793  1.49558644
   5.09846639  4.73001399  1.31499407
   8.90750227  0.60866817  1.45138658
   9.29187218  4.47098909  1.39712487
   5.05313708  8.66178329  1.72951502
   3.25810860  4.10342670  9.65129783
   3.02311457  8.54820131  9.49191234
   2.92830629 12.33176851  9.68626157
   7.03587528  3.97842611  9.67899918
   7.22085248  8.07099405  9.74902177
   7.20403758 12.47727964  9.47404284
  11.55262578  4.17681935  9.52386381
   9.15533595  8.65451963  1.46504701
  11.38937892  0.39109032  7.10964976
   3.06648112  4.67548825  7.27184009
   2.61216921  8.65585297  6.93437199
   7.01345064  0.07069971  6.99118236
   7.00193001  4.27034298  7.05395273
   7.11558047  8.60961007  7.09707246
  11.04357908  4.09748822  7.04545275
   9.12859559 12.49457355  3.79390838
   0.66960236  0.23029249  4.03285333
   0.90783376  4.23434155  3.93192465
   0.82082639  8.35991549  3.92763559
   5.19539714  0.10239683  4.01938191
   4.98806577  4.16148736  3.90112686
   4.75482991  8.71540238  4.23654740
   2.80277453  0.21049526  7.15812308
  11.04207723  8.47378407  7.14914507
  11.18048204 10.61302836  1.49197735
   3.12360001  2.18384838  1.51413010
  10.91939485  2.42442951  1.66593459
   8.83360421  4.59491978  3.90133389
   0.89535041  2.30899483  9.83733370
   0.61866360  6.34822929  9.47917860
   0.84645873 10.59581520  9.29864033
   4.92662381  2.21419005  9.29291031
   5.08683383  6.56805377  9.48850891
   4.89125865 10.37834443  9.44223367
   9.01188039  2.05471722  9.48054357
   9.06131989  6.26243050  9.55156646
   9.29695437 10.51540821  9.42739704
   2.94717473  6.41200210  1.50110218
   2.61121813 10.58080689  1.55481487
   6.97249123  2.24481706  1.55652480
   6.76505506  6.64421796  1.77592094
   7.14824703 10.36581039  1.73986030
  11.28848501  6.29994696  1.55161064
   9.38586208  8.18895681  3.96109067
 


--------------------------------------------------------------------------------------------------------


 k-point   1 :   0.0000 0.0000 0.0000  plane waves:   46429
 k-point   2 :   0.5000 0.0000 0.0000  plane waves:   46438
 k-point   3 :   0.0000 0.5000 0.0000  plane waves:   46430
 k-point   4 :   0.5000 0.5000 0.0000  plane waves:   46512
 k-point   5 :   0.0000 0.0000 0.5000  plane waves:   46494
 k-point   6 :   0.5000 0.0000 0.5000  plane waves:   46420
 k-point   7 :   0.0000 0.5000 0.5000  plane waves:   46468
 k-point   8 :   0.5000 0.5000 0.5000  plane waves:   46416

 maximum and minimum number of plane-waves per node :      5862     5762

 maximum number of plane-waves:     46512
 maximum index in each direction: 
   IXMAX=   23   IYMAX=   23   IZMAX=   20
   IXMIN=  -23   IYMIN=  -23   IZMIN=  -21


 parallel 3D FFT for wavefunctions:
    minimum data exchange during FFTs selected (reduces bandwidth)
 parallel 3D FFT for charge:
    minimum data exchange during FFTs selected (reduces bandwidth)


 total amount of memory used by VASP MPI-rank0   111163. kBytes
=======================================================================

   base      :      30000. kBytes
   nonl-proj :      16467. kBytes
   fftplans  :       6179. kBytes
   grid      :      15593. kBytes
   one-center:        146. kBytes
   wavefun   :      42778. kBytes
 
     INWAV:  cpu time      0.0000: real time      0.0001
 Broyden mixing: mesh for mixing (old mesh)
   NGX = 47   NGY = 47   NGZ = 41
  (NGX  =192   NGY  =192   NGZ  =168)
  gives a total of  90569 points

 initial charge density was supplied:
 charge density of overlapping atoms calculated
 number of electron     360.0000000 magnetization      72.0000000
 keeping initial charge density in first step


--------------------------------------------------------------------------------------------------------


 Maximum index for augmentation-charges           767 (set IRDMAX)


--------------------------------------------------------------------------------------------------------


 First call to EWALD:  gamma=   0.148
 Maximum number of real-space cells 3x 3x 3
 Maximum number of reciprocal cells 3x 3x 3

    FEWALD:  cpu time      0.0024: real time      0.0024


--------------------------------------- Ionic step        1  -------------------------------------------




--------------------------------------- Iteration      1(   1)  ---------------------------------------


    POTLOK:  cpu time      0.1383: real time      0.1392
    SETDIJ:  cpu time      0.5978: real time      0.5994
     EDDAV:  cpu time      8.6204: real time      8.6675
       DOS:  cpu time      0.0015: real time      0.0015
    --------------------------------------------
      LOOP:  cpu time      9.3580: real time      9.4077

 eigenvalue-minimisations  :  7168
 total energy-change (2. order) : 0.1816768E+04  (-0.1417988E+05)
 number of electron     360.0000000 magnetization      72.0000000
 augmentation part      360.0000000 magnetization      72.0000000

 Free energy of the ion-electron system (eV)
  ---------------------------------------------------
  alpha Z        PSCENC =       795.76387631
  Ewald energy   TEWEN  =    -12849.28837694
  -Hartree energ DENC   =     -1119.55560808
  -exchange      EXHF   =         0.00000000
  -V(xc)+E(xc)   XCENC  =      -293.80315648
  PAW double counting   =     10738.42099860    -9719.93139476
  entropy T*S    EENTRO =        -0.02010618
  eigenvalues    EBANDS =      1228.73012780
  atomic energy  EATOM  =     13036.45147835
  Solvation  Ediel_sol  =         0.00000000
  ---------------------------------------------------
  free energy    TOTEN  =      1816.76783862 eV

  energy without entropy =     1816.78794480  energy(sigma->0) =     1816.77789171


--------------------------------------------------------------------------------------------------------




--------------------------------------- Iteration      1(   2)  ---------------------------------------


     EDDAV:  cpu time      9.7953: real time      9.8444
       DOS:  cpu time      0.0013: real time      0.0013
    --------------------------------------------
      LOOP:  cpu time      9.7966: real time      9.8457

 eigenvalue-minimisations  :  8472
 total energy-change (2. order) :-0.1881024E+04  (-0.1805902E+04)
 number of electron     360.0000000 magnetization      72.0000000
 augmentation part      360.0000000 magnetization      72.0000000

 Free energy of the ion-electron system (eV)
  ---------------------------------------------------
  alpha Z        PSCENC =       795.76387631
  Ewald energy   TEWEN  =    -12849.28837694
  -Hartree energ DENC   =     -1119.55560808
  -exchange      EXHF   =         0.00000000
  -V(xc)+E(xc)   XCENC  =      -293.80315648
  PAW double counting   =     10738.42099860    -9719.93139476
  entropy T*S    EENTRO =        -0.01803633
  eigenvalues    EBANDS =      -652.29546680
  atomic energy  EATOM  =     13036.45147835
  Solvation  Ediel_sol  =         0.00000000
  ---------------------------------------------------
  free energy    TOTEN  =       -64.25568613 eV

  energy without entropy =      -64.23764980  energy(sigma->0) =      -64.24666797


--------------------------------------------------------------------------------------------------------




--------------------------------------- Iteration      1(   3)  ---------------------------------------


     EDDAV:  cpu time      9.7412: real time      9.7893
       DOS:  cpu time      0.0012: real time      0.0012
    --------------------------------------------
      LOOP:  cpu time      9.7424: real time      9.7905

 eigenvalue-minimisations  :  8552
 total energy-change (2. order) :-0.2175235E+03  (-0.2114792E+03)
 number of electron     360.0000000 magnetization      72.0000000
 augmentation part      360.0000000 magnetization      72.0000000

 Free energy of the ion-electron system (eV)
  ---------------------------------------------------
  alpha Z        PSCENC =       795.76387631
  Ewald energy   TEWEN  =    -12849.28837694
  -Hartree energ DENC   =     -1119.55560808
  -exchange      EXHF   =         0.00000000
  -V(xc)+E(xc)   XCENC  =      -293.80315648
  PAW double counting   =     10738.42099860    -9719.93139476
  entropy T*S    EENTRO =        -0.00000434
  eigenvalues    EBANDS =      -869.83695679
  atomic energy  EATOM  =     13036.45147835
  Solvation  Ediel_sol  =         0.00000000
  ---------------------------------------------------
  free energy    TOTEN  =      -281.77914413 eV

  energy without entropy =     -281.77913979  energy(sigma->0) =     -281.77914196


--------------------------------------------------------------------------------------------------------




--------------------------------------- Iteration      1(   4)  ---------------------------------------


     EDDAV:  cpu time      9.9460: real time      9.9943
       DOS:  cpu time      0.0008: real time      0.0008
    --------------------------------------------
      LOOP:  cpu time      9.9468: real time      9.9951

 eigenvalue-minimisations  :  8736
 total energy-change (2. order) :-0.7949329E+01  (-0.7858797E+01)
 number of electron     360.0000000 magnetization      72.0000000
 augmentation part      360.0000000 magnetization      72.0000000

 Free energy of the ion-electron system (eV)
  ---------------------------------------------------
  alpha Z        PSCENC =       795.76387631
  Ewald energy   TEWEN  =    -12849.28837694
  -Hartree energ DENC   =     -1119.55560808
  -exchange      EXHF   =         0.00000000
  -V(xc)+E(xc)   XCENC  =      -293.80315648
  PAW double counting   =     10738.42099860    -9719.93139476
  entropy T*S    EENTRO =        -0.00000009
  eigenvalues    EBANDS =      -877.78628960
  atomic energy  EATOM  =     13036.45147835
  Solvation  Ediel_sol  =         0.00000000
  ---------------------------------------------------
  free energy    TOTEN  =      -289.72847269 eV

  energy without entropy =     -289.72847260  energy(sigma->0) =     -289.72847265


--------------------------------------------------------------------------------------------------------




--------------------------------------- Iteration      1(   5)  ---------------------------------------


     EDDAV:  cpu time     10.2640: real time     10.3179
       DOS:  cpu time      0.0009: real time      0.0009
    CHARGE:  cpu time      0.4236: real time      0.4256
    MIXING:  cpu time      0.0071: real time      0.0071
    --------------------------------------------
      LOOP:  cpu time     10.6956: real time     10.7516

 eigenvalue-minimisations  :  9120
 total energy-change (2. order) :-0.2880372E+00  (-0.2872292E+00)
 number of electron     359.9999995 magnetization      48.8156255
 augmentation part      -66.8297924 magnetization      49.0275468

 Broyden mixing:
  rms(total) = 0.29201E+01    rms(broyden)= 0.29201E+01
  rms(prec ) = 0.30747E+01
  weight for this iteration     100.00

 Free energy of the ion-electron system (eV)
  ---------------------------------------------------
  alpha Z        PSCENC =       795.76387631
  Ewald energy   TEWEN  =    -12849.28837694
  -Hartree energ DENC   =     -1119.55560808
  -exchange      EXHF   =         0.00000000
  -V(xc)+E(xc)   XCENC  =      -293.80315648
  PAW double counting   =     10738.42099860    -9719.93139476
  entropy T*S    EENTRO =        -0.00000008
  eigenvalues    EBANDS =      -878.07432683
  atomic energy  EATOM  =     13036.45147835
  Solvation  Ediel_sol  =         0.00000000
  ---------------------------------------------------
  free energy    TOTEN  =      -290.01650991 eV

  energy without entropy =     -290.01650984  energy(sigma->0) =     -290.01650987


--------------------------------------------------------------------------------------------------------




--------------------------------------- Iteration      1(   6)  ---------------------------------------


    POTLOK:  cpu time      0.1349: real time      0.1361
    SETDIJ:  cpu time      0.6075: real time      0.6096
     EDDAV:  cpu time      9.2561: real time      9.3075
       DOS:  cpu time      0.0011: real time      0.0012
    CHARGE:  cpu time      0.4164: real time      0.4179
    MIXING:  cpu time      0.0075: real time      0.0075
    --------------------------------------------
      LOOP:  cpu time     10.4235: real time     10.4797

 eigenvalue-minimisations  :  7960
 total energy-change (2. order) : 0.2803372E+00  (-0.2658680E+01)
 number of electron     359.9999995 magnetization      27.9424355
 augmentation part      -66.2113093 magnetization      29.1230751

 Broyden mixing:
  rms(total) = 0.17304E+01    rms(broyden)= 0.17304E+01
  rms(prec ) = 0.17671E+01
  weight for this iteration     100.00

 eigenvalues of (default mixing * dielectric matrix)
  average eigenvalue GAMMA=   1.0079
  1.0079

 Free energy of the ion-electron system (eV)
  ---------------------------------------------------
  alpha Z        PSCENC =       795.76387631
  Ewald energy   TEWEN  =    -12849.28837694
  -Hartree energ DENC   =     -1173.29038016
  -exchange      EXHF   =         0.00000000
  -V(xc)+E(xc)   XCENC  =      -287.22682556
  PAW double counting   =     13030.15776724   -12015.19875357
  entropy T*S    EENTRO =        -0.00000005
  eigenvalues    EBANDS =      -827.10495839
  atomic energy  EATOM  =     13036.45147835
  Solvation  Ediel_sol  =         0.00000000
  ---------------------------------------------------
  free energy    TOTEN  =      -289.73617276 eV

  energy without entropy =     -289.73617271  energy(sigma->0) =     -289.73617274


--------------------------------------------------------------------------------------------------------




--------------------------------------- Iteration      1(   7)  ---------------------------------------


    POTLOK:  cpu time      0.1301: real time      0.1308
    SETDIJ:  cpu time      0.6075: real time      0.6095
     EDDAV:  cpu time      9.3244: real time      9.3688
       DOS:  cpu time      0.0010: real time      0.0010
    CHARGE:  cpu time      0.4200: real time      0.4218
    MIXING:  cpu time      0.0076: real time      0.0077
    --------------------------------------------
      LOOP:  cpu time     10.4906: real time     10.5395

 eigenvalue-minimisations  :  7992
 total energy-change (2. order) :-0.7245135E+01  (-0.8583964E+00)
 number of electron     359.9999995 magnetization       9.1105999
 augmentation part      -66.2004939 magnetization       9.7859704

 Broyden mixing:
  rms(total) = 0.91115E+00    rms(broyden)= 0.91115E+00
  rms(prec ) = 0.92737E+00
  weight for this iteration     100.00

 eigenvalues of (default mixing * dielectric matrix)
  average eigenvalue GAMMA=   1.4596
  0.8615  2.0576

 Free energy of the ion-electron system (eV)
  ---------------------------------------------------
  alpha Z        PSCENC =       795.76387631
  Ewald energy   TEWEN  =    -12849.28837694
  -Hartree energ DENC   =     -1190.35340870
  -exchange      EXHF   =         0.00000000
  -V(xc)+E(xc)   XCENC  =      -290.15465783
  PAW double counting   =     15131.21191074   -14117.88820467
  entropy T*S    EENTRO =        -0.00000000
  eigenvalues    EBANDS =      -812.72392508
  atomic energy  EATOM  =     13036.45147835
  Solvation  Ediel_sol  =         0.00000000
  ---------------------------------------------------
  free energy    TOTEN  =      -296.98130783 eV

  energy without entropy =     -296.98130783  energy(sigma->0) =     -296.98130783


--------------------------------------------------------------------------------------------------------




--------------------------------------- Iteration      1(   8)  ---------------------------------------


    POTLOK:  cpu time      0.1309: real time      0.1315
    SETDIJ:  cpu time      0.6075: real time      0.6098
     EDDAV:  cpu time      9.5228: real time      9.5685
       DOS:  cpu time      0.0007: real time      0.0008
    CHARGE:  cpu time      0.4157: real time      0.4176
    MIXING:  cpu time      0.0075: real time      0.0076
    --------------------------------------------
      LOOP:  cpu time     10.6851: real time     10.7357

 eigenvalue-minimisations  :  8136
 total energy-change (2. order) :-0.3231463E+01  (-0.1740520E+00)
 number of electron     359.9999995 magnetization       4.3410467
 augmentation part      -66.2059663 magnetization       4.6453511

 Broyden mixing:
  rms(total) = 0.32626E+00    rms(broyden)= 0.32626E+00
  rms(prec ) = 0.33164E+00
  weight for this iteration     100.00

 eigenvalues of (default mixing * dielectric matrix)
  average eigenvalue GAMMA=   1.3621
  2.5047  0.9257  0.6557

 Free energy of the ion-electron system (eV)
  ---------------------------------------------------
  alpha Z        PSCENC =       795.76387631
  Ewald energy   TEWEN  =    -12849.28837694
  -Hartree energ DENC   =     -1195.41910511
  -exchange      EXHF   =         0.00000000
  -V(xc)+E(xc)   XCENC  =      -289.80291721
  PAW double counting   =     16929.96853537   -15917.59923333
  entropy T*S    EENTRO =        -0.00000000
  eigenvalues    EBANDS =      -810.28702858
  atomic energy  EATOM  =     13036.45147835
  Solvation  Ediel_sol  =         0.00000000
  ---------------------------------------------------
  free energy    TOTEN  =      -300.21277115 eV

  energy without entropy =     -300.21277115  energy(sigma->0) =     -300.21277115


--------------------------------------------------------------------------------------------------------




--------------------------------------- Iteration      1(   9)  ---------------------------------------


    POTLOK:  cpu time      0.1299: real time      0.1306
    SETDIJ:  cpu time      0.6085: real time      0.6104
     EDDAV:  cpu time     10.2368: real time     10.2860
       DOS:  cpu time      0.0008: real time      0.0008
    CHARGE:  cpu time      0.4144: real time      0.4160
    MIXING:  cpu time      0.0088: real time      0.0088
    --------------------------------------------
      LOOP:  cpu time     11.3991: real time     11.4526

 eigenvalue-minimisations  :  9040
 total energy-change (2. order) :-0.3729167E+00  (-0.4208488E-01)
 number of electron     359.9999995 magnetization       2.2907598
 augmentation part      -66.2438027 magnetization       2.4425029

 Broyden mixing:
  rms(total) = 0.14701E+00    rms(broyden)= 0.14701E+00
  rms(prec ) = 0.14871E+00
  weight for this iteration     100.00

 eigenvalues of (default mixing * dielectric matrix)
  average eigenvalue GAMMA=   1.3291
  2.6346  1.2306  0.8306  0.6205

 Free energy of the ion-electron system (eV)
  ---------------------------------------------------
  alpha Z        PSCENC =       795.76387631
  Ewald energy   TEWEN  =    -12849.28837694
  -Hartree energ DENC   =     -1194.42700986
  -exchange      EXHF   =         0.00000000
  -V(xc)+E(xc)   XCENC  =      -289.84232705
  PAW double counting   =     17212.27448010   -16200.24001000
  entropy T*S    EENTRO =        -0.00000000
  eigenvalues    EBANDS =      -811.27779880
  atomic energy  EATOM  =     13036.45147835
  Solvation  Ediel_sol  =         0.00000000
  ---------------------------------------------------
  free energy    TOTEN  =      -300.58568788 eV

  energy without entropy =     -300.58568788  energy(sigma->0) =     -300.58568788


--------------------------------------------------------------------------------------------------------




--------------------------------------- Iteration      1(  10)  ---------------------------------------


    POTLOK:  cpu time      0.1297: real time      0.1303
    SETDIJ:  cpu time      0.6061: real time      0.6082
     EDDAV:  cpu time      9.3945: real time      9.4422
       DOS:  cpu time      0.0007: real time      0.0007
    CHARGE:  cpu time      0.4152: real time      0.4171
    MIXING:  cpu time      0.0079: real time      0.0079
    --------------------------------------------
      LOOP:  cpu time     10.5541: real time     10.6065

 eigenvalue-minimisations  :  8104
 total energy-change (2. order) :-0.1021557E+00  (-0.9301001E-02)
 number of electron     359.9999995 magnetization       0.7369731
 augmentation part      -66.2453956 magnetization       0.8048370

 Broyden mixing:
  rms(total) = 0.73024E-01    rms(broyden)= 0.73024E-01
  rms(prec ) = 0.74098E-01
  weight for this iteration     100.00

 eigenvalues of (default mixing * dielectric matrix)
  average eigenvalue GAMMA=   1.3744
  2.7044  1.7525  0.9681  0.8206  0.6264

 Free energy of the ion-electron system (eV)
  ---------------------------------------------------
  alpha Z        PSCENC =       795.76387631
  Ewald energy   TEWEN  =    -12849.28837694
  -Hartree energ DENC   =     -1194.62856513
  -exchange      EXHF   =         0.00000000
  -V(xc)+E(xc)   XCENC  =      -289.83896081
  PAW double counting   =     17218.95135326   -16206.92767623
  entropy T*S    EENTRO =        -0.00000000
  eigenvalues    EBANDS =      -811.17097236
  atomic energy  EATOM  =     13036.45147835
  Solvation  Ediel_sol  =         0.00000000
  ---------------------------------------------------
  free energy    TOTEN  =      -300.68784355 eV

  energy without entropy =     -300.68784355  energy(sigma->0) =     -300.68784355


--------------------------------------------------------------------------------------------------------




--------------------------------------- Iteration      1(  11)  ---------------------------------------


    POTLOK:  cpu time      0.1293: real time      0.1300
    SETDIJ:  cpu time      0.6073: real time      0.6093
     EDDAV:  cpu time     10.1028: real time     10.1618
       DOS:  cpu time      0.0006: real time      0.0006
    CHARGE:  cpu time      0.4176: real time      0.4197
    MIXING:  cpu time      0.0076: real time      0.0076
    --------------------------------------------
      LOOP:  cpu time     11.2652: real time     11.3290

 eigenvalue-minimisations  :  8944
 total energy-change (2. order) :-0.3156800E-01  (-0.3608459E-02)
 number of electron     359.9999995 magnetization       0.1763916
 augmentation part      -66.2313332 magnetization       0.1947136

 Broyden mixing:
  rms(total) = 0.28931E-01    rms(broyden)= 0.28930E-01
  rms(prec ) = 0.29412E-01
  weight for this iteration     100.00

 eigenvalues of (default mixing * dielectric matrix)
  average eigenvalue GAMMA=   1.4068
  2.9111  2.1880  1.1699  0.8543  0.6933  0.6242

 Free energy of the ion-electron system (eV)
  ---------------------------------------------------
  alpha Z        PSCENC =       795.76387631
  Ewald energy   TEWEN  =    -12849.28837694
  -Hartree energ DENC   =     -1195.74293513
  -exchange      EXHF   =         0.00000000
  -V(xc)+E(xc)   XCENC  =      -289.79577852
  PAW double counting   =     17143.59258306   -16131.54095892
  entropy T*S    EENTRO =        -0.00000000
  eigenvalues    EBANDS =      -810.15929976
  atomic energy  EATOM  =     13036.45147835
  Solvation  Ediel_sol  =         0.00000000
  ---------------------------------------------------
  free energy    TOTEN  =      -300.71941156 eV

  energy without entropy =     -300.71941156  energy(sigma->0) =     -300.71941156


--------------------------------------------------------------------------------------------------------




--------------------------------------- Iteration      1(  12)  ---------------------------------------


    POTLOK:  cpu time      0.1312: real time      0.1319
    SETDIJ:  cpu time      0.6081: real time      0.6101
     EDDAV:  cpu time      9.8526: real time      9.9005
       DOS:  cpu time      0.0008: real time      0.0008
    CHARGE:  cpu time      0.4211: real time      0.4227
    MIXING:  cpu time      0.0094: real time      0.0094
    --------------------------------------------
      LOOP:  cpu time     11.0231: real time     11.0755

 eigenvalue-minimisations  :  8472
 total energy-change (2. order) :-0.3308060E-02  (-0.4466677E-03)
 number of electron     359.9999995 magnetization       0.0626412
 augmentation part      -66.2305729 magnetization       0.0669046

 Broyden mixing:
  rms(total) = 0.10793E-01    rms(broyden)= 0.10793E-01
  rms(prec ) = 0.11465E-01
  weight for this iteration     100.00

 eigenvalues of (default mixing * dielectric matrix)
  average eigenvalue GAMMA=   1.3650
  3.0074  2.3372  1.2033  0.8744  0.8744  0.6066  0.6520

 Free energy of the ion-electron system (eV)
  ---------------------------------------------------
  alpha Z        PSCENC =       795.76387631
  Ewald energy   TEWEN  =    -12849.28837694
  -Hartree energ DENC   =     -1195.85782792
  -exchange      EXHF   =         0.00000000
  -V(xc)+E(xc)   XCENC  =      -289.79712589
  PAW double counting   =     17106.81749861   -16094.74270169
  entropy T*S    EENTRO =        -0.00000000
  eigenvalues    EBANDS =      -810.06954045
  atomic energy  EATOM  =     13036.45147835
  Solvation  Ediel_sol  =         0.00000000
  ---------------------------------------------------
  free energy    TOTEN  =      -300.72271962 eV

  energy without entropy =     -300.72271962  energy(sigma->0) =     -300.72271962


--------------------------------------------------------------------------------------------------------




--------------------------------------- Iteration      1(  13)  ---------------------------------------


    POTLOK:  cpu time      0.1321: real time      0.1328
    SETDIJ:  cpu time      0.6032: real time      0.6052
     EDDAV:  cpu time     11.0240: real time     11.0771
       DOS:  cpu time      0.0007: real time      0.0007
    CHARGE:  cpu time      0.4208: real time      0.4224
    MIXING:  cpu time      0.0078: real time      0.0079
    --------------------------------------------
      LOOP:  cpu time     12.1888: real time     12.2462

 eigenvalue-minimisations  :  9880
 total energy-change (2. order) :-0.1046679E-03  (-0.6155308E-04)
 number of electron     359.9999995 magnetization       0.0171603
 augmentation part      -66.2321016 magnetization       0.0180155

 Broyden mixing:
  rms(total) = 0.47194E-02    rms(broyden)= 0.47194E-02
  rms(prec ) = 0.49217E-02
  weight for this iteration     100.00

 eigenvalues of (default mixing * dielectric matrix)
  average eigenvalue GAMMA=   1.3474
  3.0531  2.4340  1.0731  1.0731  1.0337  0.8569  0.6476  0.6076

 Free energy of the ion-electron system (eV)
  ---------------------------------------------------
  alpha Z        PSCENC =       795.76387631
  Ewald energy   TEWEN  =    -12849.28837694
  -Hartree energ DENC   =     -1195.75330089
  -exchange      EXHF   =         0.00000000
  -V(xc)+E(xc)   XCENC  =      -289.80729821
  PAW double counting   =     17093.70572125   -16081.62002921
  entropy T*S    EENTRO =        -0.00000000
  eigenvalues    EBANDS =      -810.17489495
  atomic energy  EATOM  =     13036.45147835
  Solvation  Ediel_sol  =         0.00000000
  ---------------------------------------------------
  free energy    TOTEN  =      -300.72282429 eV

  energy without entropy =     -300.72282429  energy(sigma->0) =     -300.72282429


--------------------------------------------------------------------------------------------------------




--------------------------------------- Iteration      1(  14)  ---------------------------------------


    POTLOK:  cpu time      0.1301: real time      0.1308
    SETDIJ:  cpu time      0.6048: real time      0.6069
     EDDAV:  cpu time      9.6310: real time      9.6795
       DOS:  cpu time      0.0009: real time      0.0009
    CHARGE:  cpu time      0.4155: real time      0.4171
    MIXING:  cpu time      0.0078: real time      0.0078
    --------------------------------------------
      LOOP:  cpu time     10.7901: real time     10.8429

 eigenvalue-minimisations  :  8304
 total energy-change (2. order) :-0.1791642E-04  (-0.9677288E-05)
 number of electron     359.9999995 magnetization       0.0051808
 augmentation part      -66.2317599 magnetization       0.0055340

 Broyden mixing:
  rms(total) = 0.17415E-02    rms(broyden)= 0.17415E-02
  rms(prec ) = 0.18486E-02
  weight for this iteration     100.00

 eigenvalues of (default mixing * dielectric matrix)
  average eigenvalue GAMMA=   1.3354
  3.0820  2.4662  1.4723  1.2098  0.8782  0.8782  0.7802  0.6114  0.6405

 Free energy of the ion-electron system (eV)
  ---------------------------------------------------
  alpha Z        PSCENC =       795.76387631
  Ewald energy   TEWEN  =    -12849.28837694
  -Hartree energ DENC   =     -1195.75768528
  -exchange      EXHF   =         0.00000000
  -V(xc)+E(xc)   XCENC  =      -289.80785558
  PAW double counting   =     17089.18981061   -16077.10117620
  entropy T*S    EENTRO =        -0.00000000
  eigenvalues    EBANDS =      -810.17291347
  atomic energy  EATOM  =     13036.45147835
  Solvation  Ediel_sol  =         0.00000000
  ---------------------------------------------------
  free energy    TOTEN  =      -300.72284220 eV

  energy without entropy =     -300.72284220  energy(sigma->0) =     -300.72284220


--------------------------------------------------------------------------------------------------------




--------------------------------------- Iteration      1(  15)  ---------------------------------------


    POTLOK:  cpu time      0.1321: real time      0.1327
    SETDIJ:  cpu time      0.6038: real time      0.6060
     EDDAV:  cpu time      9.8730: real time      9.9350
       DOS:  cpu time      0.0008: real time      0.0008
    CHARGE:  cpu time      0.4176: real time      0.4193
    MIXING:  cpu time      0.0080: real time      0.0081
    --------------------------------------------
      LOOP:  cpu time     11.0353: real time     11.1019

 eigenvalue-minimisations  :  8584
 total energy-change (2. order) :-0.3599486E-05  (-0.1692596E-05)
 number of electron     359.9999995 magnetization       0.0018257
 augmentation part      -66.2319021 magnetization       0.0020354

 Broyden mixing:
  rms(total) = 0.75104E-03    rms(broyden)= 0.75104E-03
  rms(prec ) = 0.79600E-03
  weight for this iteration     100.00

 eigenvalues of (default mixing * dielectric matrix)
  average eigenvalue GAMMA=   1.2997
  3.0941  2.4338  1.6517  1.0928  0.9780  0.9780  0.8292  0.7040  0.6176  0.6176

 Free energy of the ion-electron system (eV)
  ---------------------------------------------------
  alpha Z        PSCENC =       795.76387631
  Ewald energy   TEWEN  =    -12849.28837694
  -Hartree energ DENC   =     -1195.74427006
  -exchange      EXHF   =         0.00000000
  -V(xc)+E(xc)   XCENC  =      -289.80830339
  PAW double counting   =     17088.62808782   -16076.53859883
  entropy T*S    EENTRO =        -0.00000000
  eigenvalues    EBANDS =      -810.18673906
  atomic energy  EATOM  =     13036.45147835
  Solvation  Ediel_sol  =         0.00000000
  ---------------------------------------------------
  free energy    TOTEN  =      -300.72284580 eV

  energy without entropy =     -300.72284580  energy(sigma->0) =     -300.72284580


--------------------------------------------------------------------------------------------------------




--------------------------------------- Iteration      1(  16)  ---------------------------------------


    POTLOK:  cpu time      0.1294: real time      0.1300
    SETDIJ:  cpu time      0.6085: real time      0.6105
     EDDAV:  cpu time      6.6986: real time      6.7333
       DOS:  cpu time      0.0008: real time      0.0008
    --------------------------------------------
      LOOP:  cpu time      7.4372: real time      7.4746

 eigenvalue-minimisations  :  4896
 total energy-change (2. order) :-0.7232857E-06  (-0.1459697E-06)
 number of electron     359.9999995 magnetization       0.0018257
 augmentation part      -66.2319021 magnetization       0.0020354

 Free energy of the ion-electron system (eV)
  ---------------------------------------------------
  alpha Z        PSCENC =       795.76387631
  Ewald energy   TEWEN  =    -12849.28837694
  -Hartree energ DENC   =     -1195.73821189
  -exchange      EXHF   =         0.00000000
  -V(xc)+E(xc)   XCENC  =      -289.80855191
  PAW double counting   =     17088.59715333   -16076.50741928
  entropy T*S    EENTRO =        -0.00000000
  eigenvalues    EBANDS =      -810.19279450
  atomic energy  EATOM  =     13036.45147835
  Solvation  Ediel_sol  =         0.00000000
  ---------------------------------------------------
  free energy    TOTEN  =      -300.72284653 eV

  energy without entropy =     -300.72284653  energy(sigma->0) =     -300.72284653


--------------------------------------------------------------------------------------------------------




 average (electrostatic) potential at core
  the test charge radii are     1.1631  1.0808
  (the norm of the test charge is              1.0000)
       1 -33.4184       2 -33.4766       3 -33.6977       4 -33.3294       5 -33.5379
       6 -33.3677       7 -33.3026       8 -33.3299       9 -33.4853      10 -33.3015
      11 -33.5317      12 -33.4297      13 -33.5867      14 -33.4096      15 -33.4449
      16 -33.4611      17 -33.6410      18 -33.4433      19 -33.2698      20 -33.6461
      21 -33.5287      22 -33.5210      23 -33.3362      24 -33.4927      25 -33.6341
      26 -33.2517      27 -33.4288      28 -33.3804      29 -33.5432      30 -33.5950
      31 -33.5731      32 -33.7601      33 -33.4151      34 -33.6169      35 -33.4012
      36 -33.5850      37 -54.7195      38 -54.9844      39 -54.7561      40 -54.9766
      41 -55.0100      42 -54.6919      43 -54.9735      44 -54.8235      45 -54.7709
      46 -54.9579      47 -54.6808      48 -54.9077      49 -54.9244      50 -54.9875
      51 -54.7496      52 -54.8901      53 -54.9035      54 -54.7754      55 -54.6944
      56 -54.8204      57 -54.8301      58 -54.8383      59 -54.7159      60 -54.9524
      61 -54.8567      62 -54.9629      63 -54.8008      64 -54.9340      65 -54.6554
      66 -54.8967      67 -54.8554      68 -55.0100      69 -54.8943      70 -54.8443
      71 -54.6971      72 -54.8886
 
 
 
 E-fermi :   3.4163     XC(G=0):  -9.3645     alpha+bet : -8.8085

 Fermi energy:         3.4162603634

 spin component 1

 k-point     1 :       0.0000    0.0000    0.0000
  band No.  band energies     occupation 
      1     -10.9112      1.00000
      2     -10.5923      1.00000
      3     -10.3898      1.00000
      4     -10.3783      1.00000
      5     -10.3399      1.00000
      6     -10.2696      1.00000
      7     -10.1651      1.00000
      8     -10.0900      1.00000
      9     -10.0798      1.00000
     10      -9.9840      1.00000
     11      -9.9563      1.00000
     12      -9.8961      1.00000
     13      -9.8256      1.00000
     14      -9.7535      1.00000
     15      -9.7448      1.00000
     16      -9.6881      1.00000
     17      -9.6311      1.00000
     18      -9.6025      1.00000
     19      -9.5162      1.00000
     20      -9.4824      1.00000
     21      -9.4389      1.00000
     22      -9.4186      1.00000
     23      -9.4125      1.00000
     24      -9.3498      1.00000
     25      -9.3012      1.00000
     26      -9.2454      1.00000
     27      -9.2336      1.00000
     28      -9.2072      1.00000
     29      -9.1952      1.00000
     30      -9.1689      1.00000
     31      -9.0857      1.00000
     32      -9.0794      1.00000
     33      -9.0686      1.00000
     34      -8.9468      1.00000
     35      -8.9411      1.00000
     36      -8.8924      1.00000
     37      -5.5033      1.00000
     38      -5.3829      1.00000
     39      -5.2946      1.00000
     40      -5.2645      1.00000
     41      -5.1181      1.00000
     42      -5.0560      1.00000
     43      -5.0515      1.00000
     44      -4.9838      1.00000
     45      -4.7894      1.00000
     46      -4.7526      1.00000
     47      -4.6284      1.00000
     48      -4.5325      1.00000
     49      -4.5170      1.00000
     50      -4.4743      1.00000
     51      -4.4400      1.00000
     52      -4.4032      1.00000
     53      -4.3792      1.00000
     54      -4.3640      1.00000
     55      -4.3078      1.00000
     56      -4.2869      1.00000
     57      -4.2549      1.00000
     58      -4.2014      1.00000
     59      -4.1778      1.00000
     60      -4.1634      1.00000
     61      -4.1216      1.00000
     62      -4.0516      1.00000
     63      -3.9748      1.00000
     64      -3.9353      1.00000
     65      -3.8877      1.00000
     66      -3.8524      1.00000
     67      -3.6861      1.00000
     68      -3.6773      1.00000
     69      -3.5484      1.00000
     70      -3.4544      1.00000
     71      -2.4637      1.00000
     72      -2.3831      1.00000
     73      -1.8743      1.00000
     74      -1.6195      1.00000
     75      -1.5724      1.00000
     76      -1.5080      1.00000
     77      -1.4627      1.00000
     78      -1.4051      1.00000
     79      -1.3683      1.00000
     80      -1.2865      1.00000
     81      -1.2600      1.00000
     82      -1.1529      1.00000
     83      -1.0814      1.00000
     84      -1.0769      1.00000
     85      -1.0241      1.00000
     86      -0.8309      1.00000
     87      -0.8108      1.00000
     88      -0.7419      1.00000
     89      -0.6686      1.00000
     90      -0.6321      1.00000
     91      -0.5954      1.00000
     92      -0.5632      1.00000
     93      -0.5586      1.00000
     94      -0.2178      1.00000
     95      -0.1456      1.00000
     96      -0.1145      1.00000
     97      -0.0824      1.00000
     98      -0.0097      1.00000
     99       0.0040      1.00000
    100       0.0785      1.00000
    101       0.0873      1.00000
    102       0.1190      1.00000
    103       0.1410      1.00000
    104       0.1497      1.00000
    105       0.1735      1.00000
    106       0.2192      1.00000
    107       0.2948      1.00000
    108       0.3360      1.00000
    109       0.4162      1.00000
    110       0.4349      1.00000
    111       0.4510      1.00000
    112       0.4994      1.00000
    113       0.5318      1.00000
    114       0.5659      1.00000
    115       0.6103      1.00000
    116       0.6346      1.00000
    117       0.6535      1.00000
    118       0.7144      1.00000
    119       0.7260      1.00000
    120       0.7570      1.00000
    121       0.7640      1.00000
    122       0.8186      1.00000
    123       0.8823      1.00000
    124       0.9061      1.00000
    125       0.9515      1.00000
    126       0.9808      1.00000
    127       0.9970      1.00000
    128       1.0296      1.00000
    129       1.1063      1.00000
    130       1.1417      1.00000
    131       1.1694      1.00000
    132       1.1987      1.00000
    133       1.2717      1.00000
    134       1.2797      1.00000
    135       1.3210      1.00000
    136       1.3645      1.00000
    137       1.3771      1.00000
    138       1.4229      1.00000
    139       1.4435      1.00000
    140       1.4634      1.00000
    141       1.5405      1.00000
    142       1.6264      1.00000
    143       1.6489      1.00000
    144       1.6594      1.00000
    145       1.6956      1.00000
    146       1.7525      1.00000
    147       1.7724      1.00000
    148       1.8282      1.00000
    149       1.8814      1.00000
[...]
   0.917E+01 0.342E+01 -.230E+02   -.118E+02 -.315E+01 0.260E+02   0.238E+01 -.279E+00 -.261E+01   0.275E-03 0.817E-04 -.100E-03
   -.303E+01 0.307E+01 0.286E+02   0.323E+01 -.461E+01 -.315E+02   0.709E-01 0.178E+01 0.287E+01   -.320E-04 0.173E-03 0.105E-03
   0.117E+02 0.136E+02 0.251E+02   -.120E+02 -.148E+02 -.267E+02   -.172E-01 0.112E+01 0.180E+01   -.219E-03 0.780E-04 -.307E-03
   0.762E+01 0.201E+02 0.341E+02   -.752E+01 -.216E+02 -.362E+02   0.536E-02 0.821E+00 0.141E+01   -.453E-03 -.181E-03 0.102E-03
   -.824E+01 0.412E+01 0.167E+02   0.926E+01 -.440E+01 -.185E+02   -.825E+00 -.410E+00 0.222E+01   0.979E-04 -.192E-03 -.138E-03
   -.224E+02 0.164E+01 0.196E+02   0.235E+02 -.182E+01 -.214E+02   -.131E+01 -.530E-01 0.195E+01   -.853E-04 -.206E-03 -.181E-03
   0.716E+01 0.104E+02 0.180E+02   -.759E+01 -.113E+02 -.193E+02   0.430E+00 0.107E+01 0.160E+01   0.685E-04 0.163E-03 -.185E-03
   -.119E+01 0.831E+01 0.166E+02   0.106E+01 -.921E+01 -.179E+02   0.122E+00 0.880E+00 0.182E+01   0.123E-03 0.173E-03 0.252E-04
   -.214E+02 -.843E+01 0.307E+02   0.226E+02 0.885E+01 -.331E+02   -.107E+01 -.909E-01 0.219E+01   0.260E-03 0.232E-03 0.418E-04
   -.496E+01 -.183E+02 -.342E+02   0.468E+01 0.198E+02 0.365E+02   -.173E+00 -.122E+01 -.121E+01   0.282E-03 -.132E-03 -.146E-03
   -.146E+02 -.216E-01 -.191E+02   0.156E+02 -.336E+00 0.210E+02   -.112E+01 0.619E+00 -.224E+01   0.459E-04 -.866E-04 -.436E-03
   -.251E+01 -.706E+01 -.287E+02   0.262E+01 0.827E+01 0.303E+02   0.296E+00 -.105E+01 -.176E+01   -.120E-04 -.231E-03 0.141E-03
   -.350E+01 -.105E+02 -.182E+02   0.386E+01 0.115E+02 0.197E+02   -.235E+00 -.117E+01 -.161E+01   -.219E-03 0.255E-03 -.269E-03
   0.141E+02 -.106E+02 -.160E+02   -.142E+02 0.115E+02 0.174E+02   -.368E-01 -.137E+01 -.166E+01   -.294E-03 -.150E-03 0.123E-03
   0.443E+01 -.143E+02 -.246E+02   -.417E+01 0.161E+02 0.258E+02   0.213E-01 -.922E+00 -.137E+01   -.376E-03 -.266E-05 0.824E-04
   -.719E+01 0.289E+01 -.243E+02   0.831E+01 -.305E+01 0.263E+02   -.102E+01 0.574E-01 -.231E+01   0.329E-03 0.153E-03 -.114E-03
   0.538E+01 0.504E+01 0.315E+02   -.573E+01 -.643E+01 -.332E+02   0.589E+00 0.139E+01 0.168E+01   0.295E-03 0.210E-03 -.306E-03
   -.989E+01 0.205E+02 0.252E+02   0.102E+02 -.222E+02 -.268E+02   0.245E+00 0.138E+01 0.159E+01   -.379E-03 -.297E-04 -.133E-03
   0.453E+01 -.213E+02 0.334E+02   -.523E+01 0.227E+02 -.355E+02   0.205E+00 -.156E+01 0.173E+01   0.834E-04 0.730E-04 0.318E-03
   0.139E+01 0.101E+00 0.197E+02   -.119E+01 0.723E+00 -.211E+02   -.167E+00 -.120E+01 0.197E+01   -.438E-03 -.152E-03 0.196E-03
   -.193E+02 0.108E+02 0.256E+02   0.206E+02 -.112E+02 -.275E+02   -.147E+01 0.250E+00 0.181E+01   0.155E-03 -.461E-03 -.490E-04
   -.216E+02 0.134E+02 -.195E+02   0.229E+02 -.135E+02 0.211E+02   -.133E+01 -.155E+00 -.129E+01   0.143E-03 0.260E-03 0.145E-03
   -.171E+01 0.820E+01 -.251E+02   0.208E+01 -.855E+01 0.269E+02   -.197E+00 0.585E+00 -.267E+01   -.242E-04 0.390E-03 0.155E-03
   -.132E+02 -.905E+01 -.302E+02   0.141E+02 0.942E+01 0.324E+02   -.881E+00 -.262E+00 -.151E+01   0.869E-04 -.257E-03 -.190E-03
   0.359E+01 0.729E+01 -.254E+02   -.390E+01 -.819E+01 0.262E+02   0.111E+00 0.120E+01 -.755E+00   0.332E-05 0.628E-05 0.340E-03
   -.136E+01 0.165E+02 -.286E+02   0.145E+01 -.176E+02 0.304E+02   0.274E+00 0.121E+01 -.130E+01   -.378E-03 0.937E-06 -.133E-03
   0.109E+02 0.715E-01 -.273E+02   -.116E+02 -.559E+00 0.288E+02   0.546E+00 0.499E+00 -.157E+01   0.176E-04 0.446E-04 0.102E-03
   -.157E+02 -.801E+01 -.490E+02   0.169E+02 0.820E+01 0.515E+02   -.147E+01 0.313E+00 -.132E+01   0.477E-03 0.154E-03 -.334E-04
   -.131E+02 0.338E+01 -.320E+02   0.141E+02 -.333E+01 0.339E+02   -.150E+01 0.210E+00 -.172E+01   0.234E-03 -.154E-03 0.880E-04
   -.627E+01 0.108E+02 -.300E+02   0.657E+01 -.118E+02 0.320E+02   -.196E+00 0.125E+01 -.190E+01   -.213E-04 0.370E-03 0.727E-05
   0.964E+01 -.112E+02 -.350E+02   -.985E+01 0.111E+02 0.367E+02   -.105E+00 0.103E+01 -.153E+01   -.375E-03 -.230E-03 -.897E-04
   0.705E+01 -.186E+02 0.287E+02   -.709E+01 0.201E+02 -.304E+02   0.429E+00 -.150E+01 0.210E+01   -.253E-04 -.196E-04 -.310E-03
   -.166E+02 -.246E+00 0.284E+02   0.177E+02 0.124E+00 -.305E+02   -.877E+00 0.550E+00 0.180E+01   -.991E-04 0.103E-03 0.801E-04
   0.634E+00 -.135E+02 0.260E+02   -.800E+00 0.149E+02 -.270E+02   0.255E+00 -.106E+01 0.152E+01   0.244E-03 -.444E-03 -.134E-03
   -.111E+02 0.460E+01 0.303E+02   0.123E+02 -.460E+01 -.319E+02   -.108E+01 0.334E-01 0.117E+01   0.449E-04 0.400E-03 0.473E-04
   0.498E+01 -.152E+02 0.461E+02   -.512E+01 0.162E+02 -.480E+02   -.101E+00 -.108E+01 0.160E+01   -.713E-04 -.273E-06 -.218E-03
   -.297E+01 -.314E+01 0.288E+02   0.313E+01 0.392E+01 -.305E+02   -.915E-01 -.119E+01 0.160E+01   0.867E-04 0.182E-03 -.171E-03
   -.115E+02 -.193E+02 -.259E+02   0.121E+02 0.208E+02 0.277E+02   -.551E+00 -.634E+00 -.179E+01   -.200E-03 0.238E-03 0.118E-03
 -----------------------------------------------------------------------------------------------
   -.145E+02 -.144E+01 -.180E+01   0.178E-13 -.124E-12 0.139E-12   0.145E+02 0.144E+01 0.180E+01   0.579E-03 0.794E-03 -.131E-02
 
 
 POSITION                                       TOTAL-FORCE (eV/Angst)
 -----------------------------------------------------------------------------------
      1.22826      0.39269      1.48516        -0.106317     -0.138521      0.115889
      3.15495     10.84791      4.01045        -0.091413      0.031923      0.387061
      7.13122      2.65380      4.27170        -0.107192      0.153142     -0.420280
      7.37101      6.77010      4.23999        -0.335226     -0.557760      0.296274
      7.14580     10.71689      4.23562         0.219014      0.393184     -0.117696
     11.56239      2.43121      4.15567        -0.201593     -0.360577     -0.109445
     11.48435      6.49269      4.09355         0.048175      0.105055     -0.059344
     11.12296     10.94177      3.91946         0.367765      0.012500      0.620523
      0.91174      2.09834      7.17010         0.142620     -0.314908      0.420154
      1.13581      6.23978      7.12380        -0.238266      0.662369     -0.943664
      0.55355     10.24397      6.63934         0.101101     -0.048138      0.426847
      5.02685      1.70556      6.81107        -0.382020      0.160268     -0.226895
      5.17607      6.22781      6.95072         0.228493      0.097223      0.072652
      5.15777     10.45904      7.06695         0.282373     -0.168345     -0.955451
      9.26528      2.18270      6.98697         0.379719     -0.396493     -0.078301
      9.11633      5.88067      7.03928        -0.049818      0.219442     -0.171760
      3.11738      6.70700      4.11570        -0.613639      0.278464     -0.273525
      3.03760      2.65170      4.15105        -0.210727     -0.631341     -0.387762
      9.28754     10.23262      6.92376        -0.481800      0.143383      0.041967
     11.06675      8.24236      9.70670         0.097768     -0.341386     -0.183873
     11.40354     12.49148      9.67447        -0.032463     -0.328036     -0.296818
      1.12475      4.64107      1.35488        -0.391315     -0.065254      0.199519
      0.59336      8.92916      1.35600         0.322641     -0.406433      0.206679
      5.29596      0.36309      1.49559        -0.588414      0.035231     -0.064679
      5.09847      4.73001      1.31499        -0.381852      0.166259      0.348032
      8.90750      0.60867      1.45139         0.709569     -0.084596     -0.926932
      9.29187      4.47099      1.39712         0.481594      0.096229      0.026796
      5.05314      8.66178      1.72952         0.265485      0.112347     -0.257440
      3.25811      4.10343      9.65130        -0.289184     -0.165725      0.604381
      3.02311      8.54820      9.49191        -0.009377     -0.145479     -0.185588
      2.92831     12.33177      9.68626        -0.145200     -0.320458     -0.333370
      7.03588      3.97843      9.67900         0.122161     -0.478717     -0.374677
      7.22085      8.07099      9.74902         0.005655      0.244671     -0.465576
      7.20404     12.47728      9.47404         0.710742     -0.054376      0.269964
     11.55263      4.17682      9.52386        -0.244097     -0.013432      0.475915
      9.15534      8.65452      1.46505         0.271863      0.249040     -0.047382
     11.38938      0.39109      7.10965        -0.328250     -0.042028      0.210006
      3.06648      4.67549      7.27184         0.105425     -0.738763     -0.682176
      2.61217      8.65585      6.93437         0.191685     -0.683876      0.344326
      7.01345      0.07070      6.99118        -0.209549     -0.229894      0.092483
      7.00193      4.27034      7.05395         0.006445      0.130077      0.326571
      7.11558      8.60961      7.09707        -0.004143     -0.024126      0.453347
     11.04358      4.09749      7.04545         0.079181      0.326804     -0.176437
      9.12860     12.49457      3.79391        -0.450564      0.279437      1.150104
      0.66960      0.23029      4.03285        -0.102869      0.261245     -0.362967
      0.90783      4.23434      3.93192         0.401234      0.159545     -0.140116
      0.82083      8.35992      3.92764         0.124383     -0.111331     -0.118633
      5.19540      0.10240      4.01938        -0.191615     -0.428916     -0.189154
      4.98807      4.16149      3.90113         0.281341      0.802114     -0.128791
      4.75483      8.71540      4.23655         0.098528     -0.103757     -0.304011
      2.80277      0.21050      7.15812         0.245501      0.000159     -0.026135
     11.04208      8.47378      7.14915         0.504258     -0.365358     -0.050934
     11.18048     10.61303      1.49198        -0.486735     -0.202863     -0.440271
      3.12360      2.18385      1.51413         0.032309     -0.380022      0.645734
     10.91939      2.42443      1.66593        -0.176422     -0.168718     -0.080561
      8.83360      4.59492      3.90133         0.019420     -0.331139      0.287843
      0.89535      2.30899      9.83733         0.171193      0.229323     -0.949751
      0.61866      6.34823      9.47918        -0.048608      0.114941      0.741843
      0.84646     10.59582      9.29864        -0.194950      0.305818      0.054323
      4.92662      2.21419      9.29291         0.358821      0.058912      0.465319
      5.08683      6.56805      9.48851        -0.108832      0.011428     -0.049016
      4.89126     10.37834      9.44223        -0.268546      0.509604      1.162665
      9.01188      2.05472      9.48054        -0.499590      0.253539      0.189767
      9.06132      6.26243      9.55157         0.102246      0.235044      0.095425
      9.29695     10.51541      9.42740        -0.312370      0.902145      0.138502
      2.94717      6.41200      1.50110         0.382201     -0.026577      0.356688
      2.61122     10.58081      1.55481         0.277624      0.428315     -0.268999
      6.97249      2.24482      1.55652         0.088899      0.312268      0.459510
      6.76506      6.64422      1.77592         0.113407      0.030565     -0.447430
      7.14825     10.36581      1.73986        -0.235373     -0.061778     -0.304336
     11.28849      6.29995      1.55161         0.068446     -0.403761     -0.079860
      9.38586      8.18896      3.96109         0.109045      0.810866     -0.007072
 -----------------------------------------------------------------------------------
    total drift:                                0.000755      0.000562      0.000153


--------------------------------------------------------------------------------------------------------



  FREE ENERGIE OF THE ION-ELECTRON SYSTEM (eV)
  ---------------------------------------------------
  free  energy   TOTEN  =      -300.72284653 eV

  energy  without entropy=     -300.72284653  energy(sigma->0) =     -300.72284653
 


--------------------------------------------------------------------------------------------------------


    POTLOK:  cpu time      0.7267: real time      0.7294


--------------------------------------------------------------------------------------------------------


     LOOP+:  cpu time    181.2400: real time    182.1552
    4ORBIT:  cpu time      0.0000: real time      0.0000



 total charge

# of ion       s       p       d       tot
------------------------------------------
    1        1.320   0.761   0.050   2.132
    2        1.331   0.754   0.053   2.138
    3        1.332   0.723   0.052   2.107
    4        1.312   0.817   0.064   2.193
    5        1.326   0.750   0.056   2.133
    6        1.319   0.782   0.053   2.154
    7        1.324   0.771   0.059   2.154
    8        1.305   0.823   0.064   2.193
    9        1.321   0.753   0.052   2.127
   10        1.310   0.832   0.063   2.205
   11        1.338   0.713   0.052   2.103
   12        1.312   0.792   0.058   2.162
   13        1.327   0.750   0.056   2.132
   14        1.320   0.792   0.062   2.174
   15        1.318   0.772   0.059   2.149
   16        1.319   0.781   0.056   2.156
   17        1.329   0.731   0.049   2.109
   18        1.316   0.782   0.056   2.154
   19        1.303   0.816   0.061   2.180
   20        1.332   0.718   0.053   2.102
   21        1.337   0.702   0.048   2.087
   22        1.330   0.742   0.052   2.124
   23        1.316   0.788   0.058   2.162
   24        1.319   0.777   0.055   2.151
   25        1.318   0.753   0.054   2.125
   26        1.309   0.830   0.063   2.202
   27        1.321   0.763   0.053   2.137
   28        1.327   0.775   0.058   2.160
   29        1.316   0.787   0.059   2.162
   30        1.336   0.725   0.051   2.112
   31        1.327   0.731   0.050   2.109
   32        1.335   0.701   0.048   2.084
   33        1.321   0.760   0.053   2.134
   34        1.326   0.738   0.050   2.114
   35        1.320   0.785   0.057   2.161
   36        1.324   0.745   0.053   2.123
   37        1.476   2.291   0.029   3.795
   38        1.474   2.344   0.037   3.856
   39        1.479   2.284   0.029   3.792
   40        1.481   2.300   0.035   3.816
   41        1.477   2.290   0.031   3.798
   42        1.477   2.275   0.027   3.779
   43        1.479   2.304   0.037   3.820
   44        1.472   2.338   0.035   3.846
   45        1.481   2.275   0.029   3.784
   46        1.476   2.306   0.033   3.815
   47        1.474   2.286   0.026   3.786
   48        1.478   2.292   0.030   3.800
   49        1.472   2.320   0.033   3.825
   50        1.482   2.299   0.038   3.819
   51        1.477   2.289   0.029   3.795
   52        1.475   2.315   0.034   3.825
   53        1.477   2.317   0.036   3.829
   54        1.479   2.275   0.027   3.780
   55        1.476   2.291   0.027   3.795
   56        1.474   2.315   0.032   3.821
   57        1.485   2.256   0.029   3.770
   58        1.477   2.316   0.034   3.827
   59        1.473   2.285   0.026   3.784
   60        1.474   2.313   0.033   3.819
   61        1.476   2.296   0.030   3.802
   62        1.476   2.324   0.036   3.836
   63        1.477   2.288   0.029   3.794
   64        1.477   2.296   0.032   3.805
   65        1.476   2.284   0.027   3.788
   66        1.478   2.289   0.031   3.798
   67        1.476   2.305   0.032   3.812
   68        1.477   2.316   0.035   3.828
   69        1.472   2.325   0.034   3.831
   70        1.476   2.304   0.032   3.812
   71        1.476   2.286   0.028   3.790
   72        1.475   2.322   0.035   3.833
--------------------------------------------------
tot        100.753 110.326   3.128 214.207



 magnetization (x)

# of ion       s       p       d       tot
------------------------------------------
    1       -0.000  -0.000  -0.000  -0.000
    2       -0.000  -0.000  -0.000  -0.000
    3       -0.000   0.000   0.000   0.000
    4       -0.000   0.000   0.000   0.000
    5       -0.000   0.000   0.000   0.000
    6       -0.000  -0.000  -0.000  -0.000
    7       -0.000   0.000  -0.000  -0.000
    8       -0.000  -0.000  -0.000  -0.000
    9       -0.000   0.000  -0.000   0.000
   10       -0.000  -0.000  -0.000  -0.000
   11       -0.000  -0.000  -0.000  -0.000
   12       -0.000   0.000   0.000   0.000
   13       -0.000   0.000   0.000   0.000
   14       -0.000   0.000   0.000   0.000
   15       -0.000   0.000  -0.000   0.000
   16       -0.000   0.000   0.000   0.000
   17       -0.000   0.000   0.000   0.000
   18       -0.000   0.000   0.000   0.000
   19       -0.000  -0.000  -0.000  -0.000
   20       -0.000  -0.000  -0.000  -0.000
   21       -0.000   0.000  -0.000  -0.000
   22       -0.000   0.000   0.000   0.000
   23       -0.000   0.000  -0.000  -0.000
   24       -0.000   0.000   0.000   0.000
   25       -0.000   0.000   0.000   0.000
   26       -0.000   0.000  -0.000   0.000
   27       -0.000   0.000   0.000   0.000
   28       -0.000   0.000   0.000   0.000
   29       -0.000   0.000   0.000   0.000
   30       -0.000   0.000   0.000   0.000
   31       -0.000   0.000   0.000   0.000
   32       -0.000   0.000   0.000   0.000
   33       -0.000   0.000   0.000   0.000
   34       -0.000   0.000   0.000   0.000
   35       -0.000   0.000   0.000   0.000
   36       -0.000   0.000  -0.000   0.000
   37       -0.000  -0.000  -0.000  -0.000
   38       -0.000  -0.000   0.000  -0.000
   39       -0.000  -0.000  -0.000  -0.000
   40       -0.000  -0.000   0.000  -0.000
   41       -0.000  -0.000   0.000  -0.000
   42       -0.000  -0.000   0.000  -0.000
   43       -0.000  -0.000   0.000  -0.000
   44       -0.000  -0.000  -0.000  -0.000
   45       -0.000  -0.000  -0.000  -0.000
   46       -0.000  -0.000   0.000  -0.000
   47       -0.000  -0.000  -0.000  -0.000
   48       -0.000  -0.000   0.000  -0.000
   49       -0.000  -0.000   0.000  -0.000
   50       -0.000  -0.000   0.000  -0.000
   51       -0.000  -0.000   0.000  -0.000
   52       -0.000  -0.000  -0.000  -0.000
   53       -0.000  -0.000  -0.000  -0.000
   54       -0.000  -0.000   0.000  -0.000
   55       -0.000  -0.000   0.000  -0.000
   56       -0.000  -0.000   0.000  -0.000
   57       -0.000  -0.000   0.000  -0.000
   58       -0.000  -0.000  -0.000  -0.000
   59       -0.000  -0.000  -0.000  -0.000
   60       -0.000  -0.000   0.000  -0.000
   61       -0.000  -0.000   0.000  -0.000
   62       -0.000  -0.000   0.000  -0.000
   63       -0.000  -0.000   0.000  -0.000
   64       -0.000  -0.000   0.000  -0.000
   65       -0.000  -0.000  -0.000  -0.000
   66       -0.000  -0.000   0.000  -0.000
   67       -0.000  -0.000  -0.000  -0.000
   68       -0.000  -0.000   0.000  -0.000
   69       -0.000  -0.000   0.000  -0.000
   70       -0.000  -0.000   0.000  -0.000
   71       -0.000  -0.000   0.000  -0.000
   72       -0.000  -0.000   0.000  -0.000
--------------------------------------------------
tot         -0.000  -0.000   0.000  -0.000
 

 total amount of memory used by VASP MPI-rank0   111163. kBytes
=======================================================================

   base      :      30000. kBytes
   nonl-proj :      16467. kBytes
   fftplans  :       6179. kBytes
   grid      :      15593. kBytes
   one-center:        146. kBytes
   wavefun   :      42778. kBytes
 
  
  
 General timing and accounting informations for this job:
 ========================================================
  
                  Total CPU time used (sec):      193.005
                            User time (sec):      187.110
                          System time (sec):        5.894
                         Elapsed time (sec):      195.331
  
                   Maximum memory used (kb):      315080.
                   Average memory used (kb):          N/A
  
                          Minor page faults:       103529
                          Major page faults:           70
                 Voluntary context switches:         6125
