 running  128 mpi-ranks, with    1 threads/rank, on    2 nodes
 distrk:  each k-point on   64 cores,    2 groups
 distr:  one band on    8 cores,    8 groups
 vasp.6.4.2 20Jul23 (build Oct 12 2023 10:31:02) complex                         
 POSCAR found type information on POSCAR GeSe
 POSCAR found :  2 types and      72 ions
 Reading from existing POTCAR
 -----------------------------------------------------------------------------
|                                                                             |
|           W    W    AA    RRRRR   N    N  II  N    N   GGGG   !!!           |
|           W    W   A  A   R    R  NN   N  II  NN   N  G    G  !!!           |
|           W    W  A    A  R    R  N N  N  II  N N  N  G       !!!           |
|           W WW W  AAAAAA  RRRRR   N  N N  II  N  N N  G  GGG   !            |
|           WW  WW  A    A  R   R   N   NN  II  N   NN  G    G                |
|           W    W  A    A  R    R  N    N  II  N    N   GGGG   !!!           |
|                                                                             |
|     You use a magnetic or noncollinear calculation, but did not specify     |
|     the initial magnetic moment with the MAGMOM tag. Note that a            |
|     default of 1 will be used for all atoms. This ferromagnetic setup       |
|     may break the symmetry of the crystal, in particular it may rule        |
|     out finding an antiferromagnetic solution. Thence, we recommend         |
|     setting the initial magnetic moment manually or verifying carefully     |
|     that this magnetic setup is desired.                                    |
|                                                                             |
 -----------------------------------------------------------------------------

 scaLAPACK will be used
 Reading from existing POTCAR
 -----------------------------------------------------------------------------
|                                                                             |
|               ----> ADVICE to this user running VASP <----                  |
|                                                                             |
|     You have a (more or less) 'large supercell' and for larger cells it     |
|     might be more efficient to use real-space projection operators.         |
|     Therefore, try LREAL= Auto in the INCAR file.                           |
|     Mind: For very accurate calculation, you might also keep the            |
|     reciprocal projection scheme (i.e. LREAL=.FALSE.).                      |
|                                                                             |
 -----------------------------------------------------------------------------

 LDA part: xc-table for Pade appr. of Perdew
 -----------------------------------------------------------------------------
|                                                                             |
|           W    W    AA    RRRRR   N    N  II  N    N   GGGG   !!!           |
|           W    W   A  A   R    R  NN   N  II  NN   N  G    G  !!!           |
|           W    W  A    A  R    R  N N  N  II  N N  N  G       !!!           |
|           W WW W  AAAAAA  RRRRR   N  N N  II  N  N N  G  GGG   !            |
|           WW  WW  A    A  R   R   N   NN  II  N   NN  G    G                |
|           W    W  A    A  R    R  N    N  II  N    N   GGGG   !!!           |
|                                                                             |
|     The number of bands has been changed from the values supplied in        |
|     the INCAR file. This is a result of running the parallel version.       |
|     The orbitals not found in the WAVECAR file will be initialized with     |
|     random numbers, which is usually adequate. For correlated               |
|     calculations, however, you should redo the groundstate calculation.     |
|     I found NBANDS = 220. Now, NBANDS = 224.                                |
|                                                                             |
 -----------------------------------------------------------------------------

 POSCAR, INCAR and KPOINTS ok, starting setup
 FFT: planning ... GRIDC
 FFT: planning ... GRID_SOFT
 FFT: planning ... GRID
 WAVECAR not read
 WARNING: random wavefunctions but no delay for mixing, default for NELMDL
 entering main loop
       N       E                     dE             d eps       ncg     rms          rms(c)
DAV:   1     0.181676783862E+04    0.18168E+04   -0.14180E+05  7168   0.135E+03
DAV:   2    -0.642556861314E+02   -0.18810E+04   -0.18059E+04  8472   0.205E+02
DAV:   3    -0.281779144134E+03   -0.21752E+03   -0.21148E+03  8552   0.691E+01
DAV:   4    -0.289728472693E+03   -0.79493E+01   -0.78588E+01  8736   0.130E+01
DAV:   5    -0.290016509913E+03   -0.28804E+00   -0.28723E+00  9120   0.212E+00    0.292E+01
DAV:   6    -0.289736172762E+03    0.28034E+00   -0.26587E+01  7960   0.761E+00    0.173E+01
DAV:   7    -0.296981307832E+03   -0.72451E+01   -0.85840E+00  7992   0.447E+00    0.911E+00
DAV:   8    -0.300212771152E+03   -0.32315E+01   -0.17405E+00  8136   0.226E+00    0.326E+00
DAV:   9    -0.300585687884E+03   -0.37292E+00   -0.42085E-01  9040   0.101E+00    0.147E+00
DAV:  10    -0.300687843554E+03   -0.10216E+00   -0.93010E-02  8104   0.461E-01    0.730E-01
DAV:  11    -0.300719411558E+03   -0.31568E-01   -0.36085E-02  8944   0.281E-01    0.289E-01
DAV:  12    -0.300722719618E+03   -0.33081E-02   -0.44667E-03  8472   0.118E-01    0.108E-01
DAV:  13    -0.300722824286E+03   -0.10467E-03   -0.61553E-04  9880   0.386E-02    0.472E-02
DAV:  14    -0.300722842202E+03   -0.17916E-04   -0.96773E-05  8304   0.191E-02    0.174E-02
DAV:  15    -0.300722845802E+03   -0.35995E-05   -0.16926E-05  8584   0.880E-03    0.751E-03
DAV:  16    -0.300722846525E+03   -0.72329E-06   -0.14597E-06  4896   0.268E-03
   1 F= -.30072285E+03 E0= -.30072285E+03  d E =-.241219E-15  mag=     0.0005
