 running  160 mpi-ranks, with    1 threads/rank, on   10 nodes
 distrk:  each k-point on   80 cores,    2 groups
 distr:  one band on    5 cores,   16 groups
 vasp.6.4.2 20Jul23 (build Oct 12 2023 10:31:02) complex                         
 POSCAR found type information on POSCAR GeSe
 POSCAR found :  2 types and       8 ions
 Reading from existing POTCAR
 scaLAPACK will be used
 Reading from existing POTCAR
 LDA part: xc-table for Pade appr. of Perdew
 POSCAR, INCAR and KPOINTS ok, starting setup
 FFT: planning ... GRIDC
 FFT: planning ... GRID_SOFT
 FFT: planning ... GRID
 WAVECAR not read
 entering main loop
       N       E                     dE             d eps       ncg     rms          rms(c)
DAV:   1     0.162093139051E+03    0.16209E+03   -0.15852E+04  2560   0.104E+03
DAV:   2    -0.222487767502E+02   -0.18434E+03   -0.17915E+03  3648   0.153E+02
DAV:   3    -0.336837785059E+02   -0.11435E+02   -0.11389E+02  3360   0.443E+01
DAV:   4    -0.337716378790E+02   -0.87859E-01   -0.87846E-01  3200   0.440E+00
DAV:   5    -0.337721945555E+02   -0.55668E-03   -0.55665E-03  3328   0.358E-01    0.663E+00
DAV:   6    -0.334265271383E+02    0.34567E+00   -0.80617E-01  3120   0.287E+00    0.416E+00
DAV:   7    -0.334140990959E+02    0.12428E-01   -0.19253E-01  2896   0.160E+00    0.129E+00
DAV:   8    -0.334141333687E+02   -0.34273E-04   -0.15796E-02  3264   0.495E-01    0.171E-01
DAV:   9    -0.334144662860E+02   -0.33292E-03   -0.28728E-03  3088   0.234E-01    0.634E-02
DAV:  10    -0.334146131531E+02   -0.14687E-03   -0.33043E-04  3360   0.762E-02    0.222E-02
DAV:  11    -0.334146422184E+02   -0.29065E-04   -0.41114E-05  2944   0.282E-02    0.108E-02
DAV:  12    -0.334146435657E+02   -0.13473E-05   -0.72442E-06  3488   0.115E-02    0.279E-03
DAV:  13    -0.334146443247E+02   -0.75894E-06   -0.87269E-07  1632   0.417E-03
   1 F= -.33414644E+02 E0= -.33414275E+02  d E =-.739004E-03
