 vasp.6.4.2 20Jul23 (build Oct 12 2023 10:31:02) complex                         
 executed on              LinuxNV date 2025.05.19  00:13:02
 running  160 mpi-ranks, with    1 threads/rank, on   10 nodes
 distrk:  each k-point on   80 cores,    2 groups
 distr:  one band on NCORE=   5 cores,   16 groups


--------------------------------------------------------------------------------------------------------


 INCAR:
   ENCUT = 360.000000
   SIGMA = 0.050000
   EDIFF = 1.00e-06
   ALGO = Normal
   GGA = PE
   PREC = Normal
   SYSTEM = ./
   ICHARG = 2
   ISMEAR = 0
   ISPIN = 1
   ISTART = 0
   ISYM = 0
   KPAR = 2
   LMAXMIX = 4
   NELM = 100
   NPAR = 16
   LASPH = .TRUE.
   LCHARG = .FALSE.
   LWAVE = .FALSE.

 POTCAR:    PAW_PBE Ge 05Jan2001                  
 POTCAR:    PAW_PBE Se 06Sep2000                  
 POTCAR:    PAW_PBE Ge 05Jan2001                  
   VRHFIN =Ge: s2p2                                                                                 
   LEXCH  = PE                                                                                      
   EATOM  =   104.9960 eV,    7.7170 Ry                                                             
                                                                                                    
   TITEL  = PAW_PBE Ge 05Jan2001                                                                    
   LULTRA =        F    use ultrasoft PP ?                                                          
   IUNSCR =        1    unscreen: 0-lin 1-nonlin 2-no                                               
   RPACOR =    2.170    partial core radius                                                         
   POMASS =   72.610; ZVAL   =    4.000    mass and valenz                                          
   RCORE  =    2.300    outmost cutoff radius                                                       
   RWIGS  =    2.300; RWIGS  =    1.217    wigner-seitz radius (au A)                               
   ENMAX  =  173.807; ENMIN  =  130.355 eV                                                          
   ICORE  =        3    local potential                                                             
   LCOR   =        T    correct aug charges                                                         
   LPAW   =        T    paw PP                                                                      
   EAUG   =  385.843                                                                                
   DEXC   =    0.000                                                                                
   RMAX   =    2.342    core radius for proj-oper                                                   
   RAUG   =    1.300    factor for augmentation sphere                                              
   RDEP   =    2.318    radius for radial grids                                                     
   RDEPT  =    2.103    core radius for aug-charge                                                  
                                                                                                    
   Atomic configuration                                                                             
   10 entries                                                                                       
     n  l   j            E        occ.                                                              
     1  0  0.50    -10959.8463   2.0000                                                             
     2  0  0.50     -1371.6056   2.0000                                                             
     2  1  1.50     -1198.4791   6.0000                                                             
     3  0  0.50      -168.4733   2.0000                                                             
     3  1  1.50      -115.6019   6.0000                                                             
     3  2  2.50       -29.3106  10.0000                                                             
     4  0  0.50       -11.7309   2.0000                                                             
     4  1  0.50        -3.8952   2.0000                                                             
     4  2  1.50        -4.0817   0.0000                                                             
     4  3  2.50        -4.0817   0.0000                                                             
   Description                                                                                      
     l       E           TYP  RCUT    TYP  RCUT                                                     
     0    -11.7309493     23  2.300                                                                 
     0     -7.4578696     23  2.300                                                                 
     1     -3.8952261     23  2.300                                                                 
     1      6.1178114     23  2.300                                                                 
     2     -4.0817478     23  2.300                                                                 
     3     -1.3605826      7  2.300                                                                 
  local pseudopotential read in
  partial core-charges read in
  partial kinetic energy density read in
  atomic valenz-charges read in
  non local Contribution for L=            0  read in
    real space projection operators read in
  non local Contribution for L=            0  read in
    real space projection operators read in
  non local Contribution for L=            1  read in
    real space projection operators read in
  non local Contribution for L=            1  read in
    real space projection operators read in
  non local Contribution for L=            2  read in
    real space projection operators read in
    PAW grid and wavefunctions read in
 
   number of l-projection  operators is LMAX  =            5
   number of lm-projection operators is LMMAX =           13
 
 POTCAR:    PAW_PBE Se 06Sep2000                  
   VRHFIN =Se: s2p4                                                                                 
   LEXCH  = PE                                                                                      
   EATOM  =   257.1286 eV,   18.8984 Ry                                                             
                                                                                                    
   TITEL  = PAW_PBE Se 06Sep2000                                                                    
   LULTRA =        F    use ultrasoft PP ?                                                          
   IUNSCR =        1    unscreen: 0-lin 1-nonlin 2-no                                               
   RPACOR =    1.900    partial core radius                                                         
   POMASS =   78.960; ZVAL   =    6.000    mass and valenz                                          
   RCORE  =    2.100    outmost cutoff radius                                                       
   RWIGS  =    2.200; RWIGS  =    1.164    wigner-seitz radius (au A)                               
   ENMAX  =  211.555; ENMIN  =  158.666 eV                                                          
   ICORE  =        3    local potential                                                             
   LCOR   =        T    correct aug charges                                                         
   LPAW   =        T    paw PP                                                                      
   EAUG   =  446.842                                                                                
   DEXC   =    0.000                                                                                
   RMAX   =    2.147    core radius for proj-oper                                                   
   RAUG   =    1.300    factor for augmentation sphere                                              
   RDEP   =    2.177    radius for radial grids                                                     
   RDEPT  =    1.928    core radius for aug-charge                                                  
                                                                                                    
   Atomic configuration                                                                             
   10 entries                                                                                       
     n  l   j            E        occ.                                                              
     1  0  0.50    -12503.4787   2.0000                                                             
     2  0  0.50     -1606.9547   2.0000                                                             
     2  1  1.50     -1413.3140   6.0000                                                             
     3  0  0.50      -213.4885   2.0000                                                             
     3  1  1.50      -152.9538   6.0000                                                             
     3  2  2.50       -53.1221  10.0000                                                             
     4  0  0.50       -17.2865   2.0000                                                             
     4  1  0.50        -6.5110   4.0000                                                             
     4  2  2.50        -6.8029   0.0000                                                             
     4  3  2.50        -6.8029   0.0000                                                             
   Description                                                                                      
     l       E           TYP  RCUT    TYP  RCUT                                                     
     0    -17.2865377     23  2.100                                                                 
     0    -15.3094411     23  2.100                                                                 
     1     -6.5110275     23  2.100                                                                 
     1     -0.0695192     23  2.100                                                                 
     2     -6.8029130     23  2.100                                                                 
     3     -1.3605826      7  2.100                                                                 
  local pseudopotential read in
  partial core-charges read in
  partial kinetic energy density read in
  atomic valenz-charges read in
  non local Contribution for L=            0  read in
    real space projection operators read in
  non local Contribution for L=            0  read in
    real space projection operators read in
  non local Contribution for L=            1  read in
    real space projection operators read in
  non local Contribution for L=            1  read in
    real space projection operators read in
  non local Contribution for L=            2  read in
    real space projection operators read in
    PAW grid and wavefunctions read in
 
   number of l-projection  operators is LMAX  =            5
   number of lm-projection operators is LMMAX =           13
 
  PAW_PBE Ge 05Jan2001                  :
 energy of atom  1       EATOM= -104.9960
 kinetic energy error for atom=    0.0005 (will be added to EATOM!!)
  PAW_PBE Se 06Sep2000                  :
 energy of atom  2       EATOM= -257.1286
 kinetic energy error for atom=    0.0030 (will be added to EATOM!!)
 
 
 POSCAR: Ge Se
  positions in cartesian coordinates
  No initial velocities read in
 exchange correlation table for  LEXCH =        8
   RHO(1)=    0.500       N(1)  =     2000
   RHO(2)=  100.500       N(2)  =     4000
 


--------------------------------------------------------------------------------------------------------


 ion  position               nearest neighbor table
   1  0.293  0.473  0.132-   5 2.59   6 2.60   6 2.60
   2  0.793  0.973  0.368-   6 2.59   5 2.60   5 2.60
   3  0.750  0.904  0.868-   7 2.59   8 2.60   8 2.60
   4  0.250  0.404  0.632-   8 2.59   7 2.60   7 2.60
   5  0.293  0.356  0.351-   1 2.59   2 2.60   2 2.60
   6  0.793  0.856  0.149-   2 2.59   1 2.60   1 2.60
   7  0.750  0.021  0.649-   3 2.59   4 2.60   4 2.60
   8  0.250  0.521  0.851-   4 2.59   3 2.60   3 2.60
 

IMPORTANT INFORMATION: All symmetrisations will be switched off!
NOSYMM: (Re-)initialisation of all symmetry stuff for point group C_1.


----------------------------------------------------------------------------------------

                                     Primitive cell                                     

  volume of cell :     202.3233

  direct lattice vectors                    reciprocal lattice vectors
     3.858100176  0.000000000  0.000000000     0.259194929  0.000000000  0.000000000
     0.000000000  4.526575088  0.000000000     0.000000000  0.220917577  0.000000000
     0.000000000  0.000000000 11.585176468     0.000000000  0.000000000  0.086317200

  length of vectors
     3.858100176  4.526575088 11.585176468     0.259194929  0.220917577  0.086317200

  position of ions in fractional coordinates (direct lattice)
     0.293478264  0.473054952  0.131971745
     0.793478228  0.973054939  0.368028228
     0.749999855  0.903756548  0.868028249
     0.249999781  0.403756501  0.631971759
     0.293478248  0.356277299  0.351109927
     0.793478264  0.856277320  0.148890049
     0.749999761  0.020534152  0.648890076
     0.249999838  0.520534176  0.851109946

  ion indices of the primitive-cell ions
   primitive index   ion index
                 1           1
                 2           2
                 3           3
                 4           4
                 5           5
                 6           6
                 7           7
                 8           8

----------------------------------------------------------------------------------------

 
 
 KPOINTS: KPOINTS created by Atomic Simulation Env

Automatic generation of k-mesh.
 Grid dimensions read from file:
 generate k-points for:    6    6    2

 Generating k-lattice:

  Cartesian coordinates                     Fractional coordinates (reciprocal lattice)
     0.043199155  0.000000000  0.000000000     0.166666667  0.000000000  0.000000000
     0.000000000  0.036819596  0.000000000     0.000000000  0.166666667  0.000000000
     0.000000000  0.000000000  0.043158600     0.000000000  0.000000000  0.500000000

  Length of vectors
     0.043199155  0.036819596  0.043158600

  Shift w.r.t. Gamma in fractional coordinates (k-lattice)
     0.000000000  0.000000000  0.000000000

 
 Subroutine IBZKPT returns following result:
 ===========================================
 
 Found     40 irreducible k-points:
 
 Following reciprocal coordinates:
            Coordinates               Weight
  0.000000  0.000000  0.000000      1.000000
  0.166667  0.000000  0.000000      2.000000
  0.333333  0.000000  0.000000      2.000000
  0.500000  0.000000  0.000000      1.000000
  0.000000  0.166667  0.000000      2.000000
  0.166667  0.166667  0.000000      2.000000
  0.166667 -0.166667  0.000000      2.000000
  0.333333  0.166667  0.000000      2.000000
  0.333333 -0.166667  0.000000      2.000000
  0.500000  0.166667  0.000000      2.000000
  0.000000  0.333333  0.000000      2.000000
  0.166667  0.333333  0.000000      2.000000
  0.166667 -0.333333  0.000000      2.000000
  0.333333  0.333333  0.000000      2.000000
  0.333333 -0.333333  0.000000      2.000000
  0.500000  0.333333  0.000000      2.000000
  0.000000  0.500000  0.000000      1.000000
  0.166667  0.500000  0.000000      2.000000
  0.333333  0.500000  0.000000      2.000000
  0.500000  0.500000  0.000000      1.000000
  0.000000  0.000000  0.500000      1.000000
  0.166667  0.000000  0.500000      2.000000
  0.333333  0.000000  0.500000      2.000000
  0.500000  0.000000  0.500000      1.000000
  0.000000  0.166667  0.500000      2.000000
  0.166667  0.166667  0.500000      2.000000
  0.166667 -0.166667  0.500000      2.000000
  0.333333  0.166667  0.500000      2.000000
  0.333333 -0.166667  0.500000      2.000000
  0.500000  0.166667  0.500000      2.000000
  0.000000  0.333333  0.500000      2.000000
  0.166667  0.333333  0.500000      2.000000
  0.166667 -0.333333  0.500000      2.000000
  0.333333  0.333333  0.500000      2.000000
  0.333333 -0.333333  0.500000      2.000000
  0.500000  0.333333  0.500000      2.000000
  0.000000  0.500000  0.500000      1.000000
  0.166667  0.500000  0.500000      2.000000
  0.333333  0.500000  0.500000      2.000000
  0.500000  0.500000  0.500000      1.000000
 
 Following cartesian coordinates:
            Coordinates               Weight
  0.000000  0.000000  0.000000      1.000000
  0.043199  0.000000  0.000000      2.000000
  0.086398  0.000000  0.000000      2.000000
  0.129597  0.000000  0.000000      1.000000
  0.000000  0.036820  0.000000      2.000000
  0.043199  0.036820  0.000000      2.000000
  0.043199 -0.036820  0.000000      2.000000
  0.086398  0.036820  0.000000      2.000000
  0.086398 -0.036820  0.000000      2.000000
  0.129597  0.036820  0.000000      2.000000
  0.000000  0.073639  0.000000      2.000000
  0.043199  0.073639  0.000000      2.000000
  0.043199 -0.073639  0.000000      2.000000
  0.086398  0.073639  0.000000      2.000000
  0.086398 -0.073639  0.000000      2.000000
  0.129597  0.073639  0.000000      2.000000
  0.000000  0.110459  0.000000      1.000000
  0.043199  0.110459  0.000000      2.000000
  0.086398  0.110459  0.000000      2.000000
  0.129597  0.110459  0.000000      1.000000
  0.000000  0.000000  0.043159      1.000000
  0.043199  0.000000  0.043159      2.000000
  0.086398  0.000000  0.043159      2.000000
  0.129597  0.000000  0.043159      1.000000
  0.000000  0.036820  0.043159      2.000000
  0.043199  0.036820  0.043159      2.000000
  0.043199 -0.036820  0.043159      2.000000
  0.086398  0.036820  0.043159      2.000000
  0.086398 -0.036820  0.043159      2.000000
  0.129597  0.036820  0.043159      2.000000
  0.000000  0.073639  0.043159      2.000000
  0.043199  0.073639  0.043159      2.000000
  0.043199 -0.073639  0.043159      2.000000
  0.086398  0.073639  0.043159      2.000000
  0.086398 -0.073639  0.043159      2.000000
  0.129597  0.073639  0.043159      2.000000
  0.000000  0.110459  0.043159      1.000000
  0.043199  0.110459  0.043159      2.000000
  0.086398  0.110459  0.043159      2.000000
  0.129597  0.110459  0.043159      1.000000
 


--------------------------------------------------------------------------------------------------------




 Dimension of arrays:
   k-points           NKPTS =     40   k-points in BZ     NKDIM =     40   number of bands    NBANDS=     32
   number of dos      NEDOS =    301   number of ions     NIONS =      8
   non local maximal  LDIM  =      5   non local SUM 2l+1 LMDIM =     13
   total plane-waves  NPLWV =  23328
   max r-space proj   IRMAX =      1   max aug-charges    IRDMAX=   6465
   dimension x,y,z NGX =    18 NGY =   24 NGZ =   54
   dimension x,y,z NGXF=    36 NGYF=   48 NGZF=  108
   support grid    NGXF=    36 NGYF=   48 NGZF=  108
   ions per type =               4   4
   NGX,Y,Z   is equivalent  to a cutoff of   7.76,  8.81,  7.75 a.u.
   NGXF,Y,Z  is equivalent  to a cutoff of  15.51, 17.63, 15.50 a.u.

 SYSTEM =  ./                                      
 POSCAR =  Ge Se                                   

 Startparameter for this run:
   NWRITE =      2    write-flag & timer
   PREC   = normal    normal or accurate (medium, high low for compatibility)
   ISTART =      0    job   : 0-new  1-cont  2-samecut
   ICHARG =      2    charge: 1-file 2-atom 10-const
   ISPIN  =      1    spin polarized calculation?
   LNONCOLLINEAR =      F non collinear calculations
   LSORBIT =      F    spin-orbit coupling
   INIWAV =      1    electr: 0-lowe 1-rand  2-diag
   LASPH  =      T    aspherical Exc in radial PAW
 Electronic Relaxation 1
   ENCUT  =  360.0 eV  26.46 Ry    5.14 a.u.   5.97  7.00 17.92*2*pi/ulx,y,z
   ENINI  =  360.0     initial cutoff
   ENAUG  =  446.8 eV  augmentation charge cutoff
   NELM   =    100;   NELMIN=  2; NELMDL= -5     # of ELM steps 
   EDIFF  = 0.1E-05   stopping-criterion for ELM
   LREAL  =      F    real-space projection
   NLSPLINE    = F    spline interpolate recip. space projectors
   LCOMPAT=      F    compatible to vasp.4.4
   GGA_COMPAT  = T    GGA compatible to vasp.4.4-vasp.4.6
   LMAXPAW     = -100 max onsite density
   LMAXMIX     =    4 max onsite mixed and CHGCAR
   VOSKOWN=      0    Vosko Wilk Nusair interpolation
   ROPT   =    0.00000   0.00000
 Ionic relaxation
   EDIFFG = 0.1E-04   stopping-criterion for IOM
   NSW    =      0    number of steps for IOM
   NBLOCK =      1;   KBLOCK =      1    inner block; outer block 
   IBRION =     -1    ionic relax: 0-MD 1-quasi-New 2-CG
   NFREE  =      0    steps in history (QN), initial steepest desc. (CG)
   ISIF   =      2    stress and relaxation
   IWAVPR =     10    prediction:  0-non 1-charg 2-wave 3-comb
   ISYM   =      0    0-nonsym 1-usesym 2-fastsym
   LCORR  =      T    Harris-Foulkes like correction to forces

   POTIM  = 0.5000    time-step for ionic-motion
   TEIN   =    0.0    initial temperature
   TEBEG  =    0.0;   TEEND  =   0.0 temperature during run
   SMASS  =  -3.00    Nose mass-parameter (am)
   estimated Nose-frequenzy (Omega)   =  0.10E-29 period in steps = 0.13E+47 mass=  -0.340E-27a.u.
   SCALEE = 1.0000    scale energy and forces
   NPACO  =    256;   APACO  = 10.0  distance and # of slots for P.C.
   PSTRESS=    0.0 pullay stress

  Mass of Ions in am
   POMASS =  72.61 78.96
  Ionic Valenz
   ZVAL   =   4.00  6.00
  Atomic Wigner-Seitz radii
   RWIGS  =  -1.00 -1.00
  virtual crystal weights 
   VCA    =   1.00  1.00
   NELECT =      40.0000    total number of electrons
   NUPDOWN=      -1.0000    fix difference up-down

 DOS related values:
   EMIN   =  10.00;   EMAX   =-10.00  energy-range for DOS
   EFERMI =   0.00;   METHOD = LEGACY      
   ISMEAR =     0;   SIGMA  =   0.05  broadening in eV -4-tet -1-fermi 0-gaus

 Electronic relaxation 2 (details)
   IALGO  =     38    algorithm
   LDIAG  =      T    sub-space diagonalisation (order eigenvalues)
   LSUBROT=      F    optimize rotation matrix (better conditioning)
   TURBO    =      0    0=normal 1=particle mesh
   IRESTART =      0    0=no restart 2=restart with 2 vectors
   NREBOOT  =      0    no. of reboots
   NMIN     =      0    reboot dimension
   EREF     =   0.00    reference energy to select bands
   IMIX   =      4    mixing-type and parameters
     AMIX     =   0.40;   BMIX     =  1.00
     AMIX_MAG =   1.60;   BMIX_MAG =  1.00
     AMIN     =   0.10
     WC   =   100.;   INIMIX=   1;  MIXPRE=   1;  MAXMIX= -45

 Intra band minimization:
   WEIMIN = 0.0000     energy-eigenvalue tresh-hold
   EBREAK =  0.78E-08  absolut break condition
   DEPER  =   0.30     relativ break condition  

   TIME   =   0.40     timestep for ELM

  volume/ion in A,a.u.               =      25.29       170.67
  Fermi-wavevector in a.u.,A,eV,Ry     =   0.953702  1.802236 12.375155  0.909548
  Thomas-Fermi vector in A             =   2.082382
 
 Write flags
   LWAVE        =      F    write WAVECAR
   LDOWNSAMPLE  =      F    k-point downsampling of WAVECAR
   LCHARG       =      F    write CHGCAR
   LVTOT        =      F    write LOCPOT, total local potential
   LVHAR        =      F    write LOCPOT, Hartree potential only
   LELF         =      F    write electronic localiz. function (ELF)
   LORBIT       =      0    0 simple, 1 ext, 2 COOP (PROOUT), +10 PAW based schemes


 Dipole corrections
   LMONO  =      F    monopole corrections only (constant potential shift)
   LDIPOL =      F    correct potential (dipole corrections)
   IDIPOL =      0    1-x, 2-y, 3-z, 4-all directions 
   EPSILON=  1.0000000 bulk dielectric constant

 Exchange correlation treatment:
   GGA     =    PE    GGA type
   LEXCH   =     8    internal setting for exchange type
   LIBXC   =     F    Libxc                    
   VOSKOWN =     0    Vosko Wilk Nusair interpolation
   LHFCALC =     F    Hartree Fock is set to
   LHFONE  =     F    Hartree Fock one center treatment
   AEXX    =    0.0000 exact exchange contribution

 Linear response parameters
   LEPSILON=     F    determine dielectric tensor
   LRPA    =     F    only Hartree local field effects (RPA)
   LNABLA  =     F    use nabla operator in PAW spheres
   LVEL    =     F    velocity operator in full k-point grid
   CSHIFT  =0.1000    complex shift for real part using Kramers Kronig
   OMEGAMAX=  -1.0    maximum frequency
   DEG_THRESHOLD= 0.2000000E-02 threshold for treating states as degnerate
   RTIME   =   -0.100 relaxation time in fs
  (WPLASMAI=    0.000 imaginary part of plasma frequency in eV, 0.658/RTIME)
   DFIELD  = 0.0000000 0.0000000 0.0000000 field for delta impulse in time
 
  Optional k-point grid parameters
   LKPOINTS_OPT  =     F    use optional k-point grid
   KPOINTS_OPT_MODE=     1    mode for optional k-point grid
 
 Orbital magnetization related:
   ORBITALMAG=     F  switch on orbital magnetization
   LCHIMAG   =     F  perturbation theory with respect to B field
   DQ        =  0.001000  dq finite difference perturbation B field
   LLRAUG    =     F  two centre corrections for induced B field
   LBONE     =     F  B-component reconstruction in AE one-centre
   LVGVCALC  =     T  calculate vGv susceptibility
   LVGVAPPL  =     F  apply vGv susceptibility instead of pGv for G=0

 Random number generation:
   RANDOM_GENERATOR = DEFAULT
   PCG_SEED         = not used


--------------------------------------------------------------------------------------------------------


 Static calculation
 charge density and potential will be updated during run
 non-spin polarized calculation
 Variant of blocked Davidson
 Davidson routine will perform the subspace rotation
 perform sub-space diagonalisation
    after iterative eigenvector-optimisation
 modified Broyden-mixing scheme, WC =      100.0
 initial mixing is a Kerker type mixing with AMIX =  0.4000 and BMIX =      1.0000
 Hartree-type preconditioning will be used
 using additional bands            12
 reciprocal scheme for non local part
 use partial core corrections
 calculate Harris-corrections to forces 
   (improved forces if not selfconsistent)
 use gradient corrections 
 use of overlap-Matrix (Vanderbilt PP)
 Gauss-broadening in eV      SIGMA  =   0.05


--------------------------------------------------------------------------------------------------------


  energy-cutoff  :      360.00
  volume of cell :      202.32
      direct lattice vectors                 reciprocal lattice vectors
     3.858100176  0.000000000  0.000000000     0.259194929  0.000000000  0.000000000
     0.000000000  4.526575088  0.000000000     0.000000000  0.220917577  0.000000000
     0.000000000  0.000000000 11.585176468     0.000000000  0.000000000  0.086317200

  length of vectors
     3.858100176  4.526575088 11.585176468     0.259194929  0.220917577  0.086317200


 
 k-points in units of 2pi/SCALE and weight: KPOINTS created by Atomic Simulation Env
   0.00000000  0.00000000  0.00000000       0.014
   0.04319915  0.00000000  0.00000000       0.028
   0.08639831  0.00000000  0.00000000       0.028
   0.12959746  0.00000000  0.00000000       0.014
   0.00000000  0.03681960  0.00000000       0.028
   0.04319915  0.03681960  0.00000000       0.028
   0.04319915 -0.03681960  0.00000000       0.028
   0.08639831  0.03681960  0.00000000       0.028
   0.08639831 -0.03681960  0.00000000       0.028
   0.12959746  0.03681960  0.00000000       0.028
   0.00000000  0.07363919  0.00000000       0.028
   0.04319915  0.07363919  0.00000000       0.028
   0.04319915 -0.07363919  0.00000000       0.028
   0.08639831  0.07363919  0.00000000       0.028
   0.08639831 -0.07363919  0.00000000       0.028
   0.12959746  0.07363919  0.00000000       0.028
   0.00000000  0.11045879  0.00000000       0.014
   0.04319915  0.11045879  0.00000000       0.028
   0.08639831  0.11045879  0.00000000       0.028
   0.12959746  0.11045879  0.00000000       0.014
   0.00000000  0.00000000  0.04315860       0.014
   0.04319915  0.00000000  0.04315860       0.028
   0.08639831  0.00000000  0.04315860       0.028
   0.12959746  0.00000000  0.04315860       0.014
   0.00000000  0.03681960  0.04315860       0.028
   0.04319915  0.03681960  0.04315860       0.028
   0.04319915 -0.03681960  0.04315860       0.028
   0.08639831  0.03681960  0.04315860       0.028
   0.08639831 -0.03681960  0.04315860       0.028
   0.12959746  0.03681960  0.04315860       0.028
   0.00000000  0.07363919  0.04315860       0.028
   0.04319915  0.07363919  0.04315860       0.028
   0.04319915 -0.07363919  0.04315860       0.028
   0.08639831  0.07363919  0.04315860       0.028
   0.08639831 -0.07363919  0.04315860       0.028
   0.12959746  0.07363919  0.04315860       0.028
   0.00000000  0.11045879  0.04315860       0.014
   0.04319915  0.11045879  0.04315860       0.028
   0.08639831  0.11045879  0.04315860       0.028
   0.12959746  0.11045879  0.04315860       0.014
 
 k-points in reciprocal lattice and weights: KPOINTS created by Atomic Simulation Env
   0.00000000  0.00000000  0.00000000       0.014
   0.16666667  0.00000000  0.00000000       0.028
   0.33333333  0.00000000  0.00000000       0.028
   0.50000000  0.00000000  0.00000000       0.014
   0.00000000  0.16666667  0.00000000       0.028
   0.16666667  0.16666667  0.00000000       0.028
   0.16666667 -0.16666667  0.00000000       0.028
   0.33333333  0.16666667  0.00000000       0.028
   0.33333333 -0.16666667  0.00000000       0.028
   0.50000000  0.16666667  0.00000000       0.028
   0.00000000  0.33333333  0.00000000       0.028
   0.16666667  0.33333333  0.00000000       0.028
   0.16666667 -0.33333333  0.00000000       0.028
   0.33333333  0.33333333  0.00000000       0.028
   0.33333333 -0.33333333  0.00000000       0.028
   0.50000000  0.33333333  0.00000000       0.028
   0.00000000  0.50000000  0.00000000       0.014
   0.16666667  0.50000000  0.00000000       0.028
   0.33333333  0.50000000  0.00000000       0.028
   0.50000000  0.50000000  0.00000000       0.014
   0.00000000  0.00000000  0.50000000       0.014
   0.16666667  0.00000000  0.50000000       0.028
   0.33333333  0.00000000  0.50000000       0.028
   0.50000000  0.00000000  0.50000000       0.014
   0.00000000  0.16666667  0.50000000       0.028
   0.16666667  0.16666667  0.50000000       0.028
   0.16666667 -0.16666667  0.50000000       0.028
   0.33333333  0.16666667  0.50000000       0.028
   0.33333333 -0.16666667  0.50000000       0.028
   0.50000000  0.16666667  0.50000000       0.028
   0.00000000  0.33333333  0.50000000       0.028
   0.16666667  0.33333333  0.50000000       0.028
   0.16666667 -0.33333333  0.50000000       0.028
   0.33333333  0.33333333  0.50000000       0.028
   0.33333333 -0.33333333  0.50000000       0.028
   0.50000000  0.33333333  0.50000000       0.028
   0.00000000  0.50000000  0.50000000       0.014
   0.16666667  0.50000000  0.50000000       0.028
   0.33333333  0.50000000  0.50000000       0.028
   0.50000000  0.50000000  0.50000000       0.014
 
 position of ions in fractional coordinates (direct lattice) 
   0.29347826  0.47305495  0.13197174
   0.79347823  0.97305494  0.36802823
   0.74999985  0.90375655  0.86802825
   0.24999978  0.40375650  0.63197176
   0.29347825  0.35627730  0.35110993
   0.79347826  0.85627732  0.14889005
   0.74999976  0.02053415  0.64889008
   0.24999984  0.52053418  0.85110995
 
 position of ions in cartesian coordinates  (Angst):
   1.13226854  2.14131876  1.52891595
   3.06131849  4.40460625  4.26367197
   2.89357457  4.09092188 10.05626045
   0.96452420  1.82763412  7.32150435
   1.13226848  1.61271595  4.06767047
   3.06131863  3.87600358  1.72491749
   2.89357421  0.09294938  7.51750603
   0.96452442  2.35623703  9.86025892
 


--------------------------------------------------------------------------------------------------------


 k-point   1 :   0.0000 0.0000 0.0000  plane waves:    3119
 k-point   2 :   0.1667 0.0000 0.0000  plane waves:    3116
 k-point   3 :   0.3333 0.0000 0.0000  plane waves:    3142
 k-point   4 :   0.5000 0.0000 0.0000  plane waves:    3148
 k-point   5 :   0.0000 0.1667 0.0000  plane waves:    3108
 k-point   6 :   0.1667 0.1667 0.0000  plane waves:    3123
 k-point   7 :   0.1667-0.1667 0.0000  plane waves:    3123
 k-point   8 :   0.3333 0.1667 0.0000  plane waves:    3135
 k-point   9 :   0.3333-0.1667 0.0000  plane waves:    3135
 k-point  10 :   0.5000 0.1667 0.0000  plane waves:    3138
 k-point  11 :   0.0000 0.3333 0.0000  plane waves:    3116
 k-point  12 :   0.1667 0.3333 0.0000  plane waves:    3133
 k-point  13 :   0.1667-0.3333 0.0000  plane waves:    3133
 k-point  14 :   0.3333 0.3333 0.0000  plane waves:    3155
 k-point  15 :   0.3333-0.3333 0.0000  plane waves:    3155
 k-point  16 :   0.5000 0.3333 0.0000  plane waves:    3152
 k-point  17 :   0.0000 0.5000 0.0000  plane waves:    3134
 k-point  18 :   0.1667 0.5000 0.0000  plane waves:    3140
 k-point  19 :   0.3333 0.5000 0.0000  plane waves:    3144
 k-point  20 :   0.5000 0.5000 0.0000  plane waves:    3144
 k-point  21 :   0.0000 0.0000 0.5000  plane waves:    3092
 k-point  22 :   0.1667 0.0000 0.5000  plane waves:    3124
 k-point  23 :   0.3333 0.0000 0.5000  plane waves:    3140
 k-point  24 :   0.5000 0.0000 0.5000  plane waves:    3132
 k-point  25 :   0.0000 0.1667 0.5000  plane waves:    3112
 k-point  26 :   0.1667 0.1667 0.5000  plane waves:    3140
 k-point  27 :   0.1667-0.1667 0.5000  plane waves:    3140
 k-point  28 :   0.3333 0.1667 0.5000  plane waves:    3134
 k-point  29 :   0.3333-0.1667 0.5000  plane waves:    3134
 k-point  30 :   0.5000 0.1667 0.5000  plane waves:    3144
 k-point  31 :   0.0000 0.3333 0.5000  plane waves:    3130
 k-point  32 :   0.1667 0.3333 0.5000  plane waves:    3148
 k-point  33 :   0.1667-0.3333 0.5000  plane waves:    3148
 k-point  34 :   0.3333 0.3333 0.5000  plane waves:    3142
 k-point  35 :   0.3333-0.3333 0.5000  plane waves:    3142
 k-point  36 :   0.5000 0.3333 0.5000  plane waves:    3152
 k-point  37 :   0.0000 0.5000 0.5000  plane waves:    3132
 k-point  38 :   0.1667 0.5000 0.5000  plane waves:    3148
 k-point  39 :   0.3333 0.5000 0.5000  plane waves:    3140
 k-point  40 :   0.5000 0.5000 0.5000  plane waves:    3160

 maximum and minimum number of plane-waves per node :       659      606

 maximum number of plane-waves:      3160
 maximum index in each direction: 
   IXMAX=    5   IYMAX=    7   IZMAX=   17
   IXMIN=   -6   IYMIN=   -7   IZMIN=  -18


 parallel 3D FFT for wavefunctions:
    minimum data exchange during FFTs selected (reduces bandwidth)
 parallel 3D FFT for charge:
    minimum data exchange during FFTs selected (reduces bandwidth)


 total amount of memory used by VASP MPI-rank0    37119. kBytes
=======================================================================

   base      :      30000. kBytes
   nonl-proj :       5406. kBytes
   fftplans  :        334. kBytes
   grid      :        503. kBytes
   one-center:         16. kBytes
   wavefun   :        860. kBytes
 
     INWAV:  cpu time      0.0000: real time      0.0001
 Broyden mixing: mesh for mixing (old mesh)
   NGX = 11   NGY = 15   NGZ = 35
  (NGX  = 36   NGY  = 48   NGZ  =108)
  gives a total of   5775 points

 initial charge density was supplied:
 charge density of overlapping atoms calculated
 number of electron      40.0000000 magnetization 
 keeping initial charge density in first step


--------------------------------------------------------------------------------------------------------


 Maximum index for augmentation-charges           224 (set IRDMAX)


--------------------------------------------------------------------------------------------------------


 First call to EWALD:  gamma=   0.302
 Maximum number of real-space cells 4x 3x 2
 Maximum number of reciprocal cells 2x 2x 5

    FEWALD:  cpu time      0.0011: real time      0.0011


--------------------------------------- Ionic step        1  -------------------------------------------




--------------------------------------- Iteration      1(   1)  ---------------------------------------


    POTLOK:  cpu time      0.0083: real time      0.0084
    SETDIJ:  cpu time      0.2290: real time      0.2295
     EDDAV:  cpu time      0.3066: real time      0.3079
       DOS:  cpu time      0.0011: real time      0.0011
    --------------------------------------------
      LOOP:  cpu time      0.5449: real time      0.5468

 eigenvalue-minimisations  :  2560
 total energy-change (2. order) : 0.1324134E+03  (-0.1288216E+04)
 number of electron      40.0000000 magnetization 
 augmentation part       40.0000000 magnetization 

 Free energy of the ion-electron system (eV)
  ---------------------------------------------------
  alpha Z        PSCENC =        83.74935623
  Ewald energy   TEWEN  =     -1378.59082329
  -Hartree energ DENC   =      -150.36983944
  -exchange      EXHF   =         0.00000000
  -V(xc)+E(xc)   XCENC  =       -33.66155655
  PAW double counting   =      1193.78262552    -1080.73714043
  entropy T*S    EENTRO =        -0.00403381
  eigenvalues    EBANDS =        49.76021652
  atomic energy  EATOM  =      1448.48460880
  Solvation  Ediel_sol  =         0.00000000
  ---------------------------------------------------
  free energy    TOTEN  =       132.41341354 eV

  energy without entropy =      132.41744735  energy(sigma->0) =      132.41543045


--------------------------------------------------------------------------------------------------------




--------------------------------------- Iteration      1(   2)  ---------------------------------------


     EDDAV:  cpu time      0.4314: real time      0.4344
       DOS:  cpu time      0.0005: real time      0.0005
    --------------------------------------------
      LOOP:  cpu time      0.4319: real time      0.4349

 eigenvalue-minimisations  :  3728
 total energy-change (2. order) :-0.1574262E+03  (-0.1528186E+03)
 number of electron      40.0000000 magnetization 
 augmentation part       40.0000000 magnetization 

 Free energy of the ion-electron system (eV)
  ---------------------------------------------------
  alpha Z        PSCENC =        83.74935623
  Ewald energy   TEWEN  =     -1378.59082329
  -Hartree energ DENC   =      -150.36983944
  -exchange      EXHF   =         0.00000000
  -V(xc)+E(xc)   XCENC  =       -33.66155655
  PAW double counting   =      1193.78262552    -1080.73714043
  entropy T*S    EENTRO =        -0.00000000
  eigenvalues    EBANDS =      -107.67006572
  atomic energy  EATOM  =      1448.48460880
  Solvation  Ediel_sol  =         0.00000000
  ---------------------------------------------------
  free energy    TOTEN  =       -25.01283488 eV

  energy without entropy =      -25.01283488  energy(sigma->0) =      -25.01283488


--------------------------------------------------------------------------------------------------------




--------------------------------------- Iteration      1(   3)  ---------------------------------------


     EDDAV:  cpu time      0.3694: real time      0.3715
       DOS:  cpu time      0.0005: real time      0.0005
    --------------------------------------------
      LOOP:  cpu time      0.3699: real time      0.3720

 eigenvalue-minimisations  :  3248
 total energy-change (2. order) :-0.8946429E+01  (-0.8926950E+01)
 number of electron      40.0000000 magnetization 
 augmentation part       40.0000000 magnetization 

 Free energy of the ion-electron system (eV)
  ---------------------------------------------------
  alpha Z        PSCENC =        83.74935623
  Ewald energy   TEWEN  =     -1378.59082329
  -Hartree energ DENC   =      -150.36983944
  -exchange      EXHF   =         0.00000000
  -V(xc)+E(xc)   XCENC  =       -33.66155655
  PAW double counting   =      1193.78262552    -1080.73714043
  entropy T*S    EENTRO =        -0.00000000
  eigenvalues    EBANDS =      -116.61649505
  atomic energy  EATOM  =      1448.48460880
  Solvation  Ediel_sol  =         0.00000000
  ---------------------------------------------------
  free energy    TOTEN  =       -33.95926422 eV

  energy without entropy =      -33.95926422  energy(sigma->0) =      -33.95926422


--------------------------------------------------------------------------------------------------------




--------------------------------------- Iteration      1(   4)  ---------------------------------------


     EDDAV:  cpu time      0.3923: real time      0.3947
       DOS:  cpu time      0.0006: real time      0.0006
    --------------------------------------------
      LOOP:  cpu time      0.3929: real time      0.3953

 eigenvalue-minimisations  :  3280
 total energy-change (2. order) :-0.6486964E-01  (-0.6485641E-01)
 number of electron      40.0000000 magnetization 
 augmentation part       40.0000000 magnetization 

 Free energy of the ion-electron system (eV)
  ---------------------------------------------------
  alpha Z        PSCENC =        83.74935623
  Ewald energy   TEWEN  =     -1378.59082329
  -Hartree energ DENC   =      -150.36983944
  -exchange      EXHF   =         0.00000000
  -V(xc)+E(xc)   XCENC  =       -33.66155655
  PAW double counting   =      1193.78262552    -1080.73714043
  entropy T*S    EENTRO =        -0.00000000
  eigenvalues    EBANDS =      -116.68136470
  atomic energy  EATOM  =      1448.48460880
  Solvation  Ediel_sol  =         0.00000000
  ---------------------------------------------------
  free energy    TOTEN  =       -34.02413386 eV

  energy without entropy =      -34.02413386  energy(sigma->0) =      -34.02413386


--------------------------------------------------------------------------------------------------------




--------------------------------------- Iteration      1(   5)  ---------------------------------------


     EDDAV:  cpu time      0.3640: real time      0.3664
       DOS:  cpu time      0.0005: real time      0.0005
    CHARGE:  cpu time      0.0056: real time      0.0056
    MIXING:  cpu time      0.0004: real time      0.0004
    --------------------------------------------
      LOOP:  cpu time      0.3705: real time      0.3730

 eigenvalue-minimisations  :  3136
 total energy-change (2. order) :-0.4828798E-03  (-0.4828680E-03)
 number of electron      39.9999973 magnetization 
 augmentation part       -7.4494273 magnetization 

 Broyden mixing:
  rms(total) = 0.65036E+00    rms(broyden)= 0.65035E+00
  rms(prec ) = 0.73089E+00
  weight for this iteration     100.00

 Free energy of the ion-electron system (eV)
  ---------------------------------------------------
  alpha Z        PSCENC =        83.74935623
  Ewald energy   TEWEN  =     -1378.59082329
  -Hartree energ DENC   =      -150.36983944
  -exchange      EXHF   =         0.00000000
  -V(xc)+E(xc)   XCENC  =       -33.66155655
  PAW double counting   =      1193.78262552    -1080.73714043
  entropy T*S    EENTRO =        -0.00000000
  eigenvalues    EBANDS =      -116.68184758
  atomic energy  EATOM  =      1448.48460880
  Solvation  Ediel_sol  =         0.00000000
  ---------------------------------------------------
  free energy    TOTEN  =       -34.02461674 eV

  energy without entropy =      -34.02461674  energy(sigma->0) =      -34.02461674


--------------------------------------------------------------------------------------------------------




--------------------------------------- Iteration      1(   6)  ---------------------------------------


    POTLOK:  cpu time      0.0078: real time      0.0079
    SETDIJ:  cpu time      0.2164: real time      0.2169
     EDDAV:  cpu time      0.3676: real time      0.3695
       DOS:  cpu time      0.0012: real time      0.0012
    CHARGE:  cpu time      0.0054: real time      0.0054
    MIXING:  cpu time      0.0005: real time      0.0005
    --------------------------------------------
      LOOP:  cpu time      0.5988: real time      0.6014

 eigenvalue-minimisations  :  3184
 total energy-change (2. order) : 0.4120703E+00  (-0.8230189E-01)
 number of electron      39.9999973 magnetization 
 augmentation part       -7.3870714 magnetization 

 Broyden mixing:
  rms(total) = 0.40670E+00    rms(broyden)= 0.40670E+00
  rms(prec ) = 0.42680E+00
  weight for this iteration     100.00

 eigenvalues of (default mixing * dielectric matrix)
  average eigenvalue GAMMA=   2.1768
  2.1768

 Free energy of the ion-electron system (eV)
  ---------------------------------------------------
  alpha Z        PSCENC =        83.74935623
  Ewald energy   TEWEN  =     -1378.59082329
  -Hartree energ DENC   =      -156.91032730
  -exchange      EXHF   =         0.00000000
  -V(xc)+E(xc)   XCENC  =       -33.03312789
  PAW double counting   =      1458.15763112    -1345.43260885
  entropy T*S    EENTRO =        -0.00000000
  eigenvalues    EBANDS =      -110.03725529
  atomic energy  EATOM  =      1448.48460880
  Solvation  Ediel_sol  =         0.00000000
  ---------------------------------------------------
  free energy    TOTEN  =       -33.61254648 eV

  energy without entropy =      -33.61254648  energy(sigma->0) =      -33.61254648


--------------------------------------------------------------------------------------------------------




--------------------------------------- Iteration      1(   7)  ---------------------------------------


    POTLOK:  cpu time      0.0076: real time      0.0077
    SETDIJ:  cpu time      0.2171: real time      0.2177
     EDDAV:  cpu time      0.3930: real time      0.3950
       DOS:  cpu time      0.0006: real time      0.0006
    CHARGE:  cpu time      0.0054: real time      0.0054
    MIXING:  cpu time      0.0007: real time      0.0007
    --------------------------------------------
      LOOP:  cpu time      0.6243: real time      0.6270

 eigenvalue-minimisations  :  3344
 total energy-change (2. order) : 0.6186262E-02  (-0.2564637E-01)
 number of electron      39.9999974 magnetization 
 augmentation part       -7.3651336 magnetization 

 Broyden mixing:
  rms(total) = 0.13101E+00    rms(broyden)= 0.13101E+00
  rms(prec ) = 0.13960E+00
  weight for this iteration     100.00

 eigenvalues of (default mixing * dielectric matrix)
  average eigenvalue GAMMA=   1.8290
  1.2482  2.4098

 Free energy of the ion-electron system (eV)
  ---------------------------------------------------
  alpha Z        PSCENC =        83.74935623
  Ewald energy   TEWEN  =     -1378.59082329
  -Hartree energ DENC   =      -160.18366662
  -exchange      EXHF   =         0.00000000
  -V(xc)+E(xc)   XCENC  =       -32.53481373
  PAW double counting   =      1790.70318174    -1678.21848130
  entropy T*S    EENTRO =        -0.00000000
  eigenvalues    EBANDS =      -107.01572205
  atomic energy  EATOM  =      1448.48460880
  Solvation  Ediel_sol  =         0.00000000
  ---------------------------------------------------
  free energy    TOTEN  =       -33.60636022 eV

  energy without entropy =      -33.60636022  energy(sigma->0) =      -33.60636022


--------------------------------------------------------------------------------------------------------




--------------------------------------- Iteration      1(   8)  ---------------------------------------


    POTLOK:  cpu time      0.0077: real time      0.0079
    SETDIJ:  cpu time      0.2169: real time      0.2174
     EDDAV:  cpu time      0.3570: real time      0.3585
       DOS:  cpu time      0.0005: real time      0.0005
    CHARGE:  cpu time      0.0055: real time      0.0055
    MIXING:  cpu time      0.0005: real time      0.0005
    --------------------------------------------
      LOOP:  cpu time      0.5882: real time      0.5904

 eigenvalue-minimisations  :  2832
 total energy-change (2. order) : 0.8228983E-03  (-0.3002901E-02)
 number of electron      39.9999974 magnetization 
 augmentation part       -7.3759786 magnetization 

 Broyden mixing:
  rms(total) = 0.17151E-01    rms(broyden)= 0.17151E-01
  rms(prec ) = 0.21437E-01
  weight for this iteration     100.00

 eigenvalues of (default mixing * dielectric matrix)
  average eigenvalue GAMMA=   1.7089
  2.4951  1.3157  1.3157

 Free energy of the ion-electron system (eV)
  ---------------------------------------------------
  alpha Z        PSCENC =        83.74935623
  Ewald energy   TEWEN  =     -1378.59082329
  -Hartree energ DENC   =      -160.22539905
  -exchange      EXHF   =         0.00000000
  -V(xc)+E(xc)   XCENC  =       -32.40186167
  PAW double counting   =      1930.67457784    -1818.24247066
  entropy T*S    EENTRO =        -0.00000000
  eigenvalues    EBANDS =      -107.05352553
  atomic energy  EATOM  =      1448.48460880
  Solvation  Ediel_sol  =         0.00000000
  ---------------------------------------------------
  free energy    TOTEN  =       -33.60553732 eV

  energy without entropy =      -33.60553732  energy(sigma->0) =      -33.60553732


--------------------------------------------------------------------------------------------------------




--------------------------------------- Iteration      1(   9)  ---------------------------------------


    POTLOK:  cpu time      0.0080: real time      0.0081
    SETDIJ:  cpu time      0.2169: real time      0.2176
     EDDAV:  cpu time      0.4161: real time      0.4180
       DOS:  cpu time      0.0005: real time      0.0005
    CHARGE:  cpu time      0.0055: real time      0.0055
    MIXING:  cpu time      0.0005: real time      0.0005
    --------------------------------------------
      LOOP:  cpu time      0.6475: real time      0.6503

 eigenvalue-minimisations  :  3168
 total energy-change (2. order) :-0.4559548E-03  (-0.3972249E-03)
 number of electron      39.9999974 magnetization 
 augmentation part       -7.3733005 magnetization 

 Broyden mixing:
  rms(total) = 0.65518E-02    rms(broyden)= 0.65518E-02
  rms(prec ) = 0.76741E-02
  weight for this iteration     100.00

 eigenvalues of (default mixing * dielectric matrix)
  average eigenvalue GAMMA=   1.7696
  2.3445  2.3445  1.1947  1.1947

 Free energy of the ion-electron system (eV)
  ---------------------------------------------------
  alpha Z        PSCENC =        83.74935623
  Ewald energy   TEWEN  =     -1378.59082329
  -Hartree energ DENC   =      -160.69243147
  -exchange      EXHF   =         0.00000000
  -V(xc)+E(xc)   XCENC  =       -32.35842383
  PAW double counting   =      1940.53756777    -1828.11481295
  entropy T*S    EENTRO =        -0.00000000
  eigenvalues    EBANDS =      -106.62103453
  atomic energy  EATOM  =      1448.48460880
  Solvation  Ediel_sol  =         0.00000000
  ---------------------------------------------------
  free energy    TOTEN  =       -33.60599327 eV

  energy without entropy =      -33.60599327  energy(sigma->0) =      -33.60599327


--------------------------------------------------------------------------------------------------------




--------------------------------------- Iteration      1(  10)  ---------------------------------------


    POTLOK:  cpu time      0.0079: real time      0.0081
    SETDIJ:  cpu time      0.2170: real time      0.2174
     EDDAV:  cpu time      0.3856: real time      0.3876
       DOS:  cpu time      0.0005: real time      0.0005
    CHARGE:  cpu time      0.0053: real time      0.0053
    MIXING:  cpu time      0.0005: real time      0.0005
    --------------------------------------------
      LOOP:  cpu time      0.6169: real time      0.6194

 eigenvalue-minimisations  :  3248
 total energy-change (2. order) :-0.2358150E-03  (-0.4255966E-04)
 number of electron      39.9999974 magnetization 
 augmentation part       -7.3732804 magnetization 

 Broyden mixing:
  rms(total) = 0.22923E-02    rms(broyden)= 0.22922E-02
  rms(prec ) = 0.28258E-02
  weight for this iteration     100.00

 eigenvalues of (default mixing * dielectric matrix)
  average eigenvalue GAMMA=   1.7805
  2.7639  2.5671  1.1122  1.2296  1.2296

 Free energy of the ion-electron system (eV)
  ---------------------------------------------------
  alpha Z        PSCENC =        83.74935623
  Ewald energy   TEWEN  =     -1378.59082329
  -Hartree energ DENC   =      -160.74907794
  -exchange      EXHF   =         0.00000000
  -V(xc)+E(xc)   XCENC  =       -32.35194728
  PAW double counting   =      1934.53377203    -1822.10566236
  entropy T*S    EENTRO =        -0.00000000
  eigenvalues    EBANDS =      -106.57645528
  atomic energy  EATOM  =      1448.48460880
  Solvation  Ediel_sol  =         0.00000000
  ---------------------------------------------------
  free energy    TOTEN  =       -33.60622909 eV

  energy without entropy =      -33.60622909  energy(sigma->0) =      -33.60622909


--------------------------------------------------------------------------------------------------------




--------------------------------------- Iteration      1(  11)  ---------------------------------------


    POTLOK:  cpu time      0.0076: real time      0.0077
    SETDIJ:  cpu time      0.2169: real time      0.2173
     EDDAV:  cpu time      0.3802: real time      0.3820
       DOS:  cpu time      0.0005: real time      0.0005
    CHARGE:  cpu time      0.0053: real time      0.0054
    MIXING:  cpu time      0.0005: real time      0.0005
    --------------------------------------------
      LOOP:  cpu time      0.6110: real time      0.6135

 eigenvalue-minimisations  :  3168
 total energy-change (2. order) :-0.5252020E-04  (-0.6045641E-05)
 number of electron      39.9999974 magnetization 
 augmentation part       -7.3733893 magnetization 

 Broyden mixing:
  rms(total) = 0.12412E-02    rms(broyden)= 0.12412E-02
  rms(prec ) = 0.14370E-02
  weight for this iteration     100.00

 eigenvalues of (default mixing * dielectric matrix)
  average eigenvalue GAMMA=   1.8076
  2.6467  2.6467  2.2165  0.9823  1.1767  1.1767

 Free energy of the ion-electron system (eV)
  ---------------------------------------------------
  alpha Z        PSCENC =        83.74935623
  Ewald energy   TEWEN  =     -1378.59082329
  -Hartree energ DENC   =      -160.78961106
  -exchange      EXHF   =         0.00000000
  -V(xc)+E(xc)   XCENC  =       -32.34519133
  PAW double counting   =      1935.51254132    -1823.08435428
  entropy T*S    EENTRO =        -0.00000000
  eigenvalues    EBANDS =      -106.54280800
  atomic energy  EATOM  =      1448.48460880
  Solvation  Ediel_sol  =         0.00000000
  ---------------------------------------------------
  free energy    TOTEN  =       -33.60628161 eV

  energy without entropy =      -33.60628161  energy(sigma->0) =      -33.60628161


--------------------------------------------------------------------------------------------------------




--------------------------------------- Iteration      1(  12)  ---------------------------------------


    POTLOK:  cpu time      0.0076: real time      0.0078
    SETDIJ:  cpu time      0.2160: real time      0.2167
     EDDAV:  cpu time      0.4132: real time      0.4148
       DOS:  cpu time      0.0005: real time      0.0006
    CHARGE:  cpu time      0.0055: real time      0.0055
    MIXING:  cpu time      0.0005: real time      0.0005
    --------------------------------------------
      LOOP:  cpu time      0.6434: real time      0.6460

 eigenvalue-minimisations  :  3424
 total energy-change (2. order) :-0.4125830E-05  (-0.1152515E-05)
 number of electron      39.9999974 magnetization 
 augmentation part       -7.3732872 magnetization 

 Broyden mixing:
  rms(total) = 0.25164E-03    rms(broyden)= 0.25164E-03
  rms(prec ) = 0.33589E-03
  weight for this iteration     100.00

 eigenvalues of (default mixing * dielectric matrix)
  average eigenvalue GAMMA=   1.7301
  3.0356  2.3569  2.1629  1.2311  1.0556  1.1343  1.1343

 Free energy of the ion-electron system (eV)
  ---------------------------------------------------
  alpha Z        PSCENC =        83.74935623
  Ewald energy   TEWEN  =     -1378.59082329
  -Hartree energ DENC   =      -160.80605880
  -exchange      EXHF   =         0.00000000
  -V(xc)+E(xc)   XCENC  =       -32.34362283
  PAW double counting   =      1935.13318201    -1822.70500942
  entropy T*S    EENTRO =        -0.00000000
  eigenvalues    EBANDS =      -106.52791844
  atomic energy  EATOM  =      1448.48460880
  Solvation  Ediel_sol  =         0.00000000
  ---------------------------------------------------
  free energy    TOTEN  =       -33.60628573 eV

  energy without entropy =      -33.60628573  energy(sigma->0) =      -33.60628573


--------------------------------------------------------------------------------------------------------




--------------------------------------- Iteration      1(  13)  ---------------------------------------


    POTLOK:  cpu time      0.0079: real time      0.0081
    SETDIJ:  cpu time      0.2175: real time      0.2179
     EDDAV:  cpu time      0.3541: real time      0.3563
       DOS:  cpu time      0.0006: real time      0.0006
    CHARGE:  cpu time      0.0053: real time      0.0054
    MIXING:  cpu time      0.0005: real time      0.0005
    --------------------------------------------
      LOOP:  cpu time      0.5859: real time      0.5887

 eigenvalue-minimisations  :  2528
 total energy-change (2. order) :-0.1002662E-05  (-0.1716016E-06)
 number of electron      39.9999974 magnetization 
 augmentation part       -7.3732554 magnetization 

 Broyden mixing:
  rms(total) = 0.12989E-03    rms(broyden)= 0.12989E-03
  rms(prec ) = 0.15344E-03
  weight for this iteration     100.00

 eigenvalues of (default mixing * dielectric matrix)
  average eigenvalue GAMMA=   1.7044
  3.1105  2.4822  1.8614  1.8614  1.1645  1.1645  1.0210  0.9694

 Free energy of the ion-electron system (eV)
  ---------------------------------------------------
  alpha Z        PSCENC =        83.74935623
  Ewald energy   TEWEN  =     -1378.59082329
  -Hartree energ DENC   =      -160.81063833
  -exchange      EXHF   =         0.00000000
  -V(xc)+E(xc)   XCENC  =       -32.34301317
  PAW double counting   =      1935.32994081    -1822.90177634
  entropy T*S    EENTRO =        -0.00000000
  eigenvalues    EBANDS =      -106.52394144
  atomic energy  EATOM  =      1448.48460880
  Solvation  Ediel_sol  =         0.00000000
  ---------------------------------------------------
  free energy    TOTEN  =       -33.60628674 eV

  energy without entropy =      -33.60628674  energy(sigma->0) =      -33.60628674


--------------------------------------------------------------------------------------------------------




--------------------------------------- Iteration      1(  14)  ---------------------------------------


    POTLOK:  cpu time      0.0078: real time      0.0080
    SETDIJ:  cpu time      0.2213: real time      0.2218
     EDDAV:  cpu time      0.2554: real time      0.2565
       DOS:  cpu time      0.0005: real time      0.0005
    --------------------------------------------
      LOOP:  cpu time      0.4851: real time      0.4868

 eigenvalue-minimisations  :  1680
 total energy-change (2. order) :-0.1199966E-06  (-0.2490107E-07)
 number of electron      39.9999974 magnetization 
 augmentation part       -7.3732554 magnetization 

 Free energy of the ion-electron system (eV)
  ---------------------------------------------------
  alpha Z        PSCENC =        83.74935623
  Ewald energy   TEWEN  =     -1378.59082329
  -Hartree energ DENC   =      -160.81245729
  -exchange      EXHF   =         0.00000000
  -V(xc)+E(xc)   XCENC  =       -32.34296406
  PAW double counting   =      1935.24907356    -1822.82088453
  entropy T*S    EENTRO =        -0.00000000
  eigenvalues    EBANDS =      -106.52219628
  atomic energy  EATOM  =      1448.48460880
  Solvation  Ediel_sol  =         0.00000000
  ---------------------------------------------------
  free energy    TOTEN  =       -33.60628686 eV

  energy without entropy =      -33.60628686  energy(sigma->0) =      -33.60628686


--------------------------------------------------------------------------------------------------------




 average (electrostatic) potential at core
  the test charge radii are     1.1631  1.0808
  (the norm of the test charge is              1.0000)
       1 -33.7776       2 -33.7776       3 -33.7776       4 -33.7776       5 -55.2824
       6 -55.2824       7 -55.2825       8 -55.2825
 
 
 
 E-fermi :   3.1948     XC(G=0):  -9.0389     alpha+bet : -8.3433

 Fermi energy:         3.1947564956

 k-point     1 :       0.0000    0.0000    0.0000
  band No.  band energies     occupation 
      1     -11.2377      2.00000
      2     -10.9878      2.00000
      3      -9.9961      2.00000
      4      -9.6258      2.00000
      5      -4.8249      2.00000
      6      -4.5711      2.00000
      7      -3.1131      2.00000
      8      -2.4149      2.00000
      9      -2.2331      2.00000
     10      -0.7951      2.00000
     11      -0.2507      2.00000
     12      -0.2114      2.00000
     13      -0.0982      2.00000
     14       0.1775      2.00000
     15       0.7533      2.00000
     16       1.1073      2.00000
     17       1.5183      2.00000
     18       1.7067      2.00000
     19       1.8846      2.00000
     20       2.6081      2.00000
     21       4.1270      0.00000
     22       5.3095      0.00000
     23       5.7071      0.00000
     24       5.8643      0.00000
     25       6.0447      0.00000
     26       6.7702      0.00000
     27       6.7860      0.00000
     28       6.8394      0.00000
     29       7.0454      0.00000
     30       8.1602      0.00000
     31       8.4686      0.00000
     32       8.9830      0.00000

 k-point     2 :       0.1667    0.0000    0.0000
  band No.  band energies     occupation 
      1     -11.0512      2.00000
      2     -10.8120      2.00000
      3      -9.8858      2.00000
      4      -9.5641      2.00000
      5      -5.0625      2.00000
      6      -4.7864      2.00000
      7      -3.5654      2.00000
      8      -2.8707      2.00000
      9      -2.0679      2.00000
     10      -0.6095      2.00000
     11      -0.5139      2.00000
     12      -0.0800      2.00000
     13      -0.0721      2.00000
     14       0.1088      2.00000
     15       0.7861      2.00000
     16       0.8252      2.00000
     17       1.4841      2.00000
     18       1.5249      2.00000
     19       2.1422      2.00000
     20       2.7783      2.00000
     21       3.9852      0.00000
     22       5.3315      0.00000
     23       5.4817      0.00000
     24       6.1462      0.00000
     25       6.2507      0.00000
     26       6.3938      0.00000
     27       6.4699      0.00000
     28       6.9550      0.00000
     29       7.0575      0.00000
     30       7.3399      0.00000
     31       7.5819      0.00000
     32       8.8983      0.00000

 k-point     3 :       0.3333    0.0000    0.0000
  band No.  band energies     occupation 
      1     -10.5432      2.00000
      2     -10.3474      2.00000
      3      -9.7025      2.00000
      4      -9.5473      2.00000
      5      -5.5387      2.00000
      6      -5.1656      2.00000
      7      -4.6239      2.00000
      8      -3.9941      2.00000
      9      -1.4760      2.00000
     10      -0.5399      2.00000
     11      -0.2594      2.00000
     12       0.1454      2.00000
     13       0.2963      2.00000
     14       0.4051      2.00000
     15       0.7230      2.00000
     16       0.8587      2.00000
     17       1.1801      2.00000
     18       1.6845      2.00000
     19       2.3608      2.00000
     20       2.8496      2.00000
     21       3.9349      0.00000
     22       4.0872      0.00000
     23       4.1911      0.00000
     24       5.1544      0.00000
     25       5.2217      0.00000
     26       5.5506      0.00000
     27       5.7811      0.00000
     28       5.9891      0.00000
     29       6.2146      0.00000
     30       6.6715      0.00000
     31       7.4374      0.00000
     32       8.8853      0.00000

 k-point     4 :       0.5000    0.0000    0.0000
  band No.  band energies     occupation 
      1      -9.9155      2.00000
      2      -9.9155      2.00000
      3      -9.8392      2.00000
      4      -9.8392      2.00000
      5      -5.4883      2.00000
      6      -5.4883      2.00000
      7      -4.9537      2.00000
      8      -4.9537      2.00000
      9      -0.6864      2.00000
     10      -0.6864      2.00000
     11       0.2335      2.00000
     12       0.2335      2.00000
     13       0.4619      2.00000
     14       0.4619      2.00000
     15       0.7026      2.00000
     16       0.7026      2.00000
     17       1.5479      2.00000
     18       1.5479      2.00000
     19       2.4025      2.00000
     20       2.4025      2.00000
     21       3.8992      0.00000
     22       3.8992      0.00000
     23       4.4088      0.00000
     24       4.4088      0.00000
     25       4.9633      0.00000
     26       4.9633      0.00000
     27       5.1038      0.00000
     28       5.1038      0.00000
     29       5.5204      0.00000
     30       5.5204      0.00000
     31       8.1114      0.00000
     32       8.1114      0.00000

 k-point     5 :       0.0000    0.1667    0.0000
  band No.  band energies     occupation 
      1     -11.1262      2.00000
      2     -10.8794      2.00000
      3     -10.0119      2.00000
      4      -9.6746      2.00000
      5      -5.0996      2.00000
      6      -4.7542      2.00000
      7      -3.7086      2.00000
      8      -2.9787      2.00000
      9      -2.0030      2.00000
     10      -0.3186      2.00000
     11       0.0361      2.00000
     12       0.1507      2.00000
     13       0.1544      2.00000
     14       0.3105      2.00000
     15       1.1346      2.00000
     16       1.3111      2.00000
     17       1.3435      2.00000
     18       1.5270      2.00000
     19       2.2746      2.00000
     20       2.8433      2.00000
     21       3.8976      0.00000
     22       5.2314      0.00000
     23       5.4353      0.00000
     24       5.5456      0.00000
     25       5.8165      0.00000
     26       6.2601      0.00000
     27       6.4969      0.00000
     28       6.8201      0.00000
     29       7.0585      0.00000
     30       7.4996      0.00000
     31       7.9079      0.00000
     32       9.1872      0.00000

 k-point     6 :       0.1667    0.1667    0.0000
  band No.  band energies     occupation 
      1     -10.9452      2.00000
      2     -10.7095      2.00000
      3      -9.9016      2.00000
      4      -9.6084      2.00000
      5      -5.1911      2.00000
      6      -4.8586      2.00000
      7      -3.9190      2.00000
      8      -3.2316      2.00000
      9      -1.8638      2.00000
     10      -1.1003      2.00000
     11      -0.6985      2.00000
     12       0.0723      2.00000
     13       0.2572      2.00000
     14       0.5627      2.00000
     15       0.7688      2.00000
     16       0.9614      2.00000
     17       1.4412      2.00000
     18       1.7652      2.00000
     19       2.4472      2.00000
     20       2.9355      2.00000
     21       3.9163      0.00000
     22       4.7896      0.00000
     23       5.2694      0.00000
     24       5.5199      0.00000
     25       6.0491      0.00000
     26       6.5368      0.00000
     27       6.7097      0.00000
     28       6.8248      0.00000
     29       7.0737      0.00000
     30       7.2395      0.00000
     31       7.5643      0.00000
     32       8.6032      0.00000

 k-point     7 :       0.1667   -0.1667    0.0000
  band No.  band energies     occupation 
      1     -10.9449      2.00000
      2     -10.7099      2.00000
      3      -9.9020      2.00000
      4      -9.6076      2.00000
      5      -5.2083      2.00000
      6      -4.8411      2.00000
      7      -3.9169      2.00000
      8      -3.2330      2.00000
      9      -1.8645      2.00000
     10      -1.0921      2.00000
     11      -0.6992      2.00000
     12       0.0458      2.00000
     13       0.2821      2.00000
     14       0.5846      2.00000
     15       0.6988      2.00000
     16       0.9806      2.00000
     17       1.4813      2.00000
     18       1.7464      2.00000
     19       2.4496      2.00000
     20       2.9800      2.00000
     21       3.8618      0.00000
     22       4.7700      0.00000
     23       5.2549      0.00000
     24       5.4864      0.00000
     25       6.0658      0.00000
     26       6.5167      0.00000
     27       6.7417      0.00000
     28       6.8837      0.00000
     29       7.1477      0.00000
     30       7.2923      0.00000
     31       7.4673      0.00000
     32       8.6077      0.00000

 k-point     8 :       0.3333    0.1667    0.0000
  band No.  band energies     occupation 
      1     -10.4577      2.00000
      2     -10.2664      2.00000
      3      -9.7085      2.00000
      4      -9.5655      2.00000
      5      -5.4660      2.00000
      6      -5.0908      2.00000
      7      -4.6638      2.00000
      8      -4.0473      2.00000
      9      -1.4027      2.00000
     10      -1.3625      2.00000
     11      -0.9464      2.00000
     12       0.0034      2.00000
     13       0.1414      2.00000
     14       0.3604      2.00000
     15       0.5228      2.00000
     16       0.9711      2.00000
     17       1.1015      2.00000
     18       1.5992      2.00000
     19       2.1584      2.00000
     20       2.8891      2.00000
     21       3.8913      0.00000
     22       4.6052      0.00000
     23       4.7742      0.00000
     24       5.0734      0.00000
     25       5.1527      0.00000
     26       5.9183      0.00000
     27       6.2863      0.00000
     28       6.5207      0.00000
     29       7.3926      0.00000
     30       7.4623      0.00000
     31       7.5724      0.00000
     32       8.5586      0.00000

 k-point     9 :       0.3333   -0.1667    0.0000
  band No.  band energies     occupation 
      1     -10.4567      2.00000
      2     -10.2677      2.00000
      3      -9.7114      2.00000
      4      -9.5616      2.00000
      5      -5.4902      2.00000
      6      -5.0659      2.00000
      7      -4.6567      2.00000
      8      -4.0544      2.00000
      9      -1.4004      2.00000
     10      -1.3677      2.00000
     11      -0.9333      2.00000
     12      -0.0173      2.00000
     13       0.1429      2.00000
     14       0.3356      2.00000
     15       0.5118      2.00000
     16       0.9768      2.00000
     17       1.1736      2.00000
     18       1.6012      2.00000
     19       2.1018      2.00000
     20       2.9670      2.00000
     21       3.8245      0.00000
     22       4.5293      0.00000
     23       4.8093      0.00000
     24       4.9954      0.00000
     25       5.1982      0.00000
     26       6.0384      0.00000
     27       6.2978      0.00000
     28       6.4678      0.00000
     29       7.4012      0.00000
     30       7.5224      0.00000
     31       7.5931      0.00000
     32       8.4979      0.00000

 k-point    10 :       0.5000    0.1667    0.0000
  band No.  band energies     occupation 
      1      -9.8791      2.00000
      2      -9.8726      2.00000
      3      -9.8067      2.00000
      4      -9.7995      2.00000
      5      -5.4106      2.00000
      6      -5.3951      2.00000
      7      -4.8901      2.00000
      8      -4.8743      2.00000
      9      -0.8875      2.00000
     10      -0.8706      2.00000
     11      -0.3908      2.00000
     12      -0.3229      2.00000
     13      -0.2886      2.00000
     14      -0.2448      2.00000
     15       0.6622      2.00000
     16       0.6818      2.00000
     17       1.0717      2.00000
     18       1.1276      2.00000
     19       2.4602      2.00000
     20       2.5246      2.00000
     21       4.1062      0.00000
     22       4.1385      0.00000
     23       4.9486      0.00000
     24       5.0219      0.00000
     25       5.3784      0.00000
     26       5.4166      0.00000
     27       6.0779      0.00000
     28       6.1112      0.00000
     29       6.6766      0.00000
     30       6.7058      0.00000
     31       7.9709      0.00000
     32       8.0325      0.00000

 k-point    11 :       0.0000    0.3333    0.0000
  band No.  band energies     occupation 
      1     -10.8222      2.00000
      2     -10.5843      2.00000
      3     -10.1277      2.00000
      4      -9.8598      2.00000
      5      -5.4353      2.00000
      6      -4.9355      2.00000
      7      -4.6414      2.00000
      8      -3.9548      2.00000
      9      -1.4787      2.00000
     10       0.0548      2.00000
     11       0.3994      2.00000
     12       0.6736      2.00000
     13       0.7112      2.00000
     14       0.7693      2.00000
     15       1.1154      2.00000
     16       1.4401      2.00000
     17       1.4740      2.00000
     18       2.4477      2.00000
     19       2.6226      2.00000
     20       2.9706      2.00000
     21       4.1119      0.00000
     22       4.1138      0.00000
     23       4.6674      0.00000
     24       5.2150      0.00000
     25       5.6162      0.00000
     26       5.6964      0.00000
     27       5.9550      0.00000
     28       6.0465      0.00000
     29       6.3902      0.00000
     30       6.8797      0.00000
     31       7.6928      0.00000
     32       8.9909      0.00000

 k-point    12 :       0.1667    0.3333    0.0000
  band No.  band energies     occupation 
      1     -10.6578      2.00000
      2     -10.4328      2.00000
      3     -10.0104      2.00000
      4      -9.7741      2.00000
      5      -5.3649      2.00000
      6      -4.8898      2.00000
      7      -4.6283      2.00000
      8      -3.9727      2.00000
      9      -1.3631      2.00000
     10      -1.0573      2.00000
     11      -0.7009      2.00000
     12      -0.0593      2.00000
     13       0.2522      2.00000
     14       0.2646      2.00000
     15       0.8256      2.00000
     16       1.3068      2.00000
     17       1.8177      2.00000
     18       2.1177      2.00000
     19       2.5508      2.00000
     20       2.8972      2.00000
     21       4.1223      0.00000
     22       4.8518      0.00000
     23       5.1946      0.00000
     24       5.3667      0.00000
     25       5.5204      0.00000
     26       5.9387      0.00000
     27       6.4973      0.00000
     28       6.6805      0.00000
     29       7.2391      0.00000
     30       7.5336      0.00000
     31       7.7659      0.00000
     32       8.7059      0.00000

 k-point    13 :       0.1667   -0.3333    0.0000
  band No.  band energies     occupation 
      1     -10.6572      2.00000
      2     -10.4337      2.00000
      3     -10.0113      2.00000
      4      -9.7726      2.00000
      5      -5.3774      2.00000
      6      -4.8783      2.00000
      7      -4.6255      2.00000
      8      -3.9732      2.00000
      9      -1.3703      2.00000
     10      -1.0391      2.00000
     11      -0.6953      2.00000
     12      -0.0682      2.00000
     13       0.2054      2.00000
     14       0.2609      2.00000
     15       0.8292      2.00000
     16       1.3591      2.00000
     17       1.8633      2.00000
     18       2.0995      2.00000
     19       2.4980      2.00000
     20       2.9348      2.00000
     21       4.0960      0.00000
     22       4.7646      0.00000
     23       5.1907      0.00000
     24       5.4355      0.00000
     25       5.4491      0.00000
     26       6.0074      0.00000
     27       6.5965      0.00000
     28       6.6299      0.00000
     29       7.3107      0.00000
     30       7.3727      0.00000
     31       7.8346      0.00000
     32       8.7917      0.00000

 k-point    14 :       0.3333    0.3333    0.0000
  band No.  band energies     occupation 
      1     -10.2333      2.00000
      2     -10.0577      2.00000
      3      -9.7734      2.00000
      4      -9.6437      2.00000
      5      -5.3007      2.00000
      6      -4.8715      2.00000
      7      -4.8234      2.00000
      8      -4.2451      2.00000
      9      -1.9198      2.00000
     10      -1.4433      2.00000
     11      -1.3080      2.00000
     12      -0.7353      2.00000
     13      -0.5420      2.00000
     14       0.0202      2.00000
     15       0.1392      2.00000
     16       0.4835      2.00000
     17       0.8293      2.00000
     18       1.3931      2.00000
     19       2.1391      2.00000
     20       2.7061      2.00000
     21       4.2158      0.00000
     22       5.3141      0.00000
     23       5.4800      0.00000
     24       5.7540      0.00000
     25       6.5863      0.00000
     26       6.8966      0.00000
     27       7.4076      0.00000
     28       7.4990      0.00000
     29       7.6197      0.00000
     30       7.6220      0.00000
     31       8.2953      0.00000
     32       8.8015      0.00000

 k-point    15 :       0.3333   -0.3333    0.0000
  band No.  band energies     occupation 
      1     -10.2308      2.00000
      2     -10.0608      2.00000
      3      -9.7784      2.00000
      4      -9.6374      2.00000
      5      -5.3336      2.00000
      6      -4.8381      2.00000
      7      -4.8080      2.00000
      8      -4.2591      2.00000
      9      -1.9163      2.00000
     10      -1.4377      2.00000
     11      -1.3259      2.00000
     12      -0.7313      2.00000
     13      -0.5186      2.00000
     14      -0.0192      2.00000
     15       0.0560      2.00000
     16       0.5971      2.00000
     17       0.9007      2.00000
     18       1.3143      2.00000
     19       2.0728      2.00000
     20       2.8302      2.00000
     21       4.1042      0.00000
     22       5.3535      0.00000
     23       5.4181      0.00000
     24       5.7710      0.00000
     25       6.5912      0.00000
     26       6.9143      0.00000
     27       7.4308      0.00000
     28       7.5055      0.00000
     29       7.5849      0.00000
     30       7.8188      0.00000
     31       8.3138      0.00000
     32       8.7682      0.00000

 k-point    16 :       0.5000    0.3333    0.0000
  band No.  band energies     occupation 
      1      -9.7995      2.00000
      2      -9.7859      2.00000
      3      -9.7362      2.00000
      4      -9.7212      2.00000
      5      -5.2312      2.00000
      6      -5.1971      2.00000
      7      -4.7456      2.00000
      8      -4.7103      2.00000
      9      -1.5304      2.00000
     10      -1.5235      2.00000
     11      -1.0399      2.00000
     12      -1.0188      2.00000
     13      -0.8296      2.00000
     14      -0.8255      2.00000
     15       0.0488      2.00000
     16       0.0706      2.00000
     17       0.4414      2.00000
     18       0.5126      2.00000
     19       2.3831      2.00000
     20       2.4854      2.00000
     21       4.5902      0.00000
     22       4.7120      0.00000
     23       6.4162      0.00000
     24       6.4470      0.00000
     25       6.6637      0.00000
     26       6.6707      0.00000
     27       7.5323      0.00000
     28       7.5494      0.00000
     29       7.8725      0.00000
     30       7.9853      0.00000
     31       8.1373      0.00000
     32       8.1729      0.00000

 k-point    17 :       0.0000    0.5000    0.0000
  band No.  band energies     occupation 
      1     -10.4303      2.00000
      2     -10.4303      2.00000
      3     -10.1970      2.00000
      4     -10.1970      2.00000
      5      -5.3009      2.00000
      6      -5.3009      2.00000
      7      -4.6804      2.00000
      8      -4.6804      2.00000
      9      -0.7492      2.00000
     10      -0.7492      2.00000
[...]
     32       7.5217      0.00000

 k-point    32 :       0.1667    0.3333    0.5000
  band No.  band energies     occupation 
      1     -10.5655      2.00000
      2     -10.5655      2.00000
      3      -9.8721      2.00000
      4      -9.8721      2.00000
      5      -5.1627      2.00000
      6      -5.1627      2.00000
      7      -4.3212      2.00000
      8      -4.3212      2.00000
      9      -0.9511      2.00000
     10      -0.9511      2.00000
     11      -0.4947      2.00000
     12      -0.4947      2.00000
     13       0.2326      2.00000
     14       0.2326      2.00000
     15       0.9940      2.00000
     16       0.9940      2.00000
     17       1.9189      2.00000
     18       1.9189      2.00000
     19       2.4143      2.00000
     20       2.4143      2.00000
     21       4.9352      0.00000
     22       4.9352      0.00000
     23       5.5128      0.00000
     24       5.5128      0.00000
     25       5.9745      0.00000
     26       5.9745      0.00000
     27       6.4178      0.00000
     28       6.4178      0.00000
     29       7.3805      0.00000
     30       7.3805      0.00000
     31       7.5628      0.00000
     32       7.5628      0.00000

 k-point    33 :       0.1667   -0.3333    0.5000
  band No.  band energies     occupation 
      1     -10.5655      2.00000
      2     -10.5655      2.00000
      3      -9.8720      2.00000
      4      -9.8720      2.00000
      5      -5.1647      2.00000
      6      -5.1647      2.00000
      7      -4.3191      2.00000
      8      -4.3191      2.00000
      9      -0.9662      2.00000
     10      -0.9662      2.00000
     11      -0.4756      2.00000
     12      -0.4755      2.00000
     13       0.2628      2.00000
     14       0.2628      2.00000
     15       0.9512      2.00000
     16       0.9512      2.00000
     17       1.9142      2.00000
     18       1.9142      2.00000
     19       2.4225      2.00000
     20       2.4225      2.00000
     21       4.8998      0.00000
     22       4.8998      0.00000
     23       5.5872      0.00000
     24       5.5872      0.00000
     25       5.9437      0.00000
     26       5.9437      0.00000
     27       6.4250      0.00000
     28       6.4250      0.00000
     29       7.3574      0.00000
     30       7.3574      0.00000
     31       7.6129      0.00000
     32       7.6129      0.00000

 k-point    34 :       0.3333    0.3333    0.5000
  band No.  band energies     occupation 
      1     -10.1595      2.00000
      2     -10.1595      2.00000
      3      -9.6948      2.00000
      4      -9.6948      2.00000
      5      -5.1124      2.00000
      6      -5.1123      2.00000
      7      -4.5498      2.00000
      8      -4.5498      2.00000
      9      -1.7288      2.00000
     10      -1.7288      2.00000
     11      -0.9100      2.00000
     12      -0.9100      2.00000
     13      -0.2692      2.00000
     14      -0.2692      2.00000
     15       0.5415      2.00000
     16       0.5415      2.00000
     17       0.9964      2.00000
     18       0.9964      2.00000
     19       1.9130      2.00000
     20       1.9130      2.00000
     21       5.2819      0.00000
     22       5.2819      0.00000
     23       6.0597      0.00000
     24       6.0597      0.00000
     25       6.6416      0.00000
     26       6.6416      0.00000
     27       7.0651      0.00000
     28       7.0651      0.00000
     29       7.5603      0.00000
     30       7.5604      0.00000
     31       8.5806      0.00000
     32       8.5806      0.00000

 k-point    35 :       0.3333   -0.3333    0.5000
  band No.  band energies     occupation 
      1     -10.1595      2.00000
      2     -10.1595      2.00000
      3      -9.6947      2.00000
      4      -9.6947      2.00000
      5      -5.1162      2.00000
      6      -5.1162      2.00000
      7      -4.5458      2.00000
      8      -4.5458      2.00000
      9      -1.7322      2.00000
     10      -1.7322      2.00000
     11      -0.9019      2.00000
     12      -0.9019      2.00000
     13      -0.2627      2.00000
     14      -0.2627      2.00000
     15       0.5365      2.00000
     16       0.5365      2.00000
     17       0.9825      2.00000
     18       0.9825      2.00000
     19       1.9160      2.00000
     20       1.9160      2.00000
     21       5.2780      0.00000
     22       5.2780      0.00000
     23       6.0750      0.00000
     24       6.0750      0.00000
     25       6.6462      0.00000
     26       6.6462      0.00000
     27       7.0829      0.00000
     28       7.0829      0.00000
     29       7.5585      0.00000
     30       7.5585      0.00000
     31       8.5366      0.00000
     32       8.5366      0.00000

 k-point    36 :       0.5000    0.3333    0.5000
  band No.  band energies     occupation 
      1      -9.7716      2.00000
      2      -9.7716      2.00000
      3      -9.7510      2.00000
      4      -9.7510      2.00000
      5      -5.0213      2.00000
      6      -5.0213      2.00000
      7      -4.9547      2.00000
      8      -4.9547      2.00000
      9      -1.3562      2.00000
     10      -1.3562      2.00000
     11      -1.2963      2.00000
     12      -1.2963      2.00000
     13      -0.4321      2.00000
     14      -0.4321      2.00000
     15      -0.3337      2.00000
     16      -0.3337      2.00000
     17       1.2690      2.00000
     18       1.2690      2.00000
     19       1.3569      2.00000
     20       1.3569      2.00000
     21       5.8253      0.00000
     22       5.8253      0.00000
     23       6.0697      0.00000
     24       6.0697      0.00000
     25       6.7701      0.00000
     26       6.7701      0.00000
     27       6.9007      0.00000
     28       6.9007      0.00000
     29       8.1281      0.00000
     30       8.1281      0.00000
     31       8.2087      0.00000
     32       8.2087      0.00000

 k-point    37 :       0.0000    0.5000    0.5000
  band No.  band energies     occupation 
      1     -10.4266      2.00000
      2     -10.4266      2.00000
      3     -10.2018      2.00000
      4     -10.2018      2.00000
      5      -5.0847      2.00000
      6      -5.0847      2.00000
      7      -4.9557      2.00000
      8      -4.9557      2.00000
      9      -0.0953      2.00000
     10      -0.0953      2.00000
     11       0.3823      2.00000
     12       0.3823      2.00000
     13       0.8468      2.00000
     14       0.8468      2.00000
     15       1.1215      2.00000
     16       1.1215      2.00000
     17       2.4255      2.00000
     18       2.4255      2.00000
     19       2.5317      2.00000
     20       2.5317      2.00000
     21       4.3933      0.00000
     22       4.3933      0.00000
     23       4.7373      0.00000
     24       4.7373      0.00000
     25       5.7135      0.00000
     26       5.7135      0.00000
     27       6.0297      0.00000
     28       6.0297      0.00000
     29       6.5050      0.00000
     30       6.5050      0.00000
     31       6.8687      0.00000
     32       6.8687      0.00000

 k-point    38 :       0.1667    0.5000    0.5000
  band No.  band energies     occupation 
      1     -10.2874      2.00000
      2     -10.2874      2.00000
      3     -10.0819      2.00000
      4     -10.0819      2.00000
      5      -4.9861      2.00000
      6      -4.9861      2.00000
      7      -4.8748      2.00000
      8      -4.8748      2.00000
      9      -0.5519      2.00000
     10      -0.5519      2.00000
     11      -0.4622      2.00000
     12      -0.4622      2.00000
     13       0.3349      2.00000
     14       0.3349      2.00000
     15       0.4053      2.00000
     16       0.4053      2.00000
     17       1.9690      2.00000
     18       1.9690      2.00000
     19       2.4844      2.00000
     20       2.4844      2.00000
     21       5.1506      0.00000
     22       5.1506      0.00000
     23       5.4670      0.00000
     24       5.4670      0.00000
     25       6.4179      0.00000
     26       6.4179      0.00000
     27       6.5457      0.00000
     28       6.5457      0.00000
     29       7.0242      0.00000
     30       7.0242      0.00000
     31       7.1669      0.00000
     32       7.1669      0.00000

 k-point    39 :       0.3333    0.5000    0.5000
  band No.  band energies     occupation 
      1      -9.9586      2.00000
      2      -9.9586      2.00000
      3      -9.8228      2.00000
      4      -9.8228      2.00000
      5      -4.8761      2.00000
      6      -4.8761      2.00000
      7      -4.8020      2.00000
      8      -4.8020      2.00000
      9      -1.6594      2.00000
     10      -1.6594      2.00000
     11      -1.4411      2.00000
     12      -1.4411      2.00000
     13      -0.0495      2.00000
     14      -0.0495      2.00000
     15       0.0423      2.00000
     16       0.0423      2.00000
     17       1.0161      2.00000
     18       1.0161      2.00000
     19       1.6064      2.00000
     20       1.6064      2.00000
     21       6.0803      0.00000
     22       6.0803      0.00000
     23       6.3338      0.00000
     24       6.3338      0.00000
     25       6.8743      0.00000
     26       6.8743      0.00000
     27       7.2865      0.00000
     28       7.2865      0.00000
     29       8.2861      0.00000
     30       8.2861      0.00000
     31       8.5734      0.00000
     32       8.5734      0.00000

 k-point    40 :       0.5000    0.5000    0.5000
  band No.  band energies     occupation 
      1      -9.7296      2.00000
      2      -9.7296      2.00000
      3      -9.7106      2.00000
      4      -9.7106      2.00000
      5      -4.9254      2.00000
      6      -4.9254      2.00000
      7      -4.8603      2.00000
      8      -4.8603      2.00000
      9      -1.6273      2.00000
     10      -1.6273      2.00000
     11      -1.5586      2.00000
     12      -1.5586      2.00000
     13      -0.7742      2.00000
     14      -0.7742      2.00000
     15      -0.6801      2.00000
     16      -0.6801      2.00000
     17       1.2458      2.00000
     18       1.2458      2.00000
     19       1.3198      2.00000
     20       1.3198      2.00000
     21       5.8784      0.00000
     22       5.8784      0.00000
     23       6.2745      0.00000
     24       6.2745      0.00000
     25       7.5543      0.00000
     26       7.5543      0.00000
     27       7.6065      0.00000
     28       7.6065      0.00000
     29       8.5895      0.00000
     30       8.5895      0.00000
     31       8.8699      0.00000
     32       8.8699      0.00000


--------------------------------------------------------------------------------------------------------


 soft charge-density along one line, spin component            1
         0         1         2         3         4         5         6         7         8         9
 total charge-density along one line
 
 pseudopotential strength for first ion, spin component:            1
 14.603  18.222   0.045   0.041  -0.000   0.081   0.074  -0.001
 18.222  22.752   0.057   0.052  -0.000   0.102   0.094  -0.001
  0.045   0.057   3.238  -0.002   0.000   5.513  -0.004   0.000
  0.041   0.052  -0.002   3.238   0.000  -0.004   5.513   0.000
 -0.000  -0.000   0.000   0.000   3.240   0.000   0.000   5.516
  0.081   0.102   5.513  -0.004   0.000   9.444  -0.007   0.000
  0.074   0.094  -0.004   5.513   0.000  -0.007   9.445   0.000
 -0.001  -0.001   0.000   0.000   5.516   0.000   0.000   9.450
  0.000   0.000  -0.000  -0.000   0.008  -0.000  -0.000   0.015
 -0.005  -0.006   0.011   0.014  -0.000   0.019   0.024  -0.000
 -0.001  -0.001  -0.004   0.011   0.000  -0.008   0.020   0.000
  0.000   0.000  -0.000  -0.000   0.011  -0.000  -0.000   0.019
  0.002   0.002  -0.013  -0.000  -0.000  -0.024  -0.000  -0.000
 total augmentation occupancy for first ion, spin component:            1
  2.739  -0.722   0.361   0.354  -0.001  -0.065  -0.067  -0.000   0.000  -0.014   0.001   0.001   0.008
 -0.722   0.711  -0.463  -0.447   0.003   0.073   0.072  -0.000  -0.001   0.008  -0.004  -0.001  -0.004
  0.361  -0.463   1.238   0.033  -0.001  -0.202   0.006   0.000   0.000   0.042  -0.092   0.000  -0.001
  0.354  -0.447   0.033   1.254  -0.000   0.006  -0.206  -0.000  -0.000  -0.014   0.095  -0.001  -0.003
 -0.001   0.003  -0.001  -0.000   1.233   0.000  -0.000  -0.212   0.147  -0.000  -0.001   0.036  -0.000
 -0.065   0.073  -0.202   0.006   0.000   0.037  -0.003  -0.000  -0.000  -0.007   0.016  -0.000   0.000
 -0.067   0.072   0.006  -0.206  -0.000  -0.003   0.038   0.000   0.000   0.002  -0.017   0.000   0.001
 -0.000  -0.000   0.000  -0.000  -0.212  -0.000   0.000   0.040  -0.026   0.000   0.000  -0.006   0.000
  0.000  -0.001   0.000  -0.000   0.147  -0.000   0.000  -0.026   0.031  -0.000   0.000   0.002  -0.000
 -0.014   0.008   0.042  -0.014  -0.000  -0.007   0.002   0.000  -0.000   0.011  -0.007  -0.000   0.001
  0.001  -0.004  -0.092   0.095  -0.001   0.016  -0.017   0.000   0.000  -0.007   0.033   0.000  -0.002
  0.001  -0.001   0.000  -0.001   0.036  -0.000   0.000  -0.006   0.002  -0.000   0.000   0.009  -0.000
  0.008  -0.004  -0.001  -0.003  -0.000   0.000   0.001   0.000  -0.000   0.001  -0.002  -0.000   0.008


------------------------ aborting loop because EDIFF is reached ----------------------------------------


    CHARGE:  cpu time      0.0054: real time      0.0054
    FORLOC:  cpu time      0.0002: real time      0.0002
    FORNL :  cpu time      0.0266: real time      0.0266
    STRESS:  cpu time      0.2791: real time      0.2803
    FORCOR:  cpu time      0.0070: real time      0.0070
    FORHAR:  cpu time      0.0017: real time      0.0017
    MIXING:  cpu time      0.0006: real time      0.0006
    OFIELD:  cpu time      0.0000: real time      0.0000

  FORCE on cell =-STRESS in cart. coord.  units (eV):
  Direction    XX          YY          ZZ          XY          YZ          ZX
  --------------------------------------------------------------------------------------
  Alpha Z    83.74936    83.74936    83.74936
  Ewald    -410.20627  -471.08076  -497.30525    -0.53105    -0.00001     0.00000
  Hartree    81.76086    53.59099    25.46147    -0.33481     0.00000     0.00000
  E(xc)    -141.17320  -141.19709  -141.23765    -0.00129     0.00000    -0.00000
  Local    -233.07818  -150.54596   -96.57737     0.96333     0.00000    -0.00000
  n-local   240.88047   240.54444   241.45109    -0.02945    -0.00000     0.00000
  augment   -11.30829   -11.74646   -11.91014     0.00456     0.00000     0.00000
  Kinetic   390.06682   396.70942   400.48888     0.03052     0.00000    -0.00000
  Fock        0.00000     0.00000     0.00000     0.00000     0.00000     0.00000
  -------------------------------------------------------------------------------------
  Total       0.69157     0.02394     4.12038     0.10181    -0.00000    -0.00000
  in kB       5.47646     0.18959    32.62888     0.80619    -0.00001    -0.00000
  external pressure =       12.76 kB  Pullay stress =        0.00 kB


 VOLUME and BASIS-vectors are now :
 -----------------------------------------------------------------------------
  energy-cutoff  :      360.00
  volume of cell :      202.32
      direct lattice vectors                 reciprocal lattice vectors
     3.858100176  0.000000000  0.000000000     0.259194929  0.000000000  0.000000000
     0.000000000  4.526575088  0.000000000     0.000000000  0.220917577  0.000000000
     0.000000000  0.000000000 11.585176468     0.000000000  0.000000000  0.086317200

  length of vectors
     3.858100176  4.526575088 11.585176468     0.259194929  0.220917577  0.086317200


 FORCES acting on ions
    electron-ion (+dipol)            ewald-force                    non-local-force                 convergence-correction
 -----------------------------------------------------------------------------------------------
   -.182E+00 0.171E+02 0.302E+02   0.213E+00 -.200E+02 -.327E+02   -.444E-01 0.274E+01 0.253E+01   -.797E-06 0.208E-04 0.897E-04
   -.182E+00 0.171E+02 -.302E+02   0.213E+00 -.200E+02 0.327E+02   -.444E-01 0.274E+01 -.253E+01   -.859E-06 0.214E-04 -.856E-04
   0.182E+00 -.171E+02 -.302E+02   -.213E+00 0.200E+02 0.327E+02   0.445E-01 -.274E+01 -.253E+01   0.768E-06 -.207E-04 -.905E-04
   0.182E+00 -.171E+02 0.302E+02   -.213E+00 0.200E+02 -.327E+02   0.445E-01 -.274E+01 0.253E+01   0.861E-06 -.220E-04 0.862E-04
   -.120E+00 -.181E+02 -.338E+02   0.127E+00 0.196E+02 0.354E+02   0.915E-02 -.149E+01 -.128E+01   0.887E-05 -.641E-04 -.196E-03
   -.120E+00 -.181E+02 0.338E+02   0.127E+00 0.196E+02 -.354E+02   0.915E-02 -.149E+01 0.128E+01   0.878E-05 -.647E-04 0.200E-03
   0.120E+00 0.181E+02 0.338E+02   -.127E+00 -.196E+02 -.354E+02   -.940E-02 0.149E+01 0.128E+01   -.885E-05 0.637E-04 0.195E-03
   0.120E+00 0.181E+02 -.338E+02   -.127E+00 -.196E+02 0.354E+02   -.940E-02 0.149E+01 -.128E+01   -.872E-05 0.646E-04 -.201E-03
 -----------------------------------------------------------------------------------------------
   0.827E-04 0.136E-04 0.199E-05   0.483E-14 0.000E+00 -.142E-13   -.390E-03 -.114E-03 -.364E-06   0.458E-07 -.832E-06 -.785E-06
 
 
 POSITION                                       TOTAL-FORCE (eV/Angst)
 -----------------------------------------------------------------------------------
      1.13227      2.14132      1.52892        -0.012516     -0.154578     -0.004306
      3.06132      4.40461      4.26367        -0.012516     -0.154578      0.004308
      2.89357      4.09092     10.05626         0.012649      0.154623      0.004191
      0.96452      1.82763      7.32150         0.012649      0.154623     -0.004192
      1.13227      1.61272      4.06767         0.015736      0.052082      0.351590
      3.06132      3.87600      1.72492         0.015736      0.052082     -0.351591
      2.89357      0.09295      7.51751        -0.015869     -0.052127     -0.351220
      0.96452      2.35624      9.86026        -0.015869     -0.052127      0.351219
 -----------------------------------------------------------------------------------
    total drift:                               -0.000307     -0.000101      0.000001


--------------------------------------------------------------------------------------------------------



  FREE ENERGIE OF THE ION-ELECTRON SYSTEM (eV)
  ---------------------------------------------------
  free  energy   TOTEN  =       -33.60628686 eV

  energy  without entropy=      -33.60628686  energy(sigma->0) =      -33.60628686
 


--------------------------------------------------------------------------------------------------------


    POTLOK:  cpu time      0.2253: real time      0.2258


--------------------------------------------------------------------------------------------------------


     LOOP+:  cpu time      8.2706: real time      8.3080
    4ORBIT:  cpu time      0.0000: real time      0.0000

 total amount of memory used by VASP MPI-rank0    37119. kBytes
=======================================================================

   base      :      30000. kBytes
   nonl-proj :       5406. kBytes
   fftplans  :        334. kBytes
   grid      :        503. kBytes
   one-center:         16. kBytes
   wavefun   :        860. kBytes
 
  
  
 General timing and accounting informations for this job:
 ========================================================
  
                  Total CPU time used (sec):        9.891
                            User time (sec):        9.596
                          System time (sec):        0.295
                         Elapsed time (sec):       10.201
  
                   Maximum memory used (kb):      175416.
                   Average memory used (kb):          N/A
  
                          Minor page faults:        17401
                          Major page faults:           41
                 Voluntary context switches:         1960
