72
Lattice="12.444984909018523 1.2422101853e-06 -1.8232066307e-06 1.2478844441e-06 12.501831630282531 -9.524972106e-07 -2.0858038058e-06 -1.084730849e-06 11.060181336873272" Properties=species:S:1:pos:R:3:forces:R:3:magmoms:R:1 energy=-300.23830628 stress="0.004053086904212552 -0.001526390323171042 0.001426619550133433 -0.001526390323171042 -0.002675152810468473 -5.70379187997199e-05 0.001426619550133433 -5.70379187997199e-05 -0.012761205147152278" dipole="_JSON [[0.0, 0.0, 0.0]]" magmom=0.0019909 free_energy=-300.23830628 pbc="T T T"
Ge       0.76561224       0.66033113       1.43788008       0.06312725       0.04372386      -0.40882186      -0.00000000
Ge       3.16988800      11.10306295       4.17466842      -0.30132451       0.28812090       0.07767919       0.00000000
Ge       7.13247481       2.95954009       3.99171095       0.03048796      -0.91218384       0.61823818       0.00000000
Ge       7.19761348       6.79422223       4.00653306      -0.27123481      -0.04566383      -0.02796149       0.00000000
Ge       7.14119435      10.97845479       4.02647634      -0.01310774       0.39950836      -0.21981990       0.00000000
Ge      11.35538644       2.81764911       4.08086747      -0.32461114      -0.36182700      -0.22155439      -0.00000000
Ge      11.09418516       6.75603644       4.19345842       0.28779013       0.44374286       0.45538514       0.00000000
Ge      11.06538733      10.71943978       3.96253559       0.22018148       0.30588264       0.56412795      -0.00000000
Ge       0.66480307       1.91479911       6.85684068       0.11821614      -0.22024891      -0.04641567      -0.00000000
Ge       0.81477066       6.28588293       6.94019304      -0.58462393       0.02370223       0.26626636       0.00000000
Ge       1.07184507      10.47809186       7.08557276      -0.25560105      -0.51810310      -0.24336266       0.00000000
Ge       4.70157372       2.21186749       7.20082766       0.24749189      -0.36249364      -0.18661332       0.00000000
Ge       5.13223451       5.95980337       7.10240095       0.36027755       0.16078656      -0.14549343       0.00000000
Ge       4.94288018      10.24976005       6.98972702       0.20427246       0.12658104      -0.30156892       0.00000000
Ge       9.31875030       1.82804162       6.88598858      -0.48042941       0.17816071      -0.06425155      -0.00000000
Ge       9.38902612       5.92222244       6.95093650      -0.08661174       0.33123175       0.00257119       0.00000000
Ge       3.04117500       6.88871414       4.03033626      -0.69178253      -0.40247481       0.34005332       0.00000000
Ge       2.70959691       2.57686560       3.96153285       0.30999707      -0.20574416       0.15551932       0.00000000
Ge       8.85990145      10.46226368       6.98394935      -0.12931580      -0.18388505       0.19701186       0.00000000
Ge      11.07219686       8.24802683       9.62424770       0.18020125      -0.18231006      -0.49624798       0.00000000
Ge      11.20619408      12.34100887       9.52584879       0.08572166       0.15812691       0.62293951      -0.00000000
Ge       0.61031810       4.67821221       1.57785355       0.29501386      -0.46419273      -0.21506089       0.00000000
Ge       0.86132508       8.86453463       1.46689600      -0.41753683      -0.25491280       0.44480768       0.00000000
Ge       5.04593702       0.70193269       1.28768694      -0.28245145       0.15672840       0.23778333       0.00000000
Ge       5.16148706       4.77677424       1.53394817      -0.38622582       0.07950837       0.19623611       0.00000000
Ge       8.96069270       0.27039292       1.43679639       0.20925332       0.17572673       0.14156164      -0.00000000
Ge       8.85115907       4.69188842       1.25449483       0.92405254      -0.26277575      -0.71744998      -0.00000000
Ge       4.54248367       8.74597384       1.59032765       0.62649570       0.03447542      -0.57907306       0.00000000
Ge       2.79049141       4.11486881       9.60887564      -0.20148315      -0.18865183       0.15540065       0.00000000
Ge       2.65875926       8.07386930       9.73867958       0.14637323      -0.22624855      -0.08468798       0.00000000
Ge       2.85496223      12.33650751       9.78391455       0.22811317       0.33936020      -0.49923289       0.00000000
Ge       7.16925518       3.80524875       9.71403729       0.10404356       0.26894171      -0.56474910       0.00000000
Ge       6.91867410       8.22087581       9.71149738      -0.05369570      -0.11424366      -0.45256507       0.00000000
Ge       7.10463103      12.31556277       9.47539816      -0.21178825       0.26062106      -0.15888223       0.00000000
Ge      11.09922191       3.93197635       9.61776713       0.10427405      -0.19586866       0.00243875      -0.00000000
Ge       9.10614488       8.91978761       1.33468680       0.06951478       0.13784580       0.06321556       0.00000000
Se      11.21470402       0.01069514       7.06848581       0.34258808       0.13686618      -0.51723441      -0.00000000
Se       3.10520642       4.31441965       7.11697624      -0.15168362       0.07266383      -0.14053700      -0.00000000
Se       2.98753188       8.61876723       7.23218433      -0.36572703      -0.41948514      -0.07256915      -0.00000000
Se       7.18184067       0.30582746       6.92434437       0.06726963      -0.64200693       0.30431709      -0.00000000
Se       7.35298335       4.27068358       6.98625042      -0.55258843       0.01327232       0.63946043      -0.00000000
Se       6.95295201       8.55396901       7.10731523       0.31189698       0.12570289       0.22849704      -0.00000000
Se      11.37617220       4.23153506       7.06868786      -0.09276213       0.36434211      -0.12203977      -0.00000000
Se       9.32892705       0.20387445       3.96232763      -0.50219134      -0.31793234      -0.12814970      -0.00000000
Se       1.08933157       0.41420211       3.88976241      -0.13155401      -0.37538280       0.53414493      -0.00000000
Se       0.93052502       4.46556968       4.08515851      -0.03170982      -0.00754366      -0.06302420      -0.00000000
Se       0.77862284       8.50794630       4.06279455       0.20547320      -0.21618476      -0.43465521      -0.00000000
Se       5.13059541       0.25718063       3.83120298       0.02443298      -0.05188959       0.06254756      -0.00000000
Se       5.14029216       4.48582357       4.12091237      -0.16086953       0.42839774      -0.60966986      -0.00000000
Se       5.00573363       8.44800738       4.03850244       0.63119526       0.58483556       0.25867119      -0.00000000
Se       2.74968263       0.29649785       7.06240513       0.56258618      -0.11287825       0.40180371      -0.00000000
Se      11.25467089       8.36835751       7.06149788       0.56960647       0.39341882       0.35652953      -0.00000000
Se      11.22291612      10.57735092       1.52061644       0.23069278       0.12673894      -0.61280381      -0.00000000
Se       2.84987718       2.42471803       1.45036168       0.51993255      -0.10889268      -0.07557897      -0.00000000
Se      11.23890968       2.32069978       1.53310213       0.32667057       0.15927700       0.19620758      -0.00000000
Se       9.15560387       4.46848250       3.67830498       0.14103981       0.03528149       1.00626002      -0.00000000
Se       0.92745144       2.21797496       9.33903716      -0.15157262       0.27235812       0.48958678      -0.00000000
Se       0.73107045       6.19645985       9.49591697       0.70534941       0.63231817       0.00767767      -0.00000000
Se       0.96323354      10.68823810       9.59602662      -0.27851987      -0.45438596       0.11505403      -0.00000000
Se       5.13275191       2.27861745       9.70998718      -0.32260698      -0.12930381      -0.42193213      -0.00000000
Se       5.08697231       6.37243398       9.61543678      -0.19689897       0.17759193      -0.03518066      -0.00000000
Se       5.06402345      10.63316245       9.44643113       0.02346024       0.01633920       0.39730463      -0.00000000
Se       9.11276852       2.08426918       9.42483796       0.54939131       0.21287999       0.18549370      -0.00000000
Se       9.45390739       6.31797965       9.48349795      -0.76542305       0.13098032       0.04282789      -0.00000000
Se       9.25659471      10.61093229       9.56490038      -0.16533092      -0.23374641      -0.41087316      -0.00000000
Se       3.09076603       6.58796744       1.51861858      -0.20982943      -0.52683276      -0.09823817      -0.00000000
Se       2.77375870      10.55694463       1.68879750       0.20170337       0.31465121      -0.14400469      -0.00000000
Se       7.18617625       2.31492293       1.47741632      -0.31521437      -0.17558781      -0.16549606      -0.00000000
Se       7.21303134       6.53101848       1.41205309      -0.59868675       0.49596600       0.46411642      -0.00000000
Se       7.16419432      10.69048418       1.44576574       0.08725230      -0.05188880       0.35990856      -0.00000000
Se      11.20107086       6.25991574       1.78248073      -0.38396277       0.77093658      -0.93136133      -0.00000000
Se       9.25827817       8.69734326       3.91397668      -0.24648469      -0.45182385       0.02551615      -0.00000000
