72
Lattice="12.443805403577773 1.2420924517e-06 -1.8230338316e-06 1.2479600071e-06 12.502588651372147 -9.52554887e-07 -2.086239178e-06 -1.0849572661e-06 11.062489941158724" Properties=species:S:1:pos:R:3:forces:R:3:magmoms:R:1 energy=-300.49132678 stress="0.0048900748633368156 -0.0023943315301184057 0.0012795202684810017 -0.0023943315301184057 -0.0038275216292558206 -0.00018865319595605973 0.0012795202684810017 -0.00018865319595605973 -0.010494246783856206" dipole="_JSON [[0.0, 0.0, 0.0]]" magmom=0.0017961 free_energy=-300.49132678 pbc="T T T"
Ge       0.76294653       0.73780327       1.40990977       0.24519177      -0.36358852      -0.02597975      -0.00000000
Ge       3.19453790      11.14427417       4.15862163      -0.38274076      -0.01845475       0.04322379       0.00000000
Ge       7.16480548       2.85728621       4.09442005      -0.20072916      -0.15050704       0.08502563       0.00000000
Ge       7.12124813       6.70265061       4.04080126      -0.28413312       0.22626647      -0.56664108       0.00000000
Ge       7.16002925      11.01530685       3.98833519      -0.37677372      -0.24576126       0.13709238       0.00000000
Ge      11.42602005       2.75367957       4.06237682      -0.35458761      -0.28411488       0.12941784       0.00000000
Ge      10.98169684       6.75231813       4.08513816       0.31221501       0.37083966      -0.18201908       0.00000000
Ge      11.02061848      10.85403791       4.02415669       0.38904268      -0.04026394       0.09023780       0.00000000
Ge       0.58162484       1.88704075       6.92297333       0.64178849      -0.02975345      -0.68335248      -0.00000000
Ge       0.72659501       6.24784846       6.91454490      -0.07018326      -0.20314984       0.32370661       0.00000000
Ge       0.89613018      10.42784792       6.99529170       0.06538016      -0.48949142       0.43899522       0.00000000
Ge       4.82896361       2.11415580       7.15220564      -0.22926383       0.00132459      -0.28080849       0.00000000
Ge       5.20624202       6.08066560       7.06306190      -0.17277632      -0.59126931       0.53980530       0.00000000
Ge       5.01889350      10.25076164       6.98375515      -0.62501745       0.15691384      -0.27854101       0.00000000
Ge       9.24148222       1.83884058       6.95085346      -0.15216788       0.47200304       0.10807936       0.00000000
Ge       9.38370265       6.01594749       6.92714977      -0.23106883      -0.60044362       0.36003994       0.00000000
Ge       2.99827315       6.87621082       4.04841940      -0.13538909      -0.12773431       0.02638331       0.00000000
Ge       2.94185358       2.49760655       3.84462370      -0.18175686       0.00659318       0.59144324      -0.00000000
Ge       8.79891906      10.43584108       7.02269855       0.55987576       0.27941298      -0.02833672       0.00000000
Ge      11.09004341       8.22268395       9.53329854       0.07513221      -0.10205628       0.50638913       0.00000000
Ge      11.18665293      12.32467177       9.52859162       0.27355253       0.28836495       0.45626920      -0.00000000
Ge       0.68262643       4.59638317       1.61380412      -0.05411693       0.03247880      -0.59801396      -0.00000000
Ge       0.78980604       8.85610232       1.51586042       0.18404201      -0.32679144       0.38890841       0.00000000
Ge       5.12088286       0.80150358       1.25880617      -0.50838268      -0.35727410      -0.11066779      -0.00000000
Ge       5.13067870       4.76804036       1.51729372      -0.30274743      -0.06096065      -0.04039923       0.00000000
Ge       9.08560507       0.20303028       1.44327437      -0.19200122       0.37722323      -0.00754918       0.00000000
Ge       9.00126868       4.79026414       1.18642798       0.20312573      -0.16737461       0.21254221       0.00000000
Ge       4.59653058       8.69647522       1.58021515       0.06545345       0.11076496       0.11424916       0.00000000
Ge       2.74222505       4.14651528       9.61567940      -0.03181307      -0.02611103       0.08326116      -0.00000000
Ge       2.67102263       7.97131790       9.69175978       0.49749987       0.37461280       0.09900363      -0.00000000
Ge       2.85469520      12.26081188       9.81015793       0.19096614       0.39914306      -0.47646332      -0.00000000
Ge       7.21238040       3.79699510       9.84256499       0.15897619       0.47016519      -0.56768715       0.00000000
Ge       6.98868285       8.21635038       9.62575140      -0.02321644      -0.27186792       0.24267696       0.00000000
Ge       7.02448443      12.38729343       9.50998289      -0.07303397       0.32530577      -0.10114163       0.00000000
Ge      11.17415690       3.92268310       9.66648245       0.04278628      -0.11042788      -0.27763057      -0.00000000
Ge       9.08820689       9.05314887       1.39942596       0.43085366      -0.75628329      -0.57989364       0.00000000
Se      11.19343114       0.08511646       7.04457180       0.21564566      -0.26060935      -0.22065851      -0.00000000
Se       3.03486514       4.37376462       7.16936552       0.45818135       0.20192143      -0.51161112      -0.00000000
Se       2.87804857       8.58411223       7.21116391       0.17023115      -0.06956738      -0.20483370      -0.00000000
Se       7.26826640       0.22233709       6.93175707      -0.52622909      -0.40689028       0.32308463      -0.00000000
Se       7.32107860       4.18572624       7.14904351      -0.22060852       0.73119033       0.10482430      -0.00000000
Se       7.03334976       8.63439694       7.11077618      -0.03503308      -0.60874088      -0.06812271      -0.00000000
Se      11.39927320       4.14383789       7.05170155      -0.54431469       1.05665533       0.06736719      -0.00000000
Se       9.14818410       0.14454692       3.97831931       0.22416044       0.30952688      -0.13836459      -0.00000000
Se       1.04907264       0.33820338       3.93586945      -0.11966015      -0.06558080       0.03572062      -0.00000000
Se       0.95525611       4.37087992       4.04789025       0.20935313       0.10039724       0.38301815      -0.00000000
Se       0.85013345       8.39205609       4.10246091      -0.28158450       0.07944954      -0.47527638      -0.00000000
Se       5.19081096       0.24029212       3.76826566      -0.28862615       0.23253395       0.24969539      -0.00000000
Se       5.07304713       4.48629773       4.07700370       0.33466913      -0.01297646      -0.21283771      -0.00000000
Se       5.02450968       8.56518025       4.16357306       0.07788292      -0.18402233      -0.60050380      -0.00000000
Se       2.82580469       0.33481624       7.15108585       0.35686354      -0.15818644       0.35747326      -0.00000000
Se      11.28623742       8.56313359       7.11570480       0.26576998      -0.01919405      -0.49312877      -0.00000000
Se      11.28887781      10.56836207       1.50481801      -0.21039152       0.53732245       0.07373838      -0.00000000
Se       2.84624038       2.43427323       1.39434670       0.44043645      -0.08301696      -0.30648477      -0.00000000
Se      11.24657624       2.36730010       1.55429810       0.06444265       0.03064252      -0.02643962      -0.00000000
Se       9.15914863       4.46879238       3.77880332      -0.03380208      -0.10861302       0.11333557      -0.00000000
Se       0.89146765       2.30980103       9.32552677      -0.11608382      -0.05460411       1.03078459      -0.00000000
Se       0.79391632       6.27010049       9.51799036       0.03920444       0.10032569      -0.25190235      -0.00000000
Se       0.91515449      10.65747998       9.64162398      -0.18965399      -0.36905193      -0.53260832      -0.00000000
Se       5.23676103       2.28087382       9.61804332      -0.55386927      -0.32809779      -0.07430354      -0.00000000
Se       5.11836175       6.36325144       9.69708958      -0.10172114       0.36781362      -0.94773239      -0.00000000
Se       5.05907621      10.69636690       9.43871011      -0.02007329      -0.27848991       0.42565314      -0.00000000
Se       9.19579355       2.13669626       9.53027976       0.36414303      -0.07483581      -0.08066428      -0.00000000
Se       9.39046094       6.27763484       9.49456842      -0.43934229       0.55379613      -0.48811821      -0.00000000
Se       9.21422390      10.73840825       9.54366813      -0.24579233      -0.66089535      -0.08198827      -0.00000000
Se       3.04532124       6.48811991       1.45569582      -0.00902950      -0.01388858       0.43084604      -0.00000000
Se       2.74283522      10.54994396       1.69401470       0.40589961      -0.07125877      -0.17613569      -0.00000000
Se       7.13192899       2.28543844       1.49075727       0.38945203       0.06127421       0.27535818      -0.00000000
Se       7.08209619       6.50014107       1.31880074       0.12382142       0.34907741       1.09038478      -0.00000000
Se       7.19364381      10.63926687       1.47274692      -0.39087704       0.58361446      -0.04870669      -0.00000000
Se      11.12458344       6.27833591       1.55077004       0.24818703       0.55865058       0.20478805      -0.00000000
Se       9.12845737       8.72478317       3.87228787       0.18436624      -0.59340457       0.60272394      -0.00000000
72
Lattice="12.447339226079395 1.2424451841e-06 -1.8235515412e-06 1.2478512543e-06 12.501499119987306 -9.524718771e-07 -2.0849290315e-06 -1.0842759191e-06 11.055542759630917" Properties=species:S:1:pos:R:3:forces:R:3:magmoms:R:1 energy=-300.57142166 stress="0.0055016833197819685 0.0022893269083957414 -0.0005469060206124311 0.0022893269083957414 0.0006075117483077432 0.00035725700435835497 -0.0005469060206124311 0.00035725700435835497 -0.011879794045737708" dipole="_JSON [[0.0, 0.0, 0.0]]" magmom=0.0018635 free_energy=-300.57142166 pbc="T T T"
Ge       0.80941749       0.55761052       1.36630236       0.21425166       0.14381524       0.35208584       0.00000000
Ge       2.97406344      11.16519911       4.19836250       0.15248013      -0.34337652      -0.17101222      -0.00000000
Ge       7.08143712       2.70919093       4.07920992      -0.10919537       0.26362967      -0.40263387       0.00000000
Ge       7.18004302       6.92711169       4.11969698      -0.29220236      -0.36271897      -0.08486791       0.00000000
Ge       7.07394461      11.09735546       4.00444557      -0.02534459      -0.29252300       0.41471345       0.00000000
Ge      11.03956648       2.74278161       4.02078716       0.32666527      -0.37687904       0.31264013       0.00000000
Ge      11.40508456       6.95490758       4.48424959      -0.35631848      -0.26866167      -0.87156158       0.00000000
Ge      11.20790495      10.69955940       4.01076825      -0.28545447       0.34205293      -0.40625409       0.00000000
Ge       0.83646351       1.81608105       6.82041194      -0.26868022      -0.00538360       0.44965912       0.00000000
Ge       0.69854603       6.37256388       7.06232021       0.31091818      -0.41376985      -0.10682487       0.00000000
Ge       1.20171950      10.27254787       7.06285165      -0.49925575      -0.07708745       0.11123338       0.00000000
Ge       4.66235222       2.14272693       7.14558727       0.33101197       0.12689673      -0.36017040       0.00000000
Ge       5.13840888       5.95067208       6.99062011      -0.60767653       0.35425581      -0.03149608      -0.00000000
Ge       4.96858477      10.25987269       6.95433326       0.06007267      -0.23770628       0.27833975       0.00000000
Ge       9.23121608       1.78376781       6.72106188       0.13117472      -0.39255858       0.22038306       0.00000000
Ge       9.28637953       6.06721909       6.96368125       0.02886705       0.15769660       0.19577416       0.00000000
Ge       2.85318248       6.77562850       4.15475129       0.15114531       0.07157895      -0.28858783      -0.00000000
Ge       2.52032591       2.64114183       4.19287837       0.44687746       0.02532074      -0.29519454       0.00000000
Ge       8.86457782      10.37049653       6.98448127      -0.17063675       0.03591384      -0.39629622       0.00000000
Ge      11.13715355       8.18985599       9.56331879      -0.09330455      -0.08615513       0.47662714       0.00000000
Ge      11.26708896      12.33610467       9.66936411      -0.03361558      -0.51307535      -0.61925043       0.00000000
Ge       0.57083802       4.66147876       1.46089033      -0.02025977       0.17115000       0.11682065       0.00000000
Ge       0.75800896       8.80290516       1.44594959      -0.13154788       0.06225535      -0.48149013      -0.00000000
Ge       4.75646291       0.56727994       1.48126452       0.40106727      -0.33344397      -0.11091707       0.00000000
Ge       5.01373415       4.84914158       1.58335988       0.17133948      -0.10692117      -0.71675343       0.00000000
Ge       8.86903072       0.43820216       1.45939001       0.09943459      -0.18429387      -0.29231148       0.00000000
Ge       8.97444311       4.54014765       1.19122920      -0.14476247       0.63696288       0.71682509       0.00000000
Ge       4.77504489       8.85862541       1.33821186      -0.01891529      -0.03229573       0.48825966      -0.00000000
Ge       2.78477510       3.96414586       9.65443585       0.07726785       0.26964465      -0.23685054       0.00000000
Ge       2.73730105       8.14443215       9.76493522       0.48834244       0.12800829      -0.03793394      -0.00000000
Ge       2.93629121      12.55432935       9.52299573      -0.10547660      -0.42451066       0.64534576       0.00000000
Ge       7.08188884       3.92199171       9.26157928      -0.02130121      -0.14248466       1.71313200       0.00000000
Ge       6.77930907       8.19082722       9.63890555       0.25602609       0.06095528       0.41460410      -0.00000000
Ge       7.09386933      12.24207257       9.41652654      -0.02438446      -0.06944248       0.60942706       0.00000000
Ge      11.03121730       3.87648938       9.55525381       0.34755871       0.32476618       0.06774557       0.00000000
Ge       9.16768090       8.77901975       1.31030012      -0.17779521       0.19208788       0.55479863       0.00000000
Se      11.36700657       0.03036629       6.99729069      -0.28524499       0.36477621       0.38944028      -0.00000000
Se       3.08328639       4.24491080       7.02177071       0.00250702       0.07683577       0.40754149      -0.00000000
Se       3.01801676       8.47724831       7.22746520       0.11929037       0.07109501      -0.17000110      -0.00000000
Se       7.09957738       0.17127230       6.98369484       0.37156048      -0.15932401      -0.33672105      -0.00000000
Se       7.15354524       4.35125814       6.95281597       0.28897822      -0.21401884      -1.14022992      -0.00000000
Se       6.98342399       8.53606505       7.16993181       0.07537493       0.10149899      -0.58516930      -0.00000000
Se      11.34988741       4.44266467       7.06694281      -0.22699562      -0.26861172       0.12086435      -0.00000000
Se       9.40754695       0.18254172       3.91655925      -0.30203858       0.07895047       0.26759283      -0.00000000
Se       1.05240638       0.32264109       3.98233295      -0.37527220       0.03618057      -0.27596936      -0.00000000
Se       0.85041680       4.58328662       4.02341581       0.05628449      -0.40043087      -0.28087562      -0.00000000
Se       0.85422277       8.62069166       3.92410870       0.45047082      -0.03625439       0.59016949      -0.00000000
Se       5.04633116       0.26317632       3.98721690       0.14810103       0.22400708       0.07073640      -0.00000000
Se       5.19888349       4.60367368       3.98118008       0.11727038      -0.42296646       0.78772078      -0.00000000
Se       5.17925193       8.51818997       3.91408433      -0.24258278       0.33493653      -0.08448226      -0.00000000
Se       2.91477295       0.19576317       7.06174914      -0.03993631      -0.08674955      -0.45964214      -0.00000000
Se      11.47553937       8.30276338       7.11562661      -0.26400882       0.82480144      -0.36296876      -0.00000000
Se      11.28381471      10.62625646       1.39625518       0.24062811      -0.09056958       0.52623749      -0.00000000
Se       3.06451372       2.37431233       1.60464702      -0.68847203       0.31837597       0.24134167      -0.00000000
Se      11.39876174       2.33558685       1.56153289      -0.16640301       0.20275216      -0.25445505      -0.00000000
Se       9.20309696       4.41386219       3.85459013      -0.39845243      -0.00508473      -0.47487041      -0.00000000
Se       0.90685416       2.19023153       9.50190677      -0.29997254      -0.02121443      -0.41324787      -0.00000000
Se       0.96991528       6.38604133       9.55905077      -0.34228054      -0.23717213       0.17415329      -0.00000000
Se       0.96428855      10.59803514       9.60299237       0.00107083       0.30636238      -0.28623945      -0.00000000
Se       4.87166580       2.26137080       9.64592163       0.53627339      -0.07026352      -0.14088285      -0.00000000
Se       4.93252367       6.44070364       9.53934940       0.13611105      -0.31199874      -0.08192644      -0.00000000
Se       5.09105900      10.58134705       9.54412045      -0.08689024       0.37143071      -0.38252154      -0.00000000
Se       9.21216486       2.14733156       9.29639732      -0.15834788       0.00542088      -0.09035390      -0.00000000
Se       9.15853025       6.46207470       9.51615307      -0.01350553      -0.12492516      -0.18350629      -0.00000000
Se       9.29889819      10.36064596       9.41402410       0.14400356       0.61556562       0.48118525      -0.00000000
Se       3.07074894       6.50086001       1.60680505      -0.18631800       0.26452025       0.16249643      -0.00000000
Se       2.92712479      10.69214338       1.65343237       0.09918753      -0.20719261       0.06346771      -0.00000000
Se       7.08104839       2.30639522       1.44916382       0.08910740       0.07967368       0.49504289      -0.00000000
Se       7.23082041       6.63054791       1.58602818       0.20467062      -0.53001755      -0.20703605      -0.00000000
Se       7.15700300      10.72669532       1.56444943       0.29750237      -0.20108500      -0.47898549      -0.00000000
Se      11.24070899       6.52421766       1.79942289       0.16161395      -0.27579571      -0.05727421      -0.00000000
Se       9.39398050       8.51764855       3.98507273      -0.07165839       0.68278825      -0.25863923      -0.00000000
72
Lattice="12.43276763694516 1.2409907046e-06 -1.8214167843e-06 1.248755567e-06 12.510558905768583 -9.531621296e-07 -2.0880582369e-06 -1.0859032752e-06 11.072135681333108" Properties=species:S:1:pos:R:3:forces:R:3:magmoms:R:1 energy=-300.52549891 stress="0.007873434374358335 0.0013135635064685624 -0.0003685319161037155 0.0013135635064685624 -0.005040354961594507 0.0006612523527343685 -0.0003685319161037155 0.0006612523527343685 -0.005459283818304984" dipole="_JSON [[0.0, 0.0, 0.0]]" magmom=0.001966 free_energy=-300.52549891 pbc="T T T"
Ge       0.92653078       0.53163571       1.36777385       0.12427078      -0.09227537       0.28354083       0.00000000
Ge       2.62152923      10.84576143       4.11992220       0.65090773      -0.05240206      -0.31034068      -0.00000000
Ge       7.16878408       2.67625343       4.16505696      -0.15629465       0.12932812      -0.15255035      -0.00000000
Ge       7.02223896       6.97575285       4.17260422       0.12520810      -0.21685994       0.69453839      -0.00000000
Ge       6.77966012      10.78725410       4.06220106       0.66124999      -0.73392490      -0.25137535      -0.00000000
Ge      11.15012811       2.46561994       4.13289338      -0.35156946       0.19221281      -0.09434233       0.00000000
Ge      11.35895990       6.71278461       4.08358945      -0.68839753       0.19889990      -0.06197599       0.00000000
Ge      11.26725424      11.05601005       4.37756927      -0.17650225       0.17676111      -0.19985131       0.00000000
Ge       1.11161009       1.98918420       6.89096741      -0.27864772      -0.46958916       0.57545839       0.00000000
Ge       0.76951931       6.03887770       7.05850141       0.04491873       0.27227965      -0.31969900       0.00000000
Ge       0.94020400      10.01630967       6.80919551       0.00320071       0.45965759       0.13264760       0.00000000
Ge       5.02125019       2.00042792       6.84967106       0.06329298      -0.63762718      -0.09217455      -0.00000000
Ge       4.89346996       5.98612041       6.94468065       0.11713897       0.29649626      -0.85059612      -0.00000000
Ge       5.07532908      10.43010239       6.85947719      -0.13109834      -0.02789734       0.68181854      -0.00000000
Ge       9.24879046       1.92785943       7.12143793      -0.27221369       0.04121049       0.24204702       0.00000000
Ge       8.83873111       6.22766506       6.93029323       0.21303674      -0.11915695      -0.88985492      -0.00000000
Ge       2.51532270       6.58942803       4.19589431       0.73840329      -0.08643839      -0.17739500       0.00000000
Ge       2.88336572       2.65148183       4.14076503       0.32605871       0.35063596      -0.32592419       0.00000000
Ge       9.41252214      10.09896121       6.95072393      -0.22931402       0.69299488      -0.07561031      -0.00000000
Ge      10.99444188       8.27951006       9.55337360       0.14155741       0.21751436      -0.17027693       0.00000000
Ge      11.38258305      12.30767586       9.73333617      -0.18674792      -0.38100524      -0.41507425       0.00000000
Ge       0.92915400       4.81084166       1.29974702       0.16873558      -0.26138391       0.41454537       0.00000000
Ge       0.83850644       8.98414608       1.45564160       0.23318415      -0.27431098      -0.46482683       0.00000000
Ge       5.05018397       0.49089972       1.55288044      -0.10140398      -0.05266497       0.04738136       0.00000000
Ge       5.03458992       4.82776409       1.30958416       0.05172535      -0.17019458       0.10665517       0.00000000
Ge       9.28353855       0.67069677       1.55253718      -0.66829387      -0.63252079      -0.05015927       0.00000000
Ge       9.13133249       4.71462045       1.43359355      -0.07964608      -0.14856328       0.74170095       0.00000000
Ge       5.15354748       8.90789176       1.29691938      -0.30043852       0.03090964       0.06310796       0.00000000
Ge       2.84973960       4.23294468       9.49753043       0.05143550       0.02668365      -0.15228039       0.00000000
Ge       3.10071795       8.23754180       9.57138011      -0.11307334       0.06548304      -0.21213371       0.00000000
Ge       2.78040432      12.35500532       9.66652194       0.16218453      -0.34080109      -0.00111200       0.00000000
Ge       7.04075190       3.99894845       9.72348194       0.03167768      -0.12431462      -0.16026272       0.00000000
Ge       7.10732754       8.39693124       9.54647922      -0.01625689      -0.12179222       0.09051223      -0.00000000
Ge       6.69463958      12.68998501       9.68150407       0.21705198      -0.09771639      -0.14422964       0.00000000
Ge      11.36333940       4.30397555       9.57573798      -0.10422786      -0.31540292       0.05061266       0.00000000
Ge       9.21976745       8.91466568       1.40824482      -0.13254421       0.06943752       0.52641892       0.00000000
Se      11.24780189       0.33105643       7.19610840       0.29016391      -0.06418442       0.25423795      -0.00000000
Se       2.84989847       4.27586202       6.87410287       0.26418643       0.10352745       0.61189044      -0.00000000
Se       2.94418270       8.45146013       7.00389013       0.29463368       0.11909270       0.17573521      -0.00000000
Se       7.05656408       0.18670915       7.15120876      -0.17465565       0.20679555       0.00838967      -0.00000000
Se       6.96605399       4.43030858       7.13576767       0.13388844      -0.32238759       0.18310490      -0.00000000
Se       7.11338192       8.77419267       7.06144039       0.14148989      -0.36964125      -0.13520481      -0.00000000
Se      11.08619957       4.53409441       7.09415518      -0.00793194      -0.38839144      -0.01584240      -0.00000000
Se       9.25748994       0.17153469       4.11929706       0.02750977       0.23438944      -0.15553029      -0.00000000
Se       0.98751648       0.27139148       3.99013381      -0.51660806      -0.09985687      -0.23278701      -0.00000000
Se       0.81622114       4.44383807       3.97946415       0.27346069      -0.44406986      -0.43406386      -0.00000000
Se       0.86080518       8.49915345       3.95483079      -0.25261166      -0.06046262       0.10352446      -0.00000000
Se       4.88590961      -0.19120677       4.04189344      -0.50329639       1.09070140      -0.09195075      -0.00000000
Se       5.19710504       4.36474391       3.79391584      -0.71035629      -0.21672634       0.52059627      -0.00000000
Se       4.99610556       8.48420929       3.80579635       0.09911895       0.33870389       0.19172399      -0.00000000
Se       2.91239047      -0.02587630       7.15900151       0.05798996       1.07227172      -0.24605293      -0.00000000
Se      11.34926129       8.36419136       6.94447260      -0.07814117      -0.19599384       0.49870345      -0.00000000
Se      11.27036861      10.53952824       1.80512544      -0.09424770       0.50952580      -0.14223292      -0.00000000
Se       2.99350525       2.16175699       1.62049459      -0.04184215       0.30102710       0.03755093      -0.00000000
Se      11.27849504       2.17068285       1.57551591       0.35075833       0.76937246       0.16683083      -0.00000000
Se       9.22253633       4.35932251       4.15789865       0.02911808      -0.40269328      -0.89807483      -0.00000000
Se       0.94340517       2.52496170       9.54253907      -0.25043667      -0.30618272      -0.51223359      -0.00000000
Se       0.96308432       6.46275097       9.51915661      -0.07739922      -0.16701281       0.30251111      -0.00000000
Se       0.90596276      10.52783276       9.38551263      -0.28039114       0.15388087       0.10210140      -0.00000000
Se       5.00833551       2.33547412       9.34605363      -0.07855322      -0.05764397       0.37855722      -0.00000000
Se       5.09090748       6.60860966       9.31678495      -0.05900418      -0.10960773       0.83692922      -0.00000000
Se       4.91561402      10.66745258       9.54841349      -0.11848331       0.13533624      -0.51649116      -0.00000000
Se       8.99954871       2.28624996       9.68054746       0.29082313       0.18204683      -0.37383854      -0.00000000
Se       9.07916555       6.55649316       9.32742920      -0.24228832       0.07030701       1.12657994      -0.00000000
Se       9.28495929      10.56765705       9.47853374       0.32135757      -0.00582836       0.09472113      -0.00000000
Se       2.96688493       6.47537316       1.62560825      -0.18013650      -0.06668529       0.03421459      -0.00000000
Se       2.94481375      10.60870281       1.52833017      -0.21438973      -0.13480626       0.22831312      -0.00000000
Se       6.96980648       2.28521828       1.62032556       0.59249867      -0.24948293       0.18262036      -0.00000000
Se       7.11840808       6.40200692       1.76761055       0.25512715       0.17525947      -0.98419944      -0.00000000
Se       7.11005271      10.61454466       1.46203200       0.20267995       0.06588653       0.28422414      -0.00000000
Se      11.24556741       6.27307580       1.56371482      -0.14679238       0.62303842      -0.18915480      -0.00000000
Se       9.14760740       8.59036396       4.00138298       0.26419251      -0.35316798      -0.47434253      -0.00000000
72
Lattice="12.428667893792593 1.2405814841e-06 -1.8208161665e-06 1.2490249277e-06 12.513257474915381 -9.533677299e-07 -2.0887714354e-06 -1.086274177e-06 11.075917486996715" Properties=species:S:1:pos:R:3:forces:R:3:magmoms:R:1 energy=-300.36607986 stress="0.006672714051127415 0.0003479997915096278 -0.0021161346046274804 0.0003479997915096278 -0.005951764334969879 0.0008023238158088595 -0.0021161346046274804 0.0008023238158088595 -0.012177106997266204" dipole="_JSON [[0.0, 0.0, 0.0]]" magmom=0.0018873 free_energy=-300.36607986 pbc="T T T"
Ge       0.95272435       0.45609211       1.43433635      -0.28756370       0.37498274       0.10569576      -0.00000000
Ge       2.84783237      10.78919990       3.97493826      -0.09521692       0.28894648       0.38106044       0.00000000
Ge       6.98135331       2.77739812       4.07067710      -0.04694890      -0.55749542       0.21702723       0.00000000
Ge       7.13867325       6.91964406       4.31180455       0.08592283       0.14965605      -0.76717004       0.00000000
Ge       6.97974179      10.55857174       4.06934340      -0.27916420       0.59320058       0.18749566       0.00000000
Ge      10.92723186       2.46399392       4.05736179       0.23173489      -0.23568990       0.19261001      -0.00000000
Ge      11.22443122       6.85945702       4.27294375       0.62508397      -0.69052911      -0.41362831      -0.00000000
Ge      11.22893098      11.09823972       4.30198221       0.12893094      -0.18599716      -0.21052363       0.00000000
Ge       0.84052275       1.88114669       6.88528518      -0.03478180       0.88404654       0.26338942      -0.00000000
Ge       0.76706710       6.02966323       7.02724257       0.02897126       0.19172836       0.28992668       0.00000000
Ge       0.96324743      10.14364885       6.84602915      -0.01394103      -0.11903852      -0.01810551       0.00000000