72
Lattice="12.46010387346419 1.2437193018e-06 -1.8254215788e-06 1.2437193018e-06 12.46010348105724 -9.493180008e-07 -2.0710855489e-06 -1.077076559e-06 10.98213632151942" Properties=species:S:1:pos:R:3:forces:R:3:magmoms:R:1 energy=-275.82766955 stress="-0.040283413689917204 0.007769519045774357 0.0009295576721475027 0.007769519045774357 -0.03618256198311891 0.004184472662353806 0.0009295576721475027 0.004184472662353806 -0.05765885966671572" dipole="_JSON [[0.0, 0.0, 0.0]]" magmom=-0.0002154 free_energy=-275.8282405 pbc="T T T"
Ge       0.96667223       0.63411769       1.57967586      -0.43017471       0.29761351      -1.60049262       0.00000000
Ge       2.96801065      10.96643675       4.01400031       0.20410191      -0.82295880       0.67192803       0.00000000
Ge       7.22434981       2.92882366       4.18475478       2.97197109      -1.87550058      -0.05460522      -0.00000000
Ge       6.95044048       6.89796054       4.08887430      -0.32012323      -0.56319849       0.18759827       0.00000000
Ge       7.19079454      11.34110774       4.03386249      -0.18704395      -0.48918873       1.19470403      -0.00000000
Ge      11.24953604       2.48807811       4.01886345      -0.06517453       0.75574575       0.30847127       0.00000000
Ge      11.13800677       7.13873754       4.13744776      -1.23344551      -0.81133726       0.07134159       0.00000000
Ge      11.13745367      11.35803336       3.81102445      -1.02287251      -2.28587825       0.96495817       0.00000000
Ge       1.04940918       2.02233662       7.02025651      -1.30313892       0.09736268       0.57264088       0.00000000
Ge       0.82492684       5.94657656       6.83677609      -2.65271136       2.00392399      -0.77023544       0.00000000
Ge       1.03437255       9.66003861       6.80321819      -0.38134460       1.01341455      -0.02571704       0.00000000
Ge       5.06091369       1.70285512       6.54194846       0.43853221       0.19632017       0.83688065       0.00000000
Ge       4.98195951       5.82142259       7.06551984       0.87360633      -0.50037410      -4.08849401       0.00000000
Ge       5.31000643      10.13969959       6.51864072      -0.75389889       0.44889092       0.41281834       0.00000000
Ge       9.14465465       1.63426311       7.04186917      -0.09488420       1.84165342      -0.46456539      -0.00000000
Ge       9.52218488       6.03594177       7.31251563      -1.72152089      -0.50471172      -2.47857522       0.00000000
Ge       2.78984372       6.76039740       4.09652531       0.32542300       0.43888765       0.24231866       0.00000000
Ge       2.87167105       2.76766836       4.19711383       0.08689639      -0.62744200      -0.72649004       0.00000000
Ge       9.48680489      10.26512987       6.73341579      -1.33086467       1.57561777       0.21227197       0.00000000
Ge      11.12861493       7.71350600       9.31503852       5.58072275       6.02531092       0.96584138       0.00000000
Ge      11.55759391      11.97402007       9.65402955      -9.69817299       8.89422675       0.21831774      -0.00000000
Ge       0.95735219       4.51410302       1.37351522      -0.34241483       0.27105269      -0.01048182       0.00000000
Ge       1.13472872       8.66845066       1.42648697      -1.28762351       0.01392937      -0.05449878       0.00000000
Ge       4.95200547       0.40961012       1.21172199       1.02938785       0.30687590       0.37018805      -0.00000000
Ge       5.05003489       4.80565016       1.47583107       1.10141292      -0.95466262       0.14717707       0.00000000
Ge       9.37255949       0.72371430       1.58035100       0.59525773       2.43327543     -24.11835515      -0.00000000
Ge       9.40262572       4.90736500       1.25098601      -0.13558499      -0.06351440      -0.79263983      -0.00000000
Ge       4.74062224       8.83819998       1.48317086       1.76425890      -1.20550273      -0.58073934       0.00000000
Ge       2.60959492       4.31308009       9.34466136       0.37189758      -1.29973206       4.95536835       0.00000000
Ge       2.49735249       7.93169437       9.87217848       5.73901528       4.61178563       0.62206149       0.00000000
Ge       2.93678207      12.28364858       9.51405640      -1.75769843       1.56969885      -0.34290254       0.00000000
Ge       7.08249487       4.14862637       9.72731821      -0.02663359      -1.25207973      -0.34611050       0.00000000
Ge       7.08189078       8.22698875       9.78301290      -0.18295959       0.19807041      -0.26296907       0.00000000
Ge       7.05530830      12.25602902       9.61894410       0.54189286       0.69675874       0.17379144      -0.00000000
Ge      11.11884914       4.12547309       9.53470890      -0.11478318      -1.65587357       0.55946825       0.00000000
Ge       9.19480694       8.75332086       0.93773147       0.33830788       0.41363396       1.03273702       0.00000000
Se      11.10342324       0.31811652       7.20824302       1.41069013      -1.09511442      -0.60785121      -0.00000000
Se       2.52348026       4.56388589       7.20008935       2.42930143      -2.06478355      -4.29610154      -0.00000000
Se       3.09605537       8.47875533       7.04809414       0.34504721      -0.43002534       0.42277304      -0.00000000
Se       7.20543175       0.19307059       7.06936485      -0.90235260      -1.23639909      -0.37431356      -0.00000000
Se       7.26875771       3.82316190       7.23334367      -0.63131293       1.68267360      -0.58121382      -0.00000000
Se       6.99325276       8.63869719       7.28891178       0.84998864      -0.72836963      -0.31945664      -0.00000000
Se      11.12661544       4.20133204       7.06852081       0.93466794       0.00849172      -0.26695432      -0.00000000
Se       9.26662785       0.51435112       3.34943486      -1.60550699      -2.26746362      23.89415940      -0.00000000
Se       0.78451354      -0.13217062       3.86706536       1.51579174       1.97931621       1.31931515      -0.00000000
Se       1.17659695       4.60590018       3.92092473      -1.09080569      -0.02200311       0.39898461      -0.00000000
Se       0.71137514       8.49022372       3.94732914       1.16153053       0.53879987       0.21945273      -0.00000000
Se       4.88990634       0.11922899       4.06885983      -0.04061774       0.63060766      -0.83564505      -0.00000000
Se       5.21238202       3.85133507       4.13955505      -3.10659078       2.75918611      -0.53143704      -0.00000000
Se       5.05237505       8.72307291       3.93992059      -0.70593914      -0.88378880       0.77826706      -0.00000000
Se       2.51908703       0.18073135       6.74233618       1.14388114      -0.93222927       0.93282193      -0.00000000
Se      10.81756656       8.36750571       7.08008232       1.89466515      -0.84039610      -1.94229560      -0.00000000
Se      11.57328904      10.69184128       1.50552201      -0.63091748      -0.88257765      -0.64245580      -0.00000000
Se       2.66985689       2.69003035       1.47648442       0.94756325      -0.87664010       0.81557027      -0.00000000
Se      11.29898227       2.43862635       1.52236758       1.33884065      -0.00820799      -0.37612823      -0.00000000
Se       9.49678911       4.37739354       3.57892963      -0.24381848      -0.03456788       1.93777276       0.00000000
Se       0.91328686       1.95450810       9.66454802      -0.25583337       1.54743737      -0.88225283      -0.00000000
Se       0.91925622       6.67548681       9.51840502      -4.78658433      -5.33913084      -1.15541788      -0.00000000
Se       0.51065449      10.68661689       9.64925497      10.00044421      -9.39303046      -0.88396973      -0.00000000
Se       5.38672003       2.05718532       9.27922666      -1.05853547       0.62188374       0.51975058      -0.00000000
Se       5.06725920       6.19400860       9.18801127       0.11523794       0.88148555       4.58406641      -0.00000000
Se       4.83435872      11.07501908       9.33447540       1.64568008      -2.43295967      -0.37784857      -0.00000000
Se       9.00003992       2.15598750       9.45687152       0.68266777       0.77136541       0.77174503      -0.00000000
Se       9.45770751       6.58573002       9.61279043      -7.02304600      -4.54660287       2.56816199      -0.00000000
Se       9.20767910      10.58089765       9.32711718      -0.29031059      -0.27042994       0.16907058      -0.00000000
Se       3.17319832       6.37193491       1.54912793      -0.83147302       0.73465277       0.09672497      -0.00000000
Se       2.93931913      10.31262380       1.55114966      -0.78368573       2.24302619      -0.24277156      -0.00000000
Se       7.19912723       2.44668850       1.66515159      -0.51425533      -0.61484279      -0.39626825      -0.00000000
Se       7.32651687       6.49266481       1.56464594      -0.87089826      -0.40191344      -0.19203017      -0.00000000
Se       6.72846583      10.47914009       1.87580594       0.27499742       0.74346225      -2.27957560      -0.00000000
Se      11.13964342       6.84196938       1.63621255      -0.04221329      -0.15075894      -0.30977794      -0.00000000
Se       8.64465195       8.55504074       3.73789166       1.80408639       1.11775306       0.06211816      -0.00000000
