72
Lattice="12.42149685087309 1.2398656984e-06 -1.8197655993e-06 1.2497426418e-06 12.52044783612419 -9.539155535e-07 -2.0909521133e-06 -1.0874082475e-06 11.08748074750404" Properties=species:S:1:pos:R:3:forces:R:3:magmoms:R:1 energy=-300.73354771 stress="0.006278463534798823 0.0008988508578292194 0.0022147458238581733 0.0008988508578292194 -0.003137640404145885 0.0012940307972817476 0.0022147458238581733 0.0012940307972817476 -0.004515514729198575" dipole="_JSON [[0.0, 0.0, 0.0]]" magmom=0.0017001 free_energy=-300.73354771 pbc="T T T"
Ge       0.96976379       0.61419284       1.37267925      -0.16846831       0.03392704       0.24895723       0.00000000
Ge       2.71890180      10.98557145       4.23730524       0.51622149       0.07790588      -0.06798972       0.00000000
Ge       7.25688330       2.50125090       4.07904382      -0.51865418       0.22807262      -0.04794024       0.00000000
Ge       7.18726019       6.94026424       4.04488758      -0.25300033      -0.02099436       0.56526053       0.00000000
Ge       6.78112846      10.93167033       4.21995202      -0.23465433      -0.08680891      -0.53473748       0.00000000
Ge      10.99361655       2.30258136       4.24533406      -0.23565787       0.18751621      -0.44168441       0.00000000
Ge      11.18496854       6.82658840       4.02504220       0.05131315      -0.00413878      -0.04220357       0.00000000
Ge      11.46210883      11.07337373       3.95511786      -0.53848558      -0.01606277      -0.00955931      -0.00000000
Ge       0.87665407       1.85315649       7.02362108      -0.23023677      -0.15803572      -0.23661872       0.00000000
Ge       0.97535604       6.04233024       7.05021386      -0.52362752       0.13091072      -0.17848964       0.00000000
Ge       0.79934141      10.33932093       7.16106548      -0.07249688       0.24859522      -0.58823696      -0.00000000
Ge       4.92554647       2.12185184       7.03733962       0.07064231      -0.31842136      -0.13054940       0.00000000
Ge       5.09532226       6.03401540       6.98564836      -0.07810831      -0.01055691       0.14064243       0.00000000
Ge       4.73377201      10.20271159       6.96872456       0.45245466       0.30753930       0.19102276       0.00000000
Ge       8.89139468       1.87598969       6.90352827       0.20246846      -0.34739493       0.15945738       0.00000000
Ge       9.06665344       6.35210189       6.90066481       0.13206009      -0.38187472      -0.38359760       0.00000000
Ge       2.71714251       6.67227296       4.06900812       0.15331852      -0.12207769       0.05656229       0.00000000
Ge       3.10311941       2.86751155       4.18212931       0.40137923      -0.41664540      -0.36647335       0.00000000
Ge       8.93825072      10.04867654       7.05594391       0.76266731       0.58096871       0.20868338      -0.00000000
Ge      11.40886627       8.08395604       9.61882473      -1.10447257       0.81854426      -0.22462395       0.00000000
Ge      11.21616262      12.41874445       9.59338342      -0.12758118      -0.28806374      -0.42644368      -0.00000000
Ge       0.75535633       4.55358871       1.44922231      -0.42690719      -0.21273998       0.04003173       0.00000000
Ge       0.85821291       8.92095354       1.47461372      -0.11985255      -0.12869667      -0.13797916      -0.00000000
Ge       4.83107767       0.58178875       1.05597425       0.22707615      -0.13925602       0.54643655       0.00000000
Ge       4.94597038       4.71471180       1.35478992       0.12806448       0.25237664       0.48997131       0.00000000
Ge       8.81239732       0.60761209       1.22827026       0.22070762      -0.69593450       0.16275084       0.00000000
Ge       9.07479515       4.71884001       1.37196777      -0.13459851       0.15149086       0.40794292       0.00000000
Ge       4.68647689       8.62073987       1.50966030       0.10979234       0.34700301       0.53969258       0.00000000
Ge       2.80575502       4.12247175       9.68994136      -0.17583599      -0.20313869      -0.19472787       0.00000000
Ge       3.07485625       8.31321306       9.57726662      -0.16361752      -0.10214746      -0.15277932      -0.00000000
Ge       3.03348683      12.40884902       9.68940583      -0.02044501       0.01159366       0.12074816       0.00000000
Ge       7.39297720       4.00649874       9.83703460      -0.50097914       0.44312477      -0.19527276       0.00000000
Ge       6.99123137       8.17505533       9.80475129       0.24474668      -0.11331828      -0.05135393       0.00000000
Ge       7.02869516      12.29006314       9.58479139       0.23071095      -0.46857853       0.05083991       0.00000000
Ge      11.22745282       4.07101391       9.61320031       0.09695296      -0.03481355       0.28095688       0.00000000
Ge       9.06942474       9.01873280       1.42401101       0.12650671       0.30234410       0.14643186      -0.00000000
Se      11.17829468       0.04488274       6.95450264      -0.03425041       0.58415427       0.52929764      -0.00000000
Se       2.89965319       4.30520966       7.09375129       0.21216226       0.22357354       0.15956564      -0.00000000
Se       2.84088728       8.57486304       7.01089312      -0.02128717      -0.30756110       0.45311164      -0.00000000
Se       6.84020779       0.17645233       7.08126885       0.57458806       0.41587637       0.20891152      -0.00000000
Se       7.22223491       4.47905987       7.25308941      -0.28542896      -0.22657954      -0.03327787      -0.00000000
Se       7.03921180       8.40231128       7.27010365      -0.32191824      -0.10415182      -0.16804007      -0.00000000
Se      11.31204659       4.40691338       7.18887666       0.09133493       0.11582994      -0.63014955      -0.00000000
Se       9.28227192       0.34796620       3.77892071       0.13985103      -0.17881808       0.14716892      -0.00000000
Se       0.92017254       0.30399830       3.98155696       0.18036187       0.09318062      -0.25570530      -0.00000000
Se       1.16152567       4.46913327       3.97142632      -0.50243962       0.33568352      -0.05128693      -0.00000000
Se       0.87855043       8.53888138       4.03148833      -0.45141963      -0.23508167      -0.21209024      -0.00000000
Se       4.82106980       0.03624119       3.70761158       0.10490523       0.23806985       0.04220432      -0.00000000
Se       5.17262410       4.42606868       3.93716584      -0.08569679      -0.15654507      -0.05095720      -0.00000000
Se       5.19429842       8.74669670       4.14748329       0.06464005      -0.39064831      -0.60614783      -0.00000000
Se       3.17764831       0.16678667       7.20183329      -0.48088497       0.18843635      -0.32779563      -0.00000000
Se      11.30594701       8.62029588       7.02208820      -0.32731124      -0.24587858       0.42563850      -0.00000000
Se      11.41490441      10.70532631       1.43792022      -0.38468661      -0.07032331       0.20802541      -0.00000000
Se       3.03772146       2.33126789       1.44438477      -0.23057989       0.30231366       0.57049170      -0.00000000
Se      11.39060404       2.25977261       1.67000125       0.20412841       0.52884973      -0.00340683      -0.00000000
Se       9.09394899       4.29090875       3.96609006       0.26049263      -0.12100599      -0.36983000      -0.00000000
Se       0.81087946       2.20001999       9.50645352       0.13072531       0.22226787       0.27636567      -0.00000000
Se       0.92279569       6.65533732       9.54598550       0.87037027      -1.03034343      -0.04541937      -0.00000000
Se       0.93297584      10.81341679       9.60174300      -0.03882192      -0.31968478       0.27696291      -0.00000000
Se       4.79407185       2.56908175       9.50669303       0.86880627      -0.50566128       0.27751171      -0.00000000
Se       4.96484135       6.48047016       9.56767131      -0.05742099      -0.04861257      -0.21352248      -0.00000000
Se       4.99130445      10.51557787       9.60946858       0.19477666       0.18904201      -0.23799637      -0.00000000
Se       9.23683153       2.34932909       9.47658346       0.08089490      -0.53777314      -0.27631108      -0.00000000
Se       9.24933316       6.43007667       9.33580908      -0.03593367       0.20219729       0.99617209      -0.00000000
Se       9.24995841      10.48110874       9.63962509      -0.53702769       0.60275953      -0.46669902      -0.00000000
Se       2.98575270       6.51422134       1.53290990       0.18438207       0.08647028       0.03986658      -0.00000000
Se       2.84303902      10.53018099       1.73130092       0.10772027      -0.04584779      -0.22762460      -0.00000000
Se       6.90862999       2.24178995       1.51942991      -0.04188630       0.19530775       0.12106880      -0.00000000
Se       6.97526138       6.54082944       1.60455383       0.52289305      -0.24856455      -0.60444733      -0.00000000
Se       7.13527507      10.75095887       1.64254922       0.43539826       0.01134595       0.11138266      -0.00000000
Se      11.15071467       6.28410601       1.44556168       0.08337816       0.20560140       0.34803775      -0.00000000
Se       9.25544529       8.56276665       4.01316281       0.02578104       0.17990700      -0.35620345      -0.00000000
