 vasp.6.4.2 20Jul23 (build Oct 12 2023 10:31:02) complex                         
 executed on              LinuxNV date 2025.05.28  23:00:43
 running  128 mpi-ranks, with    1 threads/rank, on    2 nodes
 distrk:  each k-point on   64 cores,    2 groups
 distr:  one band on NCORE=   4 cores,   16 groups


--------------------------------------------------------------------------------------------------------


 INCAR:
   ENCUT = 360.000000
   SIGMA = 0.050000
   EDIFF = 1.00e-06
   ALGO = Normal
   GGA = PE
   PREC = Normal
   SYSTEM = ./
   ICHARG = 2
   ISMEAR = 0
   ISPIN = 1
   ISTART = 0
   ISYM = 0
   KPAR = 2
   LMAXMIX = 4
   NELM = 100
   NPAR = 16
   LASPH = .TRUE.
   LCHARG = .FALSE.
   LWAVE = .FALSE.

 POTCAR:    PAW_PBE Ge 05Jan2001                  
 POTCAR:    PAW_PBE Se 06Sep2000                  
 POTCAR:    PAW_PBE Ge 05Jan2001                  
   VRHFIN =Ge: s2p2                                                                                 
   LEXCH  = PE                                                                                      
   EATOM  =   104.9960 eV,    7.7170 Ry                                                             
                                                                                                    
   TITEL  = PAW_PBE Ge 05Jan2001                                                                    
   LULTRA =        F    use ultrasoft PP ?                                                          
   IUNSCR =        1    unscreen: 0-lin 1-nonlin 2-no                                               
   RPACOR =    2.170    partial core radius                                                         
   POMASS =   72.610; ZVAL   =    4.000    mass and valenz                                          
   RCORE  =    2.300    outmost cutoff radius                                                       
   RWIGS  =    2.300; RWIGS  =    1.217    wigner-seitz radius (au A)                               
   ENMAX  =  173.807; ENMIN  =  130.355 eV                                                          
   ICORE  =        3    local potential                                                             
   LCOR   =        T    correct aug charges                                                         
   LPAW   =        T    paw PP                                                                      
   EAUG   =  385.843                                                                                
   DEXC   =    0.000                                                                                
   RMAX   =    2.342    core radius for proj-oper                                                   
   RAUG   =    1.300    factor for augmentation sphere                                              
   RDEP   =    2.318    radius for radial grids                                                     
   RDEPT  =    2.103    core radius for aug-charge                                                  
                                                                                                    
   Atomic configuration                                                                             
   10 entries                                                                                       
     n  l   j            E        occ.                                                              
     1  0  0.50    -10959.8463   2.0000                                                             
     2  0  0.50     -1371.6056   2.0000                                                             
     2  1  1.50     -1198.4791   6.0000                                                             
     3  0  0.50      -168.4733   2.0000                                                             
     3  1  1.50      -115.6019   6.0000                                                             
     3  2  2.50       -29.3106  10.0000                                                             
     4  0  0.50       -11.7309   2.0000                                                             
     4  1  0.50        -3.8952   2.0000                                                             
     4  2  1.50        -4.0817   0.0000                                                             
     4  3  2.50        -4.0817   0.0000                                                             
   Description                                                                                      
     l       E           TYP  RCUT    TYP  RCUT                                                     
     0    -11.7309493     23  2.300                                                                 
     0     -7.4578696     23  2.300                                                                 
     1     -3.8952261     23  2.300                                                                 
     1      6.1178114     23  2.300                                                                 
     2     -4.0817478     23  2.300                                                                 
     3     -1.3605826      7  2.300                                                                 
  local pseudopotential read in
  partial core-charges read in
  partial kinetic energy density read in
  atomic valenz-charges read in
  non local Contribution for L=            0  read in
    real space projection operators read in
  non local Contribution for L=            0  read in
    real space projection operators read in
  non local Contribution for L=            1  read in
    real space projection operators read in
  non local Contribution for L=            1  read in
    real space projection operators read in
  non local Contribution for L=            2  read in
    real space projection operators read in
    PAW grid and wavefunctions read in
 
   number of l-projection  operators is LMAX  =            5
   number of lm-projection operators is LMMAX =           13
 
 POTCAR:    PAW_PBE Se 06Sep2000                  
   VRHFIN =Se: s2p4                                                                                 
   LEXCH  = PE                                                                                      
   EATOM  =   257.1286 eV,   18.8984 Ry                                                             
                                                                                                    
   TITEL  = PAW_PBE Se 06Sep2000                                                                    
   LULTRA =        F    use ultrasoft PP ?                                                          
   IUNSCR =        1    unscreen: 0-lin 1-nonlin 2-no                                               
   RPACOR =    1.900    partial core radius                                                         
   POMASS =   78.960; ZVAL   =    6.000    mass and valenz                                          
   RCORE  =    2.100    outmost cutoff radius                                                       
   RWIGS  =    2.200; RWIGS  =    1.164    wigner-seitz radius (au A)                               
   ENMAX  =  211.555; ENMIN  =  158.666 eV                                                          
   ICORE  =        3    local potential                                                             
   LCOR   =        T    correct aug charges                                                         
   LPAW   =        T    paw PP                                                                      
   EAUG   =  446.842                                                                                
   DEXC   =    0.000                                                                                
   RMAX   =    2.147    core radius for proj-oper                                                   
   RAUG   =    1.300    factor for augmentation sphere                                              
   RDEP   =    2.177    radius for radial grids                                                     
   RDEPT  =    1.928    core radius for aug-charge                                                  
                                                                                                    
   Atomic configuration                                                                             
   10 entries                                                                                       
     n  l   j            E        occ.                                                              
     1  0  0.50    -12503.4787   2.0000                                                             
     2  0  0.50     -1606.9547   2.0000                                                             
     2  1  1.50     -1413.3140   6.0000                                                             
     3  0  0.50      -213.4885   2.0000                                                             
     3  1  1.50      -152.9538   6.0000                                                             
     3  2  2.50       -53.1221  10.0000                                                             
     4  0  0.50       -17.2865   2.0000                                                             
     4  1  0.50        -6.5110   4.0000                                                             
     4  2  2.50        -6.8029   0.0000                                                             
     4  3  2.50        -6.8029   0.0000                                                             
   Description                                                                                      
     l       E           TYP  RCUT    TYP  RCUT                                                     
     0    -17.2865377     23  2.100                                                                 
     0    -15.3094411     23  2.100                                                                 
     1     -6.5110275     23  2.100                                                                 
     1     -0.0695192     23  2.100                                                                 
     2     -6.8029130     23  2.100                                                                 
     3     -1.3605826      7  2.100                                                                 
  local pseudopotential read in
  partial core-charges read in
  partial kinetic energy density read in
  atomic valenz-charges read in
  non local Contribution for L=            0  read in
    real space projection operators read in
  non local Contribution for L=            0  read in
    real space projection operators read in
  non local Contribution for L=            1  read in
    real space projection operators read in
  non local Contribution for L=            1  read in
    real space projection operators read in
  non local Contribution for L=            2  read in
    real space projection operators read in
    PAW grid and wavefunctions read in
 
   number of l-projection  operators is LMAX  =            5
   number of lm-projection operators is LMMAX =           13
 
  PAW_PBE Ge 05Jan2001                  :
 energy of atom  1       EATOM= -104.9960
 kinetic energy error for atom=    0.0005 (will be added to EATOM!!)
  PAW_PBE Se 06Sep2000                  :
 energy of atom  2       EATOM= -257.1286
 kinetic energy error for atom=    0.0030 (will be added to EATOM!!)
 
 
 POSCAR: Ge Se
  positions in cartesian coordinates
  No initial velocities read in
 exchange correlation table for  LEXCH =        8
   RHO(1)=    0.500       N(1)  =     2000
   RHO(2)=  100.500       N(2)  =     4000
 


--------------------------------------------------------------------------------------------------------


 ion  position               nearest neighbor table
   1  0.112  0.250  0.132-   5 2.55   6 2.72   6 2.72
   2  0.612  0.750  0.368-   6 2.55   5 2.72   5 2.72
   3  0.888  0.750  0.868-   7 2.55   8 2.72   8 2.72
   4  0.388  0.250  0.632-   8 2.55   7 2.72   7 2.72
   5  0.954  0.250  0.350-   1 2.55   2 2.72   2 2.72
   6  0.454  0.750  0.150-   2 2.55   1 2.72   1 2.72
   7  0.046  0.750  0.650-   3 2.55   4 2.72   4 2.72
   8  0.546  0.250  0.850-   4 2.55   3 2.72   3 2.72
 

IMPORTANT INFORMATION: All symmetrisations will be switched off!
NOSYMM: (Re-)initialisation of all symmetry stuff for point group C_1.


----------------------------------------------------------------------------------------

                                     Primitive cell                                     

  volume of cell :     230.2261

  direct lattice vectors                    reciprocal lattice vectors
     4.750000000  0.000000000  0.000000000     0.210526316  0.000000000  0.000000000
     0.000000000  4.350000000  0.000000000     0.000000000  0.229885057  0.000000000
     0.000000000  0.000000000 11.142221000     0.000000000  0.000000000  0.089748713

  length of vectors
     4.750000000  4.350000000 11.142221000     0.210526316  0.229885057  0.089748713

  position of ions in fractional coordinates (direct lattice)
     0.112190636  0.250000000  0.131704972
     0.612190636  0.750000000  0.368295028
     0.887809364  0.750000000  0.868295028
     0.387809364  0.250000000  0.631704972
     0.953804039  0.250000000  0.350352878
     0.453804039  0.750000000  0.149647122
     0.046195961  0.750000000  0.649647122
     0.546195961  0.250000000  0.850352878

  ion indices of the primitive-cell ions
   primitive index   ion index
                 1           1
                 2           2
                 3           3
                 4           4
                 5           5
                 6           6
                 7           7
                 8           8

----------------------------------------------------------------------------------------

 
 
 KPOINTS: KPOINTS created by Atomic Simulation Env

Automatic generation of k-mesh.
 Grid dimensions read from file:
 generate k-points for:    6    6    2

 Generating k-lattice:

  Cartesian coordinates                     Fractional coordinates (reciprocal lattice)
     0.035087719  0.000000000  0.000000000     0.166666667  0.000000000  0.000000000
     0.000000000  0.038314176  0.000000000     0.000000000  0.166666667  0.000000000
     0.000000000  0.000000000  0.044874357     0.000000000  0.000000000  0.500000000

  Length of vectors
     0.035087719  0.038314176  0.044874357

  Shift w.r.t. Gamma in fractional coordinates (k-lattice)
     0.000000000  0.000000000  0.000000000

 
 Subroutine IBZKPT returns following result:
 ===========================================
 
 Found     40 irreducible k-points:
 
 Following reciprocal coordinates:
            Coordinates               Weight
  0.000000  0.000000  0.000000      1.000000
  0.166667  0.000000  0.000000      2.000000
  0.333333  0.000000  0.000000      2.000000
  0.500000  0.000000  0.000000      1.000000
  0.000000  0.166667  0.000000      2.000000
  0.166667  0.166667  0.000000      2.000000
 -0.166667  0.166667  0.000000      2.000000
  0.333333  0.166667  0.000000      2.000000
 -0.333333  0.166667  0.000000      2.000000
  0.500000  0.166667  0.000000      2.000000
  0.000000  0.333333  0.000000      2.000000
  0.166667  0.333333  0.000000      2.000000
 -0.166667  0.333333  0.000000      2.000000
  0.333333  0.333333  0.000000      2.000000
 -0.333333  0.333333  0.000000      2.000000
  0.500000  0.333333  0.000000      2.000000
  0.000000  0.500000  0.000000      1.000000
  0.166667  0.500000  0.000000      2.000000
  0.333333  0.500000  0.000000      2.000000
  0.500000  0.500000  0.000000      1.000000
  0.000000  0.000000  0.500000      1.000000
  0.166667  0.000000  0.500000      2.000000
  0.333333  0.000000  0.500000      2.000000
  0.500000  0.000000  0.500000      1.000000
  0.000000  0.166667  0.500000      2.000000
  0.166667  0.166667  0.500000      2.000000
 -0.166667  0.166667  0.500000      2.000000
  0.333333  0.166667  0.500000      2.000000
 -0.333333  0.166667  0.500000      2.000000
  0.500000  0.166667  0.500000      2.000000
  0.000000  0.333333  0.500000      2.000000
  0.166667  0.333333  0.500000      2.000000
 -0.166667  0.333333  0.500000      2.000000
  0.333333  0.333333  0.500000      2.000000
 -0.333333  0.333333  0.500000      2.000000
  0.500000  0.333333  0.500000      2.000000
  0.000000  0.500000  0.500000      1.000000
  0.166667  0.500000  0.500000      2.000000
  0.333333  0.500000  0.500000      2.000000
  0.500000  0.500000  0.500000      1.000000
 
 Following cartesian coordinates:
            Coordinates               Weight
  0.000000  0.000000  0.000000      1.000000
  0.035088  0.000000  0.000000      2.000000
  0.070175  0.000000  0.000000      2.000000
  0.105263  0.000000  0.000000      1.000000
  0.000000  0.038314  0.000000      2.000000
  0.035088  0.038314  0.000000      2.000000
 -0.035088  0.038314  0.000000      2.000000
  0.070175  0.038314  0.000000      2.000000
 -0.070175  0.038314  0.000000      2.000000
  0.105263  0.038314  0.000000      2.000000
  0.000000  0.076628  0.000000      2.000000
  0.035088  0.076628  0.000000      2.000000
 -0.035088  0.076628  0.000000      2.000000
  0.070175  0.076628  0.000000      2.000000
 -0.070175  0.076628  0.000000      2.000000
  0.105263  0.076628  0.000000      2.000000
  0.000000  0.114943  0.000000      1.000000
  0.035088  0.114943  0.000000      2.000000
  0.070175  0.114943  0.000000      2.000000
  0.105263  0.114943  0.000000      1.000000
  0.000000  0.000000  0.044874      1.000000
  0.035088  0.000000  0.044874      2.000000
  0.070175  0.000000  0.044874      2.000000
  0.105263  0.000000  0.044874      1.000000
  0.000000  0.038314  0.044874      2.000000
  0.035088  0.038314  0.044874      2.000000
 -0.035088  0.038314  0.044874      2.000000
  0.070175  0.038314  0.044874      2.000000
 -0.070175  0.038314  0.044874      2.000000
  0.105263  0.038314  0.044874      2.000000
  0.000000  0.076628  0.044874      2.000000
  0.035088  0.076628  0.044874      2.000000
 -0.035088  0.076628  0.044874      2.000000
  0.070175  0.076628  0.044874      2.000000
 -0.070175  0.076628  0.044874      2.000000
  0.105263  0.076628  0.044874      2.000000
  0.000000  0.114943  0.044874      1.000000
  0.035088  0.114943  0.044874      2.000000
  0.070175  0.114943  0.044874      2.000000
  0.105263  0.114943  0.044874      1.000000
 


--------------------------------------------------------------------------------------------------------




 Dimension of arrays:
   k-points           NKPTS =     40   k-points in BZ     NKDIM =     40   number of bands    NBANDS=     32
   number of dos      NEDOS =    301   number of ions     NIONS =      8
   non local maximal  LDIM  =      5   non local SUM 2l+1 LMDIM =     13
   total plane-waves  NPLWV =  25920
   max r-space proj   IRMAX =      1   max aug-charges    IRDMAX=   6318
   dimension x,y,z NGX =    24 NGY =   20 NGZ =   54
   dimension x,y,z NGXF=    48 NGYF=   40 NGZF=  108
   support grid    NGXF=    48 NGYF=   40 NGZF=  108
   ions per type =               4   4
   NGX,Y,Z   is equivalent  to a cutoff of   8.40,  7.64,  8.06 a.u.
   NGXF,Y,Z  is equivalent  to a cutoff of  16.80, 15.29, 16.11 a.u.

 SYSTEM =  ./                                      
 POSCAR =  Ge Se                                   

 Startparameter for this run:
   NWRITE =      2    write-flag & timer
   PREC   = normal    normal or accurate (medium, high low for compatibility)
   ISTART =      0    job   : 0-new  1-cont  2-samecut
   ICHARG =      2    charge: 1-file 2-atom 10-const
   ISPIN  =      1    spin polarized calculation?
   LNONCOLLINEAR =      F non collinear calculations
   LSORBIT =      F    spin-orbit coupling
   INIWAV =      1    electr: 0-lowe 1-rand  2-diag
   LASPH  =      T    aspherical Exc in radial PAW
 Electronic Relaxation 1
   ENCUT  =  360.0 eV  26.46 Ry    5.14 a.u.   7.35  6.73 17.24*2*pi/ulx,y,z
   ENINI  =  360.0     initial cutoff
   ENAUG  =  446.8 eV  augmentation charge cutoff
   NELM   =    100;   NELMIN=  2; NELMDL= -5     # of ELM steps 
   EDIFF  = 0.1E-05   stopping-criterion for ELM
   LREAL  =      F    real-space projection
   NLSPLINE    = F    spline interpolate recip. space projectors
   LCOMPAT=      F    compatible to vasp.4.4
   GGA_COMPAT  = T    GGA compatible to vasp.4.4-vasp.4.6
   LMAXPAW     = -100 max onsite density
   LMAXMIX     =    4 max onsite mixed and CHGCAR
   VOSKOWN=      0    Vosko Wilk Nusair interpolation
   ROPT   =    0.00000   0.00000
 Ionic relaxation
   EDIFFG = 0.1E-04   stopping-criterion for IOM
   NSW    =      0    number of steps for IOM
   NBLOCK =      1;   KBLOCK =      1    inner block; outer block 
   IBRION =     -1    ionic relax: 0-MD 1-quasi-New 2-CG
   NFREE  =      0    steps in history (QN), initial steepest desc. (CG)
   ISIF   =      2    stress and relaxation
   IWAVPR =     10    prediction:  0-non 1-charg 2-wave 3-comb
   ISYM   =      0    0-nonsym 1-usesym 2-fastsym
   LCORR  =      T    Harris-Foulkes like correction to forces

   POTIM  = 0.5000    time-step for ionic-motion
   TEIN   =    0.0    initial temperature
   TEBEG  =    0.0;   TEEND  =   0.0 temperature during run
   SMASS  =  -3.00    Nose mass-parameter (am)
   estimated Nose-frequenzy (Omega)   =  0.10E-29 period in steps = 0.13E+47 mass=  -0.516E-27a.u.
   SCALEE = 1.0000    scale energy and forces
   NPACO  =    256;   APACO  = 10.0  distance and # of slots for P.C.
   PSTRESS=    0.0 pullay stress

  Mass of Ions in am
   POMASS =  72.61 78.96
  Ionic Valenz
   ZVAL   =   4.00  6.00
  Atomic Wigner-Seitz radii
   RWIGS  =  -1.00 -1.00
  virtual crystal weights 
   VCA    =   1.00  1.00
   NELECT =      40.0000    total number of electrons
   NUPDOWN=      -1.0000    fix difference up-down

 DOS related values:
   EMIN   =  10.00;   EMAX   =-10.00  energy-range for DOS
   EFERMI =   0.00;   METHOD = LEGACY      
   ISMEAR =     0;   SIGMA  =   0.05  broadening in eV -4-tet -1-fermi 0-gaus

 Electronic relaxation 2 (details)
   IALGO  =     38    algorithm
   LDIAG  =      T    sub-space diagonalisation (order eigenvalues)
   LSUBROT=      F    optimize rotation matrix (better conditioning)
   TURBO    =      0    0=normal 1=particle mesh
   IRESTART =      0    0=no restart 2=restart with 2 vectors
   NREBOOT  =      0    no. of reboots
   NMIN     =      0    reboot dimension
   EREF     =   0.00    reference energy to select bands
   IMIX   =      4    mixing-type and parameters
     AMIX     =   0.40;   BMIX     =  1.00
     AMIX_MAG =   1.60;   BMIX_MAG =  1.00
     AMIN     =   0.10
     WC   =   100.;   INIMIX=   1;  MIXPRE=   1;  MAXMIX= -45

 Intra band minimization:
   WEIMIN = 0.0000     energy-eigenvalue tresh-hold
   EBREAK =  0.78E-08  absolut break condition
   DEPER  =   0.30     relativ break condition  

   TIME   =   0.40     timestep for ELM

  volume/ion in A,a.u.               =      28.78       194.21
  Fermi-wavevector in a.u.,A,eV,Ry     =   0.913503  1.726270 11.353893  0.834488
  Thomas-Fermi vector in A             =   2.038022
 
 Write flags
   LWAVE        =      F    write WAVECAR
   LDOWNSAMPLE  =      F    k-point downsampling of WAVECAR
   LCHARG       =      F    write CHGCAR
   LVTOT        =      F    write LOCPOT, total local potential
   LVHAR        =      F    write LOCPOT, Hartree potential only
   LELF         =      F    write electronic localiz. function (ELF)
   LORBIT       =      0    0 simple, 1 ext, 2 COOP (PROOUT), +10 PAW based schemes


 Dipole corrections
   LMONO  =      F    monopole corrections only (constant potential shift)
   LDIPOL =      F    correct potential (dipole corrections)
   IDIPOL =      0    1-x, 2-y, 3-z, 4-all directions 
   EPSILON=  1.0000000 bulk dielectric constant

 Exchange correlation treatment:
   GGA     =    PE    GGA type
   LEXCH   =     8    internal setting for exchange type
   LIBXC   =     F    Libxc                    
   VOSKOWN =     0    Vosko Wilk Nusair interpolation
   LHFCALC =     F    Hartree Fock is set to
   LHFONE  =     F    Hartree Fock one center treatment
   AEXX    =    0.0000 exact exchange contribution

 Linear response parameters
   LEPSILON=     F    determine dielectric tensor
   LRPA    =     F    only Hartree local field effects (RPA)
   LNABLA  =     F    use nabla operator in PAW spheres
   LVEL    =     F    velocity operator in full k-point grid
   CSHIFT  =0.1000    complex shift for real part using Kramers Kronig
   OMEGAMAX=  -1.0    maximum frequency
   DEG_THRESHOLD= 0.2000000E-02 threshold for treating states as degnerate
   RTIME   =   -0.100 relaxation time in fs
  (WPLASMAI=    0.000 imaginary part of plasma frequency in eV, 0.658/RTIME)
   DFIELD  = 0.0000000 0.0000000 0.0000000 field for delta impulse in time
 
  Optional k-point grid parameters
   LKPOINTS_OPT  =     F    use optional k-point grid
   KPOINTS_OPT_MODE=     1    mode for optional k-point grid
 
 Orbital magnetization related:
   ORBITALMAG=     F  switch on orbital magnetization
   LCHIMAG   =     F  perturbation theory with respect to B field
   DQ        =  0.001000  dq finite difference perturbation B field
   LLRAUG    =     F  two centre corrections for induced B field
   LBONE     =     F  B-component reconstruction in AE one-centre
   LVGVCALC  =     T  calculate vGv susceptibility
   LVGVAPPL  =     F  apply vGv susceptibility instead of pGv for G=0

 Random number generation:
   RANDOM_GENERATOR = DEFAULT
   PCG_SEED         = not used


--------------------------------------------------------------------------------------------------------


 Static calculation
 charge density and potential will be updated during run
 non-spin polarized calculation
 Variant of blocked Davidson
 Davidson routine will perform the subspace rotation
 perform sub-space diagonalisation
    after iterative eigenvector-optimisation
 modified Broyden-mixing scheme, WC =      100.0
 initial mixing is a Kerker type mixing with AMIX =  0.4000 and BMIX =      1.0000
 Hartree-type preconditioning will be used
 using additional bands            12
 reciprocal scheme for non local part
 use partial core corrections
 calculate Harris-corrections to forces 
   (improved forces if not selfconsistent)
 use gradient corrections 
 use of overlap-Matrix (Vanderbilt PP)
 Gauss-broadening in eV      SIGMA  =   0.05


--------------------------------------------------------------------------------------------------------


  energy-cutoff  :      360.00
  volume of cell :      230.23
      direct lattice vectors                 reciprocal lattice vectors
     4.750000000  0.000000000  0.000000000     0.210526316  0.000000000  0.000000000
     0.000000000  4.350000000  0.000000000     0.000000000  0.229885057  0.000000000
     0.000000000  0.000000000 11.142221000     0.000000000  0.000000000  0.089748713

  length of vectors
     4.750000000  4.350000000 11.142221000     0.210526316  0.229885057  0.089748713


 
 k-points in units of 2pi/SCALE and weight: KPOINTS created by Atomic Simulation Env
   0.00000000  0.00000000  0.00000000       0.014
   0.03508772  0.00000000  0.00000000       0.028
   0.07017544  0.00000000  0.00000000       0.028
   0.10526316  0.00000000  0.00000000       0.014
   0.00000000  0.03831418  0.00000000       0.028
   0.03508772  0.03831418  0.00000000       0.028
  -0.03508772  0.03831418  0.00000000       0.028
   0.07017544  0.03831418  0.00000000       0.028
  -0.07017544  0.03831418  0.00000000       0.028
   0.10526316  0.03831418  0.00000000       0.028
   0.00000000  0.07662835  0.00000000       0.028
   0.03508772  0.07662835  0.00000000       0.028
  -0.03508772  0.07662835  0.00000000       0.028
   0.07017544  0.07662835  0.00000000       0.028
  -0.07017544  0.07662835  0.00000000       0.028
   0.10526316  0.07662835  0.00000000       0.028
   0.00000000  0.11494253  0.00000000       0.014
   0.03508772  0.11494253  0.00000000       0.028
   0.07017544  0.11494253  0.00000000       0.028
   0.10526316  0.11494253  0.00000000       0.014
   0.00000000  0.00000000  0.04487436       0.014
   0.03508772  0.00000000  0.04487436       0.028
   0.07017544  0.00000000  0.04487436       0.028
   0.10526316  0.00000000  0.04487436       0.014
   0.00000000  0.03831418  0.04487436       0.028
   0.03508772  0.03831418  0.04487436       0.028
  -0.03508772  0.03831418  0.04487436       0.028
   0.07017544  0.03831418  0.04487436       0.028
  -0.07017544  0.03831418  0.04487436       0.028
   0.10526316  0.03831418  0.04487436       0.028
   0.00000000  0.07662835  0.04487436       0.028
   0.03508772  0.07662835  0.04487436       0.028
  -0.03508772  0.07662835  0.04487436       0.028
   0.07017544  0.07662835  0.04487436       0.028
  -0.07017544  0.07662835  0.04487436       0.028
   0.10526316  0.07662835  0.04487436       0.028
   0.00000000  0.11494253  0.04487436       0.014
   0.03508772  0.11494253  0.04487436       0.028
   0.07017544  0.11494253  0.04487436       0.028
   0.10526316  0.11494253  0.04487436       0.014
 
 k-points in reciprocal lattice and weights: KPOINTS created by Atomic Simulation Env
   0.00000000  0.00000000  0.00000000       0.014
   0.16666667  0.00000000  0.00000000       0.028
   0.33333333  0.00000000  0.00000000       0.028
   0.50000000  0.00000000  0.00000000       0.014
   0.00000000  0.16666667  0.00000000       0.028
   0.16666667  0.16666667  0.00000000       0.028
  -0.16666667  0.16666667  0.00000000       0.028
   0.33333333  0.16666667  0.00000000       0.028
  -0.33333333  0.16666667  0.00000000       0.028
   0.50000000  0.16666667  0.00000000       0.028
   0.00000000  0.33333333  0.00000000       0.028
   0.16666667  0.33333333  0.00000000       0.028
  -0.16666667  0.33333333  0.00000000       0.028
   0.33333333  0.33333333  0.00000000       0.028
  -0.33333333  0.33333333  0.00000000       0.028
   0.50000000  0.33333333  0.00000000       0.028
   0.00000000  0.50000000  0.00000000       0.014
   0.16666667  0.50000000  0.00000000       0.028
   0.33333333  0.50000000  0.00000000       0.028
   0.50000000  0.50000000  0.00000000       0.014
   0.00000000  0.00000000  0.50000000       0.014
   0.16666667  0.00000000  0.50000000       0.028
   0.33333333  0.00000000  0.50000000       0.028
   0.50000000  0.00000000  0.50000000       0.014
   0.00000000  0.16666667  0.50000000       0.028
   0.16666667  0.16666667  0.50000000       0.028
  -0.16666667  0.16666667  0.50000000       0.028
   0.33333333  0.16666667  0.50000000       0.028
  -0.33333333  0.16666667  0.50000000       0.028
   0.50000000  0.16666667  0.50000000       0.028
   0.00000000  0.33333333  0.50000000       0.028
   0.16666667  0.33333333  0.50000000       0.028
  -0.16666667  0.33333333  0.50000000       0.028
   0.33333333  0.33333333  0.50000000       0.028
  -0.33333333  0.33333333  0.50000000       0.028
   0.50000000  0.33333333  0.50000000       0.028
   0.00000000  0.50000000  0.50000000       0.014
   0.16666667  0.50000000  0.50000000       0.028
   0.33333333  0.50000000  0.50000000       0.028
   0.50000000  0.50000000  0.50000000       0.014
 
 position of ions in fractional coordinates (direct lattice) 
   0.11219064  0.25000000  0.13170497
   0.61219064  0.75000000  0.36829503
   0.88780936  0.75000000  0.86829503
   0.38780936  0.25000000  0.63170497
   0.95380404  0.25000000  0.35035288
   0.45380404  0.75000000  0.14964712
   0.04619596  0.75000000  0.64964712
   0.54619596  0.25000000  0.85035288
 
 position of ions in cartesian coordinates  (Angst):
   0.53290552  1.08750000  1.46748590
   2.90790552  3.26250000  4.10362460
   4.21709448  3.26250000  9.67473510
   1.84209448  1.08750000  7.03859640
   4.53056918  1.08750000  3.90370919
   2.15556918  3.26250000  1.66740131
   0.21943082  3.26250000  7.23851181
   2.59443082  1.08750000  9.47481969
 


--------------------------------------------------------------------------------------------------------


 k-point   1 :   0.0000 0.0000 0.0000  plane waves:    3577
 k-point   2 :   0.1667 0.0000 0.0000  plane waves:    3575
 k-point   3 :   0.3333 0.0000 0.0000  plane waves:    3565
 k-point   4 :   0.5000 0.0000 0.0000  plane waves:    3602
 k-point   5 :   0.0000 0.1667 0.0000  plane waves:    3557
 k-point   6 :   0.1667 0.1667 0.0000  plane waves:    3570
 k-point   7 :  -0.1667 0.1667 0.0000  plane waves:    3570
 k-point   8 :   0.3333 0.1667 0.0000  plane waves:    3566
 k-point   9 :  -0.3333 0.1667 0.0000  plane waves:    3566
 k-point  10 :   0.5000 0.1667 0.0000  plane waves:    3574
 k-point  11 :   0.0000 0.3333 0.0000  plane waves:    3590
 k-point  12 :   0.1667 0.3333 0.0000  plane waves:    3573
 k-point  13 :  -0.1667 0.3333 0.0000  plane waves:    3573
 k-point  14 :   0.3333 0.3333 0.0000  plane waves:    3557
 k-point  15 :  -0.3333 0.3333 0.0000  plane waves:    3557
 k-point  16 :   0.5000 0.3333 0.0000  plane waves:    3544
 k-point  17 :   0.0000 0.5000 0.0000  plane waves:    3574
 k-point  18 :   0.1667 0.5000 0.0000  plane waves:    3578
 k-point  19 :   0.3333 0.5000 0.0000  plane waves:    3546
 k-point  20 :   0.5000 0.5000 0.0000  plane waves:    3560
 k-point  21 :   0.0000 0.0000 0.5000  plane waves:    3570
 k-point  22 :   0.1667 0.0000 0.5000  plane waves:    3582
 k-point  23 :   0.3333 0.0000 0.5000  plane waves:    3574
 k-point  24 :   0.5000 0.0000 0.5000  plane waves:    3552
 k-point  25 :   0.0000 0.1667 0.5000  plane waves:    3568
 k-point  26 :   0.1667 0.1667 0.5000  plane waves:    3568
 k-point  27 :  -0.1667 0.1667 0.5000  plane waves:    3568
 k-point  28 :   0.3333 0.1667 0.5000  plane waves:    3574
 k-point  29 :  -0.3333 0.1667 0.5000  plane waves:    3574
 k-point  30 :   0.5000 0.1667 0.5000  plane waves:    3564
 k-point  31 :   0.0000 0.3333 0.5000  plane waves:    3564
 k-point  32 :   0.1667 0.3333 0.5000  plane waves:    3568
 k-point  33 :  -0.1667 0.3333 0.5000  plane waves:    3568
 k-point  34 :   0.3333 0.3333 0.5000  plane waves:    3560
 k-point  35 :  -0.3333 0.3333 0.5000  plane waves:    3560
 k-point  36 :   0.5000 0.3333 0.5000  plane waves:    3576
 k-point  37 :   0.0000 0.5000 0.5000  plane waves:    3608
 k-point  38 :   0.1667 0.5000 0.5000  plane waves:    3580
 k-point  39 :   0.3333 0.5000 0.5000  plane waves:    3564
 k-point  40 :   0.5000 0.5000 0.5000  plane waves:    3560

 maximum and minimum number of plane-waves per node :       908      876

 maximum number of plane-waves:      3608
 maximum index in each direction: 
   IXMAX=    7   IYMAX=    6   IZMAX=   17
   IXMIN=   -7   IYMIN=   -7   IZMIN=  -17


 parallel 3D FFT for wavefunctions:
    minimum data exchange during FFTs selected (reduces bandwidth)
 parallel 3D FFT for charge:
    minimum data exchange during FFTs selected (reduces bandwidth)


 total amount of memory used by VASP MPI-rank0    39792. kBytes
=======================================================================

   base      :      30000. kBytes
   nonl-proj :       7704. kBytes
   fftplans  :        358. kBytes
   grid      :        506. kBytes
   one-center:         16. kBytes
   wavefun   :       1208. kBytes
 
     INWAV:  cpu time      0.0000: real time      0.0001
 Broyden mixing: mesh for mixing (old mesh)
   NGX = 15   NGY = 13   NGZ = 35
  (NGX  = 48   NGY  = 40   NGZ  =108)
  gives a total of   6825 points

 initial charge density was supplied:
 charge density of overlapping atoms calculated
 number of electron      40.0000000 magnetization 
 keeping initial charge density in first step


--------------------------------------------------------------------------------------------------------


 Maximum index for augmentation-charges           313 (set IRDMAX)


--------------------------------------------------------------------------------------------------------


 First call to EWALD:  gamma=   0.289
 Maximum number of real-space cells 3x 4x 2
 Maximum number of reciprocal cells 2x 2x 5

    FEWALD:  cpu time      0.0031: real time      0.0031


--------------------------------------- Ionic step        1  -------------------------------------------




--------------------------------------- Iteration      1(   1)  ---------------------------------------


    POTLOK:  cpu time      0.0110: real time      0.0114
    SETDIJ:  cpu time      0.1382: real time      0.1387
     EDDAV:  cpu time      0.2737: real time      0.2763
       DOS:  cpu time      0.0013: real time      0.0013
    --------------------------------------------
      LOOP:  cpu time      0.4242: real time      0.4277

 eigenvalue-minimisations  :  2560
 total energy-change (2. order) : 0.1348009E+03  (-0.1245348E+04)
 number of electron      40.0000000 magnetization 
 augmentation part       40.0000000 magnetization 

 Free energy of the ion-electron system (eV)
  ---------------------------------------------------
  alpha Z        PSCENC =        73.59913751
  Ewald energy   TEWEN  =     -1321.78939410
  -Hartree energ DENC   =      -164.81597342
  -exchange      EXHF   =         0.00000000
  -V(xc)+E(xc)   XCENC  =       -35.29530176
  PAW double counting   =      1193.78262552    -1080.73714043
  entropy T*S    EENTRO =        -0.00174641
  eigenvalues    EBANDS =        21.57411823
  atomic energy  EATOM  =      1448.48460880
  Solvation  Ediel_sol  =         0.00000000
  ---------------------------------------------------
  free energy    TOTEN  =       134.80093393 eV

  energy without entropy =      134.80268034  energy(sigma->0) =      134.80180713


--------------------------------------------------------------------------------------------------------




--------------------------------------- Iteration      1(   2)  ---------------------------------------


     EDDAV:  cpu time      0.3441: real time      0.3478
       DOS:  cpu time      0.0006: real time      0.0006
    --------------------------------------------
      LOOP:  cpu time      0.3446: real time      0.3484

 eigenvalue-minimisations  :  3712
 total energy-change (2. order) :-0.1585897E+03  (-0.1537201E+03)
 number of electron      40.0000000 magnetization 
 augmentation part       40.0000000 magnetization 

 Free energy of the ion-electron system (eV)
  ---------------------------------------------------
  alpha Z        PSCENC =        73.59913751
  Ewald energy   TEWEN  =     -1321.78939410
  -Hartree energ DENC   =      -164.81597342
  -exchange      EXHF   =         0.00000000
  -V(xc)+E(xc)   XCENC  =       -35.29530176
  PAW double counting   =      1193.78262552    -1080.73714043
  entropy T*S    EENTRO =        -0.00000000
  eigenvalues    EBANDS =      -137.01733333
  atomic energy  EATOM  =      1448.48460880
  Solvation  Ediel_sol  =         0.00000000
  ---------------------------------------------------
  free energy    TOTEN  =       -23.78877122 eV

  energy without entropy =      -23.78877122  energy(sigma->0) =      -23.78877122


--------------------------------------------------------------------------------------------------------




--------------------------------------- Iteration      1(   3)  ---------------------------------------


     EDDAV:  cpu time      0.3179: real time      0.3210
       DOS:  cpu time      0.0005: real time      0.0006
    --------------------------------------------
      LOOP:  cpu time      0.3184: real time      0.3216

 eigenvalue-minimisations  :  3280
 total energy-change (2. order) :-0.9958196E+01  (-0.9933811E+01)
 number of electron      40.0000000 magnetization 
 augmentation part       40.0000000 magnetization 

 Free energy of the ion-electron system (eV)
  ---------------------------------------------------
  alpha Z        PSCENC =        73.59913751
  Ewald energy   TEWEN  =     -1321.78939410
  -Hartree energ DENC   =      -164.81597342
  -exchange      EXHF   =         0.00000000
  -V(xc)+E(xc)   XCENC  =       -35.29530176
  PAW double counting   =      1193.78262552    -1080.73714043
  entropy T*S    EENTRO =        -0.00000000
  eigenvalues    EBANDS =      -146.97552947
  atomic energy  EATOM  =      1448.48460880
  Solvation  Ediel_sol  =         0.00000000
  ---------------------------------------------------
  free energy    TOTEN  =       -33.74696737 eV

  energy without entropy =      -33.74696737  energy(sigma->0) =      -33.74696737


--------------------------------------------------------------------------------------------------------




--------------------------------------- Iteration      1(   4)  ---------------------------------------


     EDDAV:  cpu time      0.2987: real time      0.3017
       DOS:  cpu time      0.0005: real time      0.0005
    --------------------------------------------
      LOOP:  cpu time      0.2993: real time      0.3023

 eigenvalue-minimisations  :  3056
 total energy-change (2. order) :-0.7607536E-01  (-0.7607008E-01)
 number of electron      40.0000000 magnetization 
 augmentation part       40.0000000 magnetization 

 Free energy of the ion-electron system (eV)
  ---------------------------------------------------
  alpha Z        PSCENC =        73.59913751
  Ewald energy   TEWEN  =     -1321.78939410
  -Hartree energ DENC   =      -164.81597342
  -exchange      EXHF   =         0.00000000
  -V(xc)+E(xc)   XCENC  =       -35.29530176
  PAW double counting   =      1193.78262552    -1080.73714043
  entropy T*S    EENTRO =        -0.00000000
  eigenvalues    EBANDS =      -147.05160483
  atomic energy  EATOM  =      1448.48460880
  Solvation  Ediel_sol  =         0.00000000
  ---------------------------------------------------
  free energy    TOTEN  =       -33.82304272 eV

  energy without entropy =      -33.82304272  energy(sigma->0) =      -33.82304272


--------------------------------------------------------------------------------------------------------




--------------------------------------- Iteration      1(   5)  ---------------------------------------


     EDDAV:  cpu time      0.3201: real time      0.3237
       DOS:  cpu time      0.0006: real time      0.0006
    CHARGE:  cpu time      0.0051: real time      0.0051
    MIXING:  cpu time      0.0007: real time      0.0007
    --------------------------------------------
      LOOP:  cpu time      0.3265: real time      0.3301

 eigenvalue-minimisations  :  3328
 total energy-change (2. order) :-0.5239813E-03  (-0.5239795E-03)
 number of electron      40.0000018 magnetization 
 augmentation part       -7.4203276 magnetization 

 Broyden mixing:
  rms(total) = 0.60360E+00    rms(broyden)= 0.60359E+00
  rms(prec ) = 0.73595E+00
  weight for this iteration     100.00

 Free energy of the ion-electron system (eV)
  ---------------------------------------------------
  alpha Z        PSCENC =        73.59913751
  Ewald energy   TEWEN  =     -1321.78939410
  -Hartree energ DENC   =      -164.81597342
  -exchange      EXHF   =         0.00000000
  -V(xc)+E(xc)   XCENC  =       -35.29530176
  PAW double counting   =      1193.78262552    -1080.73714043
  entropy T*S    EENTRO =        -0.00000000
  eigenvalues    EBANDS =      -147.05212881
  atomic energy  EATOM  =      1448.48460880
  Solvation  Ediel_sol  =         0.00000000
  ---------------------------------------------------
  free energy    TOTEN  =       -33.82356670 eV

  energy without entropy =      -33.82356670  energy(sigma->0) =      -33.82356670


--------------------------------------------------------------------------------------------------------




--------------------------------------- Iteration      1(   6)  ---------------------------------------


    POTLOK:  cpu time      0.0057: real time      0.0060
    SETDIJ:  cpu time      0.1374: real time      0.1380
     EDDAV:  cpu time      0.3114: real time      0.3143
       DOS:  cpu time      0.0006: real time      0.0006
    CHARGE:  cpu time      0.0051: real time      0.0051
    MIXING:  cpu time      0.0005: real time      0.0006
    --------------------------------------------
      LOOP:  cpu time      0.4608: real time      0.4646

 eigenvalue-minimisations  :  2864
 total energy-change (2. order) : 0.6284401E+00  (-0.1455683E+00)
 number of electron      40.0000017 magnetization 
 augmentation part       -7.3399406 magnetization 

 Broyden mixing:
  rms(total) = 0.36981E+00    rms(broyden)= 0.36981E+00
  rms(prec ) = 0.39652E+00
  weight for this iteration     100.00

 eigenvalues of (default mixing * dielectric matrix)
  average eigenvalue GAMMA=   1.7818
  1.7818

 Free energy of the ion-electron system (eV)
  ---------------------------------------------------
  alpha Z        PSCENC =        73.59913751
  Ewald energy   TEWEN  =     -1321.78939410
  -Hartree energ DENC   =      -172.61255213
  -exchange      EXHF   =         0.00000000
  -V(xc)+E(xc)   XCENC  =       -34.60179164
  PAW double counting   =      1416.84601814    -1304.07870067
  entropy T*S    EENTRO =        -0.00000000
  eigenvalues    EBANDS =      -139.04245249
  atomic energy  EATOM  =      1448.48460880
  Solvation  Ediel_sol  =         0.00000000
  ---------------------------------------------------
  free energy    TOTEN  =       -33.19512660 eV

  energy without entropy =      -33.19512660  energy(sigma->0) =      -33.19512660


--------------------------------------------------------------------------------------------------------




--------------------------------------- Iteration      1(   7)  ---------------------------------------


    POTLOK:  cpu time      0.0055: real time      0.0058
    SETDIJ:  cpu time      0.1380: real time      0.1386
     EDDAV:  cpu time      0.2895: real time      0.2927
       DOS:  cpu time      0.0006: real time      0.0006
    CHARGE:  cpu time      0.0059: real time      0.0059
    MIXING:  cpu time      0.0005: real time      0.0005
    --------------------------------------------
      LOOP:  cpu time      0.4400: real time      0.4440

 eigenvalue-minimisations  :  2944
 total energy-change (2. order) : 0.7276343E-02  (-0.2844821E-01)
 number of electron      40.0000017 magnetization 
 augmentation part       -7.3354022 magnetization 

 Broyden mixing:
  rms(total) = 0.16683E+00    rms(broyden)= 0.16683E+00
  rms(prec ) = 0.17852E+00
  weight for this iteration     100.00

 eigenvalues of (default mixing * dielectric matrix)
  average eigenvalue GAMMA=   1.7657
  1.1527  2.3787

 Free energy of the ion-electron system (eV)
  ---------------------------------------------------
  alpha Z        PSCENC =        73.59913751
  Ewald energy   TEWEN  =     -1321.78939410
  -Hartree energ DENC   =      -174.67678853
  -exchange      EXHF   =         0.00000000
  -V(xc)+E(xc)   XCENC  =       -34.23778369
  PAW double counting   =      1632.94100905    -1520.29741479
  entropy T*S    EENTRO =        -0.00000000
  eigenvalues    EBANDS =      -137.21122450
  atomic energy  EATOM  =      1448.48460880
  Solvation  Ediel_sol  =         0.00000000
  ---------------------------------------------------
  free energy    TOTEN  =       -33.18785025 eV

  energy without entropy =      -33.18785025  energy(sigma->0) =      -33.18785025


--------------------------------------------------------------------------------------------------------




--------------------------------------- Iteration      1(   8)  ---------------------------------------


    POTLOK:  cpu time      0.0055: real time      0.0058
    SETDIJ:  cpu time      0.1374: real time      0.1383
     EDDAV:  cpu time      0.2879: real time      0.2905
       DOS:  cpu time      0.0006: real time      0.0006
    CHARGE:  cpu time      0.0059: real time      0.0059
    MIXING:  cpu time      0.0005: real time      0.0005
    --------------------------------------------
      LOOP:  cpu time      0.4377: real time      0.4415

 eigenvalue-minimisations  :  2928
 total energy-change (2. order) :-0.4794320E-04  (-0.2949691E-02)
 number of electron      40.0000017 magnetization 
 augmentation part       -7.3475271 magnetization 

 Broyden mixing:
  rms(total) = 0.18478E-01    rms(broyden)= 0.18478E-01
  rms(prec ) = 0.25890E-01
  weight for this iteration     100.00

 eigenvalues of (default mixing * dielectric matrix)
  average eigenvalue GAMMA=   1.5851
  2.4162  1.1695  1.1695

 Free energy of the ion-electron system (eV)
  ---------------------------------------------------
  alpha Z        PSCENC =        73.59913751
  Ewald energy   TEWEN  =     -1321.78939410
  -Hartree energ DENC   =      -175.08164053
  -exchange      EXHF   =         0.00000000
  -V(xc)+E(xc)   XCENC  =       -34.03479827
  PAW double counting   =      1796.69516894    -1684.10437782
  entropy T*S    EENTRO =        -0.00000000
  eigenvalues    EBANDS =      -136.95660273
  atomic energy  EATOM  =      1448.48460880
  Solvation  Ediel_sol  =         0.00000000
  ---------------------------------------------------
  free energy    TOTEN  =       -33.18789820 eV

  energy without entropy =      -33.18789820  energy(sigma->0) =      -33.18789820


--------------------------------------------------------------------------------------------------------




--------------------------------------- Iteration      1(   9)  ---------------------------------------


    POTLOK:  cpu time      0.0055: real time      0.0057
    SETDIJ:  cpu time      0.1377: real time      0.1384
     EDDAV:  cpu time      0.3035: real time      0.3050
       DOS:  cpu time      0.0005: real time      0.0005
    CHARGE:  cpu time      0.0047: real time      0.0047
    MIXING:  cpu time      0.0006: real time      0.0006
    --------------------------------------------
      LOOP:  cpu time      0.4524: real time      0.4548

 eigenvalue-minimisations  :  3104
 total energy-change (2. order) : 0.1867883E-03  (-0.5817960E-03)
 number of electron      40.0000017 magnetization 
 augmentation part       -7.3435063 magnetization 

 Broyden mixing:
  rms(total) = 0.78643E-02    rms(broyden)= 0.78643E-02
  rms(prec ) = 0.95030E-02
  weight for this iteration     100.00

 eigenvalues of (default mixing * dielectric matrix)
  average eigenvalue GAMMA=   1.7241
  2.3339  2.3339  1.1143  1.1143

 Free energy of the ion-electron system (eV)
  ---------------------------------------------------
  alpha Z        PSCENC =        73.59913751
  Ewald energy   TEWEN  =     -1321.78939410
  -Hartree energ DENC   =      -175.60904510
  -exchange      EXHF   =         0.00000000
  -V(xc)+E(xc)   XCENC  =       -33.99275018
  PAW double counting   =      1803.38282501    -1690.79964567
  entropy T*S    EENTRO =        -0.00000000
  eigenvalues    EBANDS =      -136.46344767
  atomic energy  EATOM  =      1448.48460880
  Solvation  Ediel_sol  =         0.00000000
  ---------------------------------------------------
  free energy    TOTEN  =       -33.18771141 eV

  energy without entropy =      -33.18771141  energy(sigma->0) =      -33.18771141


--------------------------------------------------------------------------------------------------------




--------------------------------------- Iteration      1(  10)  ---------------------------------------


    POTLOK:  cpu time      0.0038: real time      0.0039
    SETDIJ:  cpu time      0.1393: real time      0.1396
     EDDAV:  cpu time      0.1871: real time      0.1882
       DOS:  cpu time      0.0003: real time      0.0003
    CHARGE:  cpu time      0.0039: real time      0.0039
    MIXING:  cpu time      0.0003: real time      0.0003
    --------------------------------------------
      LOOP:  cpu time      0.3348: real time      0.3363

 eigenvalue-minimisations  :  2752
 total energy-change (2. order) :-0.2376521E-03  (-0.6869811E-04)
 number of electron      40.0000017 magnetization 
 augmentation part       -7.3431079 magnetization 

 Broyden mixing:
  rms(total) = 0.26995E-02    rms(broyden)= 0.26995E-02
  rms(prec ) = 0.32772E-02
  weight for this iteration     100.00

 eigenvalues of (default mixing * dielectric matrix)
  average eigenvalue GAMMA=   1.7103
  2.7386  2.6036  1.1310  1.1310  0.9471

 Free energy of the ion-electron system (eV)
  ---------------------------------------------------
  alpha Z        PSCENC =        73.59913751
  Ewald energy   TEWEN  =     -1321.78939410
  -Hartree energ DENC   =      -175.71007939
  -exchange      EXHF   =         0.00000000
  -V(xc)+E(xc)   XCENC  =       -33.98343598
  PAW double counting   =      1798.64608462    -1686.05895710
  entropy T*S    EENTRO =        -0.00000000
  eigenvalues    EBANDS =      -136.37591341
  atomic energy  EATOM  =      1448.48460880
  Solvation  Ediel_sol  =         0.00000000
  ---------------------------------------------------
  free energy    TOTEN  =       -33.18794906 eV

  energy without entropy =      -33.18794906  energy(sigma->0) =      -33.18794906


--------------------------------------------------------------------------------------------------------




--------------------------------------- Iteration      1(  11)  ---------------------------------------


    POTLOK:  cpu time      0.0037: real time      0.0038
    SETDIJ:  cpu time      0.1368: real time      0.1372
     EDDAV:  cpu time      0.2050: real time      0.2061
       DOS:  cpu time      0.0003: real time      0.0003
    CHARGE:  cpu time      0.0039: real time      0.0039
    MIXING:  cpu time      0.0003: real time      0.0003
    --------------------------------------------
      LOOP:  cpu time      0.3500: real time      0.3515

 eigenvalue-minimisations  :  3136
 total energy-change (2. order) :-0.3724986E-04  (-0.5685622E-05)
 number of electron      40.0000017 magnetization 
 augmentation part       -7.3434025 magnetization 

 Broyden mixing:
  rms(total) = 0.15415E-02    rms(broyden)= 0.15415E-02
  rms(prec ) = 0.18606E-02
  weight for this iteration     100.00

 eigenvalues of (default mixing * dielectric matrix)
  average eigenvalue GAMMA=   1.7354
  2.7078  2.7078  1.7288  1.0921  1.0921  1.0840

 Free energy of the ion-electron system (eV)
  ---------------------------------------------------
  alpha Z        PSCENC =        73.59913751
  Ewald energy   TEWEN  =     -1321.78939410
  -Hartree energ DENC   =      -175.73539527
  -exchange      EXHF   =         0.00000000
  -V(xc)+E(xc)   XCENC  =       -33.97877945
  PAW double counting   =      1798.47875570    -1685.89092723
  entropy T*S    EENTRO =        -0.00000000
  eigenvalues    EBANDS =      -136.35599227
  atomic energy  EATOM  =      1448.48460880
  Solvation  Ediel_sol  =         0.00000000
  ---------------------------------------------------
  free energy    TOTEN  =       -33.18798631 eV

  energy without entropy =      -33.18798631  energy(sigma->0) =      -33.18798631


--------------------------------------------------------------------------------------------------------




--------------------------------------- Iteration      1(  12)  ---------------------------------------


    POTLOK:  cpu time      0.0035: real time      0.0037
    SETDIJ:  cpu time      0.1088: real time      0.1091
     EDDAV:  cpu time      0.1854: real time      0.1863
       DOS:  cpu time      0.0004: real time      0.0004
    CHARGE:  cpu time      0.0037: real time      0.0039
    MIXING:  cpu time      0.0004: real time      0.0004
    --------------------------------------------
      LOOP:  cpu time      0.3022: real time      0.3037

 eigenvalue-minimisations  :  2912
 total energy-change (2. order) :-0.1586503E-05  (-0.1518022E-05)
 number of electron      40.0000017 magnetization 
 augmentation part       -7.3433960 magnetization 

 Broyden mixing:
  rms(total) = 0.34048E-03    rms(broyden)= 0.34048E-03
  rms(prec ) = 0.37718E-03
  weight for this iteration     100.00

 eigenvalues of (default mixing * dielectric matrix)
  average eigenvalue GAMMA=   1.6590
  2.9241  2.3932  1.9359  0.9923  1.1869  1.0903  1.0903

 Free energy of the ion-electron system (eV)
  ---------------------------------------------------
  alpha Z        PSCENC =        73.59913751
  Ewald energy   TEWEN  =     -1321.78939410
  -Hartree energ DENC   =      -175.75311543
  -exchange      EXHF   =         0.00000000
  -V(xc)+E(xc)   XCENC  =       -33.97649523
  PAW double counting   =      1797.83464434    -1685.24646954
  entropy T*S    EENTRO =        -0.00000000
  eigenvalues    EBANDS =      -136.34090424
  atomic energy  EATOM  =      1448.48460880
  Solvation  Ediel_sol  =         0.00000000
  ---------------------------------------------------
  free energy    TOTEN  =       -33.18798790 eV

  energy without entropy =      -33.18798790  energy(sigma->0) =      -33.18798790


--------------------------------------------------------------------------------------------------------




--------------------------------------- Iteration      1(  13)  ---------------------------------------


    POTLOK:  cpu time      0.0037: real time      0.0038
    SETDIJ:  cpu time      0.1104: real time      0.1107
     EDDAV:  cpu time      0.1656: real time      0.1665
       DOS:  cpu time      0.0003: real time      0.0003
    --------------------------------------------
      LOOP:  cpu time      0.2800: real time      0.2813

 eigenvalue-minimisations  :  2256
 total energy-change (2. order) :-0.8773437E-06  (-0.1746509E-06)
 number of electron      40.0000017 magnetization 
 augmentation part       -7.3433960 magnetization 

 Free energy of the ion-electron system (eV)
  ---------------------------------------------------
  alpha Z        PSCENC =        73.59913751
  Ewald energy   TEWEN  =     -1321.78939410
  -Hartree energ DENC   =      -175.75573888
  -exchange      EXHF   =         0.00000000
  -V(xc)+E(xc)   XCENC  =       -33.97600425
  PAW double counting   =      1798.17100006    -1685.58290013
  entropy T*S    EENTRO =        -0.00000000
  eigenvalues    EBANDS =      -136.33869777
  atomic energy  EATOM  =      1448.48460880
  Solvation  Ediel_sol  =         0.00000000
  ---------------------------------------------------
  free energy    TOTEN  =       -33.18798877 eV

  energy without entropy =      -33.18798877  energy(sigma->0) =      -33.18798877


--------------------------------------------------------------------------------------------------------




 average (electrostatic) potential at core
  the test charge radii are     1.1631  1.0808
  (the norm of the test charge is              1.0000)
       1 -34.9339       2 -34.9339       3 -34.9339       4 -34.9339       5 -56.1147
       6 -56.1147       7 -56.1147       8 -56.1147
 
 
 
 E-fermi :   1.7867     XC(G=0):  -8.5139     alpha+bet : -7.3321

 Fermi energy:         1.7867063793

 k-point     1 :       0.0000    0.0000    0.0000
  band No.  band energies     occupation 
      1     -11.5721      2.00000
      2     -11.3606      2.00000
      3     -10.4367      2.00000
      4     -10.1734      2.00000
      5      -6.0861      2.00000
      6      -5.6348      2.00000
      7      -4.0658      2.00000
      8      -3.9267      2.00000
      9      -2.3274      2.00000
     10      -1.4839      2.00000
     11      -1.1713      2.00000
     12      -1.0330      2.00000
     13      -0.9193      2.00000
     14      -0.5533      2.00000
     15      -0.1764      2.00000
     16       0.2980      2.00000
     17       0.9101      2.00000
     18       1.3346      2.00000
     19       1.4115      2.00000
     20       1.5208      2.00000
     21       3.3406      0.00000
     22       3.5106      0.00000
     23       3.7492      0.00000
     24       3.9819      0.00000
     25       4.1240      0.00000
     26       4.6178      0.00000
     27       5.1179      0.00000
     28       5.1270      0.00000
     29       6.2562      0.00000
     30       6.3645      0.00000
     31       7.0378      0.00000
     32       7.3436      0.00000

 k-point     2 :       0.1667    0.0000    0.0000
  band No.  band energies     occupation 
      1     -11.4854      2.00000
      2     -11.2807      2.00000
      3     -10.4843      2.00000
      4     -10.2466      2.00000
      5      -6.1357      2.00000
      6      -5.5841      2.00000
      7      -4.4563      2.00000
      8      -4.1360      2.00000
      9      -2.1424      2.00000
     10      -1.3642      2.00000
     11      -1.0651      2.00000
     12      -0.8237      2.00000
     13      -0.6828      2.00000
     14      -0.3905      2.00000
     15      -0.1806      2.00000
     16       0.2259      2.00000
     17       0.9582      2.00000
     18       0.9872      2.00000
     19       1.3479      2.00000
     20       1.5694      2.00000
     21       3.1128      0.00000
     22       3.3825      0.00000
     23       3.7238      0.00000
     24       3.7878      0.00000
     25       4.1463      0.00000
     26       4.3460      0.00000
     27       4.9322      0.00000
     28       5.4641      0.00000
     29       5.7414      0.00000
     30       6.4600      0.00000
     31       6.5925      0.00000
     32       7.0545      0.00000

 k-point     3 :       0.3333    0.0000    0.0000
  band No.  band energies     occupation 
      1     -11.2474      2.00000
      2     -11.0611      2.00000
      3     -10.6475      2.00000
      4     -10.4587      2.00000
      5      -6.1043      2.00000
      6      -5.4273      2.00000
      7      -5.1768      2.00000
      8      -4.6180      2.00000
      9      -1.6719      2.00000
     10      -1.0320      2.00000
     11      -0.7772      2.00000
     12      -0.6242      2.00000
     13      -0.2716      2.00000
     14      -0.0427      2.00000
     15      -0.0346      2.00000
     16      -0.0232      2.00000
     17       0.4620      2.00000
     18       0.9286      2.00000
     19       1.1087      2.00000
     20       1.4497      2.00000
     21       2.5788      0.00000
     22       3.1989      0.00000
     23       3.2857      0.00000
     24       4.0216      0.00000
     25       4.0651      0.00000
     26       4.1570      0.00000
     27       4.7503      0.00000
     28       4.8309      0.00000
     29       5.7273      0.00000
     30       5.8411      0.00000
     31       6.2569      0.00000
     32       7.1551      0.00000

 k-point     4 :       0.5000    0.0000    0.0000
  band No.  band energies     occupation 
      1     -10.9299      2.00000
      2     -10.9299      2.00000
      3     -10.7594      2.00000
      4     -10.7594      2.00000
      5      -5.7864      2.00000
      6      -5.7864      2.00000
      7      -5.1008      2.00000
      8      -5.1008      2.00000
      9      -1.0316      2.00000
     10      -1.0316      2.00000
     11      -0.5903      2.00000
     12      -0.5903      2.00000
     13      -0.3984      2.00000
     14      -0.3984      2.00000
     15       0.3435      2.00000
     16       0.3435      2.00000
     17       0.5898      2.00000
     18       0.5898      2.00000
     19       0.9709      2.00000
     20       0.9709      2.00000
     21       2.7136      0.00000
     22       2.7136      0.00000
     23       3.5847      0.00000
     24       3.5847      0.00000
     25       4.1671      0.00000
     26       4.1671      0.00000
     27       4.8996      0.00000
     28       4.8996      0.00000
     29       5.0177      0.00000
     30       5.0177      0.00000
     31       7.0079      0.00000
     32       7.0079      0.00000

 k-point     5 :       0.0000    0.1667    0.0000
  band No.  band energies     occupation 
      1     -11.4454      2.00000
      2     -11.2464      2.00000
      3     -10.4069      2.00000
      4     -10.1884      2.00000
      5      -6.2028      2.00000
      6      -5.7828      2.00000
      7      -4.4286      2.00000
      8      -4.3731      2.00000
      9      -2.1780      2.00000
     10      -1.5137      2.00000
     11      -1.2629      2.00000
     12      -0.9258      2.00000
     13      -0.7346      2.00000
     14      -0.4419      2.00000
     15       0.0466      2.00000
     16       0.0823      2.00000
     17       0.9294      2.00000
     18       1.2697      2.00000
     19       1.3170      2.00000
     20       1.4922      2.00000
     21       3.6379      0.00000
     22       3.8228      0.00000
     23       3.9792      0.00000
     24       4.1063      0.00000
     25       4.2833      0.00000
     26       4.4271      0.00000
     27       4.5940      0.00000
     28       5.1828      0.00000
     29       5.5839      0.00000
     30       6.2644      0.00000
     31       6.4817      0.00000
     32       7.1804      0.00000

 k-point     6 :       0.1667    0.1667    0.0000
  band No.  band energies     occupation 
      1     -11.3639      2.00000
      2     -11.1722      2.00000
      3     -10.4498      2.00000
      4     -10.2500      2.00000
      5      -6.2085      2.00000
      6      -5.7071      2.00000
      7      -4.6720      2.00000
      8      -4.5159      2.00000
      9      -2.0299      2.00000
     10      -1.7623      2.00000
     11      -1.4438      2.00000
     12      -0.8699      2.00000
     13      -0.2706      2.00000
     14      -0.2067      2.00000
     15      -0.1033      2.00000
     16       0.0167      2.00000
     17       0.9414      2.00000
     18       1.0082      2.00000
     19       1.2733      2.00000
     20       1.4599      2.00000
     21       3.5343      0.00000
     22       3.5617      0.00000
     23       3.8685      0.00000
     24       3.8816      0.00000
     25       4.3875      0.00000
     26       4.3879      0.00000
     27       4.9753      0.00000
     28       5.3076      0.00000
     29       5.7080      0.00000
     30       6.2337      0.00000
     31       6.2558      0.00000
     32       7.0227      0.00000

 k-point     7 :      -0.1667    0.1667    0.0000
  band No.  band energies     occupation 
      1     -11.3639      2.00000
      2     -11.1722      2.00000
      3     -10.4498      2.00000
      4     -10.2500      2.00000
      5      -6.2085      2.00000
      6      -5.7071      2.00000
      7      -4.6720      2.00000
      8      -4.5159      2.00000
      9      -2.0299      2.00000
     10      -1.7623      2.00000
     11      -1.4438      2.00000
     12      -0.8699      2.00000
     13      -0.2706      2.00000
     14      -0.2067      2.00000
     15      -0.1033      2.00000
     16       0.0167      2.00000
     17       0.9414      2.00000
     18       1.0082      2.00000
     19       1.2733      2.00000
     20       1.4599      2.00000
     21       3.5343      0.00000
     22       3.5617      0.00000
     23       3.8685      0.00000
     24       3.8816      0.00000
     25       4.3875      0.00000
     26       4.3879      0.00000
     27       4.9753      0.00000
     28       5.3076      0.00000
     29       5.7080      0.00000
     30       6.2337      0.00000
     31       6.2558      0.00000
     32       7.0227      0.00000

 k-point     8 :       0.3333    0.1667    0.0000
  band No.  band energies     occupation 
      1     -11.1422      2.00000
      2     -10.9699      2.00000
      3     -10.5962      2.00000
      4     -10.4316      2.00000
      5      -6.1163      2.00000
      6      -5.5097      2.00000
      7      -5.2464      2.00000
      8      -4.8287      2.00000
      9      -1.8490      2.00000
     10      -1.6287      2.00000
     11      -1.4631      2.00000
     12      -1.0212      2.00000
     13      -0.6600      2.00000
     14      -0.2033      2.00000
     15       0.0829      2.00000
     16       0.3731      2.00000
     17       0.8338      2.00000
     18       0.8968      2.00000
     19       1.1359      2.00000
     20       1.4047      2.00000
     21       3.1344      0.00000
     22       3.4908      0.00000
     23       3.5347      0.00000
     24       3.6071      0.00000
     25       4.4734      0.00000
     26       4.8439      0.00000
     27       4.9908      0.00000
     28       5.4410      0.00000
     29       5.8531      0.00000
     30       6.0973      0.00000
     31       6.1961      0.00000
     32       6.9170      0.00000

 k-point     9 :      -0.3333    0.1667    0.0000
  band No.  band energies     occupation 
      1     -11.1422      2.00000
      2     -10.9699      2.00000
      3     -10.5962      2.00000
      4     -10.4316      2.00000
      5      -6.1163      2.00000
      6      -5.5097      2.00000
      7      -5.2464      2.00000
      8      -4.8287      2.00000
      9      -1.8490      2.00000
     10      -1.6287      2.00000
     11      -1.4631      2.00000
     12      -1.0212      2.00000
     13      -0.6600      2.00000
     14      -0.2033      2.00000
     15       0.0829      2.00000
     16       0.3731      2.00000
     17       0.8338      2.00000
     18       0.8968      2.00000
     19       1.1359      2.00000
     20       1.4047      2.00000
     21       3.1344      0.00000
     22       3.4908      0.00000
     23       3.5347      0.00000
     24       3.6071      0.00000
     25       4.4734      0.00000
     26       4.8439      0.00000
     27       4.9908      0.00000
     28       5.4410      0.00000
     29       5.8531      0.00000
     30       6.0973      0.00000
     31       6.1961      0.00000
     32       6.9170      0.00000

 k-point    10 :       0.5000    0.1667    0.0000
  band No.  band energies     occupation 
      1     -10.8510      2.00000
      2     -10.8510      2.00000
      3     -10.6968      2.00000
      4     -10.6968      2.00000
      5      -5.7911      2.00000
      6      -5.7911      2.00000
      7      -5.2022      2.00000
      8      -5.2022      2.00000
      9      -1.5892      2.00000
     10      -1.5892      2.00000
     11      -1.1470      2.00000
     12      -1.1470      2.00000
     13      -0.8681      2.00000
     14      -0.8681      2.00000
     15       0.3672      2.00000
     16       0.3672      2.00000
     17       0.9168      2.00000
     18       0.9168      2.00000
     19       1.2765      2.00000
     20       1.2765      2.00000
     21       3.1011      0.00000
     22       3.1011      0.00000
     23       3.4611      0.00000
     24       3.4611      0.00000
     25       4.9372      0.00000
     26       4.9372      0.00000
     27       5.2203      0.00000
     28       5.2203      0.00000
     29       5.6564      0.00000
     30       5.6564      0.00000
     31       6.7470      0.00000
     32       6.7470      0.00000

 k-point    11 :       0.0000    0.3333    0.0000
  band No.  band energies     occupation 
      1     -11.1004      2.00000
      2     -10.9459      2.00000
      3     -10.4066      2.00000
      4     -10.3160      2.00000
      5      -6.3518      2.00000
      6      -5.9564      2.00000
      7      -5.3789      2.00000
      8      -5.0830      2.00000
      9      -1.7752      2.00000
     10      -1.3885      2.00000
     11      -1.1588      2.00000
     12      -0.7061      2.00000
     13      -0.2898      2.00000
     14      -0.2864      2.00000
     15      -0.0453      2.00000
     16       0.3294      2.00000
     17       0.7226      2.00000
     18       0.8889      2.00000
     19       1.0468      2.00000
     20       1.1234      2.00000
     21       3.1328      0.00000
     22       3.5805      0.00000
     23       3.8943      0.00000
     24       4.2575      0.00000
     25       4.3867      0.00000
     26       4.5131      0.00000
     27       4.6712      0.00000
     28       5.1043      0.00000
     29       5.6674      0.00000
     30       5.8558      0.00000
     31       6.1594      0.00000
     32       6.8165      0.00000

 k-point    12 :       0.1667    0.3333    0.0000
  band No.  band energies     occupation 
      1     -11.0373      2.00000
      2     -10.8912      2.00000
      3     -10.4287      2.00000
      4     -10.3400      2.00000
      5      -6.2932      2.00000
      6      -5.8861      2.00000
      7      -5.3851      2.00000
      8      -5.1788      2.00000
      9      -1.8319      2.00000
     10      -1.7027      2.00000
     11      -1.5132      2.00000
     12      -0.9259      2.00000
     13      -0.3998      2.00000
     14      -0.1969      2.00000
     15      -0.1123      2.00000
     16       0.0913      2.00000
     17       0.4757      2.00000
     18       0.9513      2.00000
     19       1.1208      2.00000
     20       1.1691      2.00000
     21       3.2028      0.00000
     22       3.7229      0.00000
     23       3.9012      0.00000
     24       4.3257      0.00000
     25       4.8395      0.00000
     26       4.9018      0.00000
     27       5.0309      0.00000
     28       5.6078      0.00000
     29       5.7484      0.00000
     30       6.0584      0.00000
     31       6.3960      0.00000
     32       6.6310      0.00000

 k-point    13 :      -0.1667    0.3333    0.0000
  band No.  band energies     occupation 
      1     -11.0373      2.00000
      2     -10.8912      2.00000
      3     -10.4287      2.00000
      4     -10.3400      2.00000
      5      -6.2932      2.00000
      6      -5.8861      2.00000
      7      -5.3851      2.00000
      8      -5.1788      2.00000
      9      -1.8319      2.00000
     10      -1.7027      2.00000
     11      -1.5132      2.00000
     12      -0.9259      2.00000
     13      -0.3998      2.00000
     14      -0.1969      2.00000
     15      -0.1123      2.00000
     16       0.0913      2.00000
     17       0.4757      2.00000
     18       0.9513      2.00000
     19       1.1208      2.00000
     20       1.1691      2.00000
     21       3.2028      0.00000
     22       3.7229      0.00000
     23       3.9012      0.00000
     24       4.3257      0.00000
     25       4.8395      0.00000
     26       4.9018      0.00000
     27       5.0309      0.00000
     28       5.6078      0.00000
     29       5.7484      0.00000
     30       6.0584      0.00000
     31       6.3960      0.00000
     32       6.6310      0.00000

 k-point    14 :       0.3333    0.3333    0.0000
  band No.  band energies     occupation 
      1     -10.8715      2.00000
      2     -10.7479      2.00000
      3     -10.5104      2.00000
      4     -10.4234      2.00000
      5      -6.1186      2.00000
      6      -5.7084      2.00000
      7      -5.5123      2.00000
      8      -5.3638      2.00000
      9      -2.2378      2.00000
     10      -1.7856      2.00000
     11      -1.6836      2.00000
     12      -1.4126      2.00000
     13      -0.9282      2.00000
     14      -0.5377      2.00000
     15      -0.5139      2.00000
     16       0.0843      2.00000
     17       0.2616      2.00000
     18       0.9162      2.00000
     19       1.1951      2.00000
     20       1.1979      2.00000
     21       3.2047      0.00000
     22       4.1974      0.00000
     23       4.5829      0.00000
     24       5.1867      0.00000
     25       5.2524      0.00000
     26       5.2907      0.00000
     27       5.4854      0.00000
     28       5.8928      0.00000
     29       6.0654      0.00000
     30       6.3986      0.00000
     31       6.5195      0.00000
     32       6.9043      0.00000

 k-point    15 :      -0.3333    0.3333    0.0000
  band No.  band energies     occupation 
      1     -10.8715      2.00000
      2     -10.7479      2.00000
      3     -10.5104      2.00000
      4     -10.4234      2.00000
      5      -6.1186      2.00000
      6      -5.7084      2.00000
      7      -5.5123      2.00000
      8      -5.3638      2.00000
      9      -2.2378      2.00000
     10      -1.7856      2.00000
     11      -1.6836      2.00000
     12      -1.4126      2.00000
     13      -0.9282      2.00000
     14      -0.5377      2.00000
     15      -0.5139      2.00000
     16       0.0843      2.00000
     17       0.2616      2.00000
     18       0.9162      2.00000
     19       1.1951      2.00000
     20       1.1979      2.00000
     21       3.2047      0.00000
     22       4.1974      0.00000
     23       4.5829      0.00000
     24       5.1867      0.00000
     25       5.2524      0.00000
     26       5.2907      0.00000
     27       5.4854      0.00000
     28       5.8928      0.00000
     29       6.0654      0.00000
     30       6.3986      0.00000
     31       6.5195      0.00000
     32       6.9043      0.00000

 k-point    16 :       0.5000    0.3333    0.0000
  band No.  band energies     occupation 
      1     -10.6695      2.00000
      2     -10.6695      2.00000
      3     -10.5711      2.00000
      4     -10.5711      2.00000
      5      -5.8355      2.00000
      6      -5.8355      2.00000
      7      -5.5095      2.00000
      8      -5.5095      2.00000
      9      -2.1678      2.00000
     10      -2.1678      2.00000
     11      -1.5938      2.00000
     12      -1.5938      2.00000
     13      -1.0556      2.00000
     14      -1.0556      2.00000
     15      -0.2479      2.00000
     16      -0.2479      2.00000
     17       0.4752      2.00000
     18       0.4752      2.00000
     19       1.2009      2.00000
     20       1.2009      2.00000
     21       3.9863      0.00000
     22       3.9863      0.00000
     23       4.9240      0.00000
     24       4.9240      0.00000
     25       5.5400      0.00000
     26       5.5400      0.00000
     27       6.0890      0.00000
     28       6.0890      0.00000
     29       6.3349      0.00000
     30       6.3349      0.00000
     31       6.7567      0.00000
     32       6.7567      0.00000

 k-point    17 :       0.0000    0.5000    0.0000
  band No.  band energies     occupation 
      1     -10.6572      2.00000
      2     -10.6572      2.00000
      3     -10.5989      2.00000
      4     -10.5989      2.00000
      5      -6.1186      2.00000
      6      -6.1186      2.00000
      7      -5.7295      2.00000
      8      -5.7295      2.00000
      9      -1.3542      2.00000
     10      -1.3542      2.00000
     11      -0.7879      2.00000
     12      -0.7879      2.00000
     13      -0.1954      2.00000
     14      -0.1954      2.00000
     15       0.2182      2.00000
     16       0.2182      2.00000
     17       0.5956      2.00000
     18       0.5956      2.00000
     19       0.8219      2.00000
     20       0.8219      2.00000
     21       3.1600      0.00000
     22       3.1600      0.00000
     23       3.8923      0.00000
     24       3.8923      0.00000
     25       4.4618      0.00000
     26       4.4618      0.00000
     27       4.6947      0.00000
     28       4.6947      0.00000
     29       5.8468      0.00000
     30       5.8468      0.00000
     31       6.2432      0.00000
     32       6.2432      0.00000

 k-point    18 :       0.1667    0.5000    0.0000
  band No.  band energies     occupation 
      1     -10.6311      2.00000
      2     -10.6311      2.00000
      3     -10.5803      2.00000
      4     -10.5803      2.00000
      5      -6.0587      2.00000
      6      -6.0587      2.00000
      7      -5.7269      2.00000
      8      -5.7269      2.00000
      9      -1.5405      2.00000
     10      -1.5405      2.00000
     11      -1.0774      2.00000
     12      -1.0774      2.00000
     13      -0.6279      2.00000
     14      -0.6279      2.00000
     15      -0.1774      2.00000
     16      -0.1774      2.00000
     17       0.6792      2.00000
     18       0.6792      2.00000
     19       1.1513      2.00000
     20       1.1513      2.00000
     21       3.1650      0.00000
     22       3.1650      0.00000
     23       4.2425      0.00000
     24       4.2425      0.00000
     25       5.0828      0.00000
     26       5.0828      0.00000
     27       5.4063      0.00000
     28       5.4063      0.00000
     29       6.0518      0.00000
     30       6.0518      0.00000
     31       6.0915      0.00000
     32       6.0915      0.00000

[...]
     32       6.2134      0.00000

 k-point    32 :       0.1667    0.3333    0.5000
  band No.  band energies     occupation 
      1     -10.9715      2.00000
      2     -10.9715      2.00000
      3     -10.3771      2.00000
      4     -10.3771      2.00000
      5      -6.1059      2.00000
      6      -6.1059      2.00000
      7      -5.2813      2.00000
      8      -5.2813      2.00000
      9      -1.7383      2.00000
     10      -1.7383      2.00000
     11      -1.1414      2.00000
     12      -1.1414      2.00000
     13      -0.3971      2.00000
     14      -0.3971      2.00000
     15       0.0174      2.00000
     16       0.0174      2.00000
     17       0.5277      2.00000
     18       0.5277      2.00000
     19       1.2013      2.00000
     20       1.2013      2.00000
     21       3.7245      0.00000
     22       3.7245      0.00000
     23       4.2135      0.00000
     24       4.2135      0.00000
     25       4.5799      0.00000
     26       4.5799      0.00000
     27       5.4332      0.00000
     28       5.4332      0.00000
     29       5.9664      0.00000
     30       5.9664      0.00000
     31       6.2621      0.00000
     32       6.2621      0.00000

 k-point    33 :      -0.1667    0.3333    0.5000
  band No.  band energies     occupation 
      1     -10.9715      2.00000
      2     -10.9715      2.00000
      3     -10.3771      2.00000
      4     -10.3771      2.00000
      5      -6.1059      2.00000
      6      -6.1059      2.00000
      7      -5.2813      2.00000
      8      -5.2813      2.00000
      9      -1.7383      2.00000
     10      -1.7383      2.00000
     11      -1.1414      2.00000
     12      -1.1414      2.00000
     13      -0.3971      2.00000
     14      -0.3971      2.00000
     15       0.0174      2.00000
     16       0.0174      2.00000
     17       0.5277      2.00000
     18       0.5277      2.00000
     19       1.2013      2.00000
     20       1.2013      2.00000
     21       3.7245      0.00000
     22       3.7245      0.00000
     23       4.2135      0.00000
     24       4.2135      0.00000
     25       4.5799      0.00000
     26       4.5799      0.00000
     27       5.4332      0.00000
     28       5.4332      0.00000
     29       5.9664      0.00000
     30       5.9664      0.00000
     31       6.2621      0.00000
     32       6.2621      0.00000

 k-point    34 :       0.3333    0.3333    0.5000
  band No.  band energies     occupation 
      1     -10.8179      2.00000
      2     -10.8179      2.00000
      3     -10.4589      2.00000
      4     -10.4589      2.00000
      5      -5.9436      2.00000
      6      -5.9436      2.00000
      7      -5.4163      2.00000
      8      -5.4163      2.00000
      9      -2.0470      2.00000
     10      -2.0470      2.00000
     11      -1.3794      2.00000
     12      -1.3794      2.00000
     13      -0.9277      2.00000
     14      -0.9277      2.00000
     15      -0.3077      2.00000
     16      -0.3077      2.00000
     17       0.6751      2.00000
     18       0.6751      2.00000
     19       1.2395      2.00000
     20       1.2395      2.00000
     21       4.0351      0.00000
     22       4.0351      0.00000
     23       4.7281      0.00000
     24       4.7281      0.00000
     25       5.0477      0.00000
     26       5.0477      0.00000
     27       5.5565      0.00000
     28       5.5565      0.00000
     29       6.0675      0.00000
     30       6.0675      0.00000
     31       6.7670      0.00000
     32       6.7670      0.00000

 k-point    35 :      -0.3333    0.3333    0.5000
  band No.  band energies     occupation 
      1     -10.8179      2.00000
      2     -10.8179      2.00000
      3     -10.4589      2.00000
      4     -10.4589      2.00000
      5      -5.9436      2.00000
      6      -5.9436      2.00000
      7      -5.4163      2.00000
      8      -5.4163      2.00000
      9      -2.0470      2.00000
     10      -2.0470      2.00000
     11      -1.3794      2.00000
     12      -1.3794      2.00000
     13      -0.9277      2.00000
     14      -0.9277      2.00000
     15      -0.3077      2.00000
     16      -0.3077      2.00000
     17       0.6751      2.00000
     18       0.6751      2.00000
     19       1.2395      2.00000
     20       1.2395      2.00000
     21       4.0351      0.00000
     22       4.0351      0.00000
     23       4.7281      0.00000
     24       4.7281      0.00000
     25       5.0477      0.00000
     26       5.0477      0.00000
     27       5.5565      0.00000
     28       5.5565      0.00000
     29       6.0675      0.00000
     30       6.0675      0.00000
     31       6.7670      0.00000
     32       6.7670      0.00000

 k-point    36 :       0.5000    0.3333    0.5000
  band No.  band energies     occupation 
      1     -10.6670      2.00000
      2     -10.6670      2.00000
      3     -10.5739      2.00000
      4     -10.5739      2.00000
      5      -5.8066      2.00000
      6      -5.8066      2.00000
      7      -5.5447      2.00000
      8      -5.5447      2.00000
      9      -1.9207      2.00000
     10      -1.9207      2.00000
     11      -1.8935      2.00000
     12      -1.8935      2.00000
     13      -0.7721      2.00000
     14      -0.7721      2.00000
     15      -0.7017      2.00000
     16      -0.7017      2.00000
     17       0.8785      2.00000
     18       0.8785      2.00000
     19       1.0576      2.00000
     20       1.0576      2.00000
     21       4.5404      0.00000
     22       4.5404      0.00000
     23       4.6865      0.00000
     24       4.6865      0.00000
     25       5.2718      0.00000
     26       5.2718      0.00000
     27       5.3656      0.00000
     28       5.3656      0.00000
     29       6.5346      0.00000
     30       6.5346      0.00000
     31       6.7438      0.00000
     32       6.7438      0.00000

 k-point    37 :       0.0000    0.5000    0.5000
  band No.  band energies     occupation 
      1     -10.6285      2.00000
      2     -10.6285      2.00000
      3     -10.6285      2.00000
      4     -10.6285      2.00000
      5      -5.9342      2.00000
      6      -5.9342      2.00000
      7      -5.9342      2.00000
      8      -5.9342      2.00000
      9      -1.0189      2.00000
     10      -1.0189      2.00000
     11      -1.0189      2.00000
     12      -1.0189      2.00000
     13       0.0026      2.00000
     14       0.0026      2.00000
     15       0.0026      2.00000
     16       0.0026      2.00000
     17       0.5887      2.00000
     18       0.5887      2.00000
     19       0.5887      2.00000
     20       0.5887      2.00000
     21       3.7000      0.00000
     22       3.7000      0.00000
     23       3.7000      0.00000
     24       3.7000      0.00000
     25       4.5518      0.00000
     26       4.5518      0.00000
     27       4.5518      0.00000
     28       4.5518      0.00000
     29       5.9481      0.00000
     30       5.9481      0.00000
     31       5.9481      0.00000
     32       5.9481      0.00000

 k-point    38 :       0.1667    0.5000    0.5000
  band No.  band energies     occupation 
      1     -10.6061      2.00000
      2     -10.6061      2.00000
      3     -10.6061      2.00000
      4     -10.6061      2.00000
      5      -5.9001      2.00000
      6      -5.9001      2.00000
      7      -5.9001      2.00000
      8      -5.9001      2.00000
      9      -1.2990      2.00000
     10      -1.2990      2.00000
     11      -1.2990      2.00000
     12      -1.2990      2.00000
     13      -0.3827      2.00000
     14      -0.3827      2.00000
     15      -0.3827      2.00000
     16      -0.3827      2.00000
     17       0.7979      2.00000
     18       0.7979      2.00000
     19       0.7979      2.00000
     20       0.7979      2.00000
     21       3.9136      0.00000
     22       3.9136      0.00000
     23       3.9136      0.00000
     24       3.9136      0.00000
     25       5.1658      0.00000
     26       5.1658      0.00000
     27       5.1658      0.00000
     28       5.1658      0.00000
     29       5.9390      0.00000
     30       5.9390      0.00000
     31       5.9390      0.00000
     32       5.9390      0.00000

 k-point    39 :       0.3333    0.5000    0.5000
  band No.  band energies     occupation 
      1     -10.5601      2.00000
      2     -10.5601      2.00000
      3     -10.5601      2.00000
      4     -10.5601      2.00000
      5      -5.8323      2.00000
      6      -5.8323      2.00000
      7      -5.8323      2.00000
      8      -5.8323      2.00000
      9      -1.6801      2.00000
     10      -1.6801      2.00000
     11      -1.6801      2.00000
     12      -1.6801      2.00000
     13      -0.9801      2.00000
     14      -0.9801      2.00000
     15      -0.9801      2.00000
     16      -0.9801      2.00000
     17       0.9437      2.00000
     18       0.9437      2.00000
     19       0.9437      2.00000
     20       0.9437      2.00000
     21       4.5781      0.00000
     22       4.5781      0.00000
     23       4.5781      0.00000
     24       4.5781      0.00000
     25       5.4541      0.00000
     26       5.4541      0.00000
     27       5.4541      0.00000
     28       5.4541      0.00000
     29       6.7518      0.00000
     30       6.7518      0.00000
     31       6.7518      0.00000
     32       6.7518      0.00000

 k-point    40 :       0.5000    0.5000    0.5000
  band No.  band energies     occupation 
      1     -10.5364      2.00000
      2     -10.5364      2.00000
      3     -10.5364      2.00000
      4     -10.5364      2.00000
      5      -5.7990      2.00000
      6      -5.7990      2.00000
      7      -5.7990      2.00000
      8      -5.7990      2.00000
      9      -1.7786      2.00000
     10      -1.7786      2.00000
     11      -1.7786      2.00000
     12      -1.7786      2.00000
     13      -1.3022      2.00000
     14      -1.3022      2.00000
     15      -1.3022      2.00000
     16      -1.3022      2.00000
     17       1.0026      2.00000
     18       1.0026      2.00000
     19       1.0026      2.00000
     20       1.0026      2.00000
     21       4.6799      0.00000
     22       4.6799      0.00000
     23       4.6799      0.00000
     24       4.6799      0.00000
     25       5.7779      0.00000
     26       5.7779      0.00000
     27       5.7779      0.00000
     28       5.7779      0.00000
     29       7.3239      0.00000
     30       7.3239      0.00000
     31       7.3239      0.00000
     32       7.3239      0.00000


--------------------------------------------------------------------------------------------------------


 soft charge-density along one line, spin component            1
         0         1         2         3         4         5         6         7         8         9
 total charge-density along one line
 
 pseudopotential strength for first ion, spin component:            1
 14.937  18.649  -0.000   0.052   0.032  -0.000   0.093   0.058
 18.649  23.298  -0.000   0.065   0.041  -0.000   0.118   0.073
 -0.000  -0.000   3.293  -0.000  -0.000   5.612  -0.000  -0.000
  0.052   0.065  -0.000   3.287  -0.001  -0.000   5.601  -0.001
  0.032   0.041  -0.000  -0.001   3.295  -0.000  -0.001   5.614
 -0.000  -0.000   5.612  -0.000  -0.000   9.621  -0.000  -0.000
  0.093   0.118  -0.000   5.601  -0.001  -0.000   9.603  -0.002
  0.058   0.073  -0.000  -0.001   5.614  -0.000  -0.002   9.624
 -0.000  -0.000   0.004   0.000  -0.000   0.008   0.000  -0.000
 -0.000  -0.000   0.013  -0.000   0.000   0.024  -0.000   0.000
 -0.009  -0.010   0.000   0.014  -0.002   0.000   0.025  -0.004
 -0.001  -0.002   0.000   0.011   0.013   0.000   0.019   0.024
  0.002   0.002   0.000  -0.000   0.010   0.000  -0.000   0.018
 total augmentation occupancy for first ion, spin component:            1
  2.486  -0.528  -0.000   0.416   0.183   0.000  -0.072  -0.020  -0.000  -0.000   0.013  -0.025  -0.015
 -0.528   0.555   0.000  -0.541  -0.290  -0.000   0.081   0.039   0.000   0.000  -0.011   0.022   0.016
 -0.000   0.000   1.068  -0.000  -0.000  -0.172   0.000   0.000   0.109   0.035  -0.000  -0.000   0.000
  0.416  -0.541  -0.000   1.346  -0.050   0.000  -0.204   0.022  -0.000  -0.000   0.114  -0.050   0.003
  0.183  -0.290  -0.000  -0.050   0.967   0.000   0.022  -0.143  -0.000   0.000  -0.084   0.049  -0.024
  0.000  -0.000  -0.172   0.000   0.000   0.031  -0.000  -0.000  -0.018  -0.005   0.000  -0.000  -0.000
 -0.072   0.081   0.000  -0.204   0.022  -0.000   0.036  -0.006   0.000   0.000  -0.020   0.008  -0.001
 -0.020   0.039   0.000   0.022  -0.143  -0.000  -0.006   0.024   0.000   0.000   0.014  -0.008   0.003
 -0.000   0.000   0.109  -0.000  -0.000  -0.018   0.000   0.000   0.019   0.001  -0.000  -0.000   0.000
 -0.000   0.000   0.035  -0.000   0.000  -0.005   0.000   0.000   0.001   0.008  -0.000   0.000  -0.000
  0.013  -0.011  -0.000   0.114  -0.084   0.000  -0.020   0.014  -0.000  -0.000   0.026  -0.008   0.004
 -0.025   0.022  -0.000  -0.050   0.049  -0.000   0.008  -0.008  -0.000   0.000  -0.008   0.012  -0.003
 -0.015   0.016   0.000   0.003  -0.024  -0.000  -0.001   0.003   0.000  -0.000   0.004  -0.003   0.007


------------------------ aborting loop because EDIFF is reached ----------------------------------------


    CHARGE:  cpu time      0.0039: real time      0.0039
    FORLOC:  cpu time      0.0002: real time      0.0002
    FORNL :  cpu time      0.0215: real time      0.0216
    STRESS:  cpu time      0.2141: real time      0.2149
    FORCOR:  cpu time      0.0033: real time      0.0033
    FORHAR:  cpu time      0.0009: real time      0.0009
    MIXING:  cpu time      0.0005: real time      0.0005
    OFIELD:  cpu time      0.0000: real time      0.0000

  FORCE on cell =-STRESS in cart. coord.  units (eV):
  Direction    XX          YY          ZZ          XY          YZ          ZX
  --------------------------------------------------------------------------------------
  Alpha Z    73.59914    73.59914    73.59914
  Ewald    -480.65258  -387.49062  -453.64791    -0.00000     0.00000     0.00000
  Hartree    50.91238    84.32678    40.51941     0.00000    -0.00000     0.00000
  E(xc)    -139.50027  -139.05930  -139.99753     0.00000     0.00000     0.00000
  Local    -125.63854  -244.36946  -145.48895    -0.00000     0.00000     0.00000
  n-local   235.43564   236.20817   241.48281    -0.00000    -0.00000    -0.00000
  augment   -11.92113   -11.24782   -12.36696     0.00000    -0.00000     0.00000
  Kinetic   394.36914   379.25609   394.96043    -0.00000     0.00000    -0.00000
  Fock        0.00000     0.00000     0.00000     0.00000     0.00000     0.00000
  -------------------------------------------------------------------------------------
  Total      -3.39623    -8.77702    -0.93957    -0.00000     0.00000    -0.00000
  in kB     -23.63484   -61.08054    -6.53859    -0.00001     0.00000    -0.00000
  external pressure =      -30.42 kB  Pullay stress =        0.00 kB


 VOLUME and BASIS-vectors are now :
 -----------------------------------------------------------------------------
  energy-cutoff  :      360.00
  volume of cell :      230.23
      direct lattice vectors                 reciprocal lattice vectors
     4.750000000  0.000000000  0.000000000     0.210526316  0.000000000  0.000000000
     0.000000000  4.350000000  0.000000000     0.000000000  0.229885057  0.000000000
     0.000000000  0.000000000 11.142221000     0.000000000  0.000000000  0.089748713

  length of vectors
     4.750000000  4.350000000 11.142221000     0.210526316  0.229885057  0.089748713


 FORCES acting on ions
    electron-ion (+dipol)            ewald-force                    non-local-force                 convergence-correction
 -----------------------------------------------------------------------------------------------
   0.106E+02 0.808E-07 0.295E+02   -.130E+02 0.592E-15 -.328E+02   0.251E+01 -.284E-08 0.332E+01   -.127E-03 -.391E-07 -.226E-03
   0.106E+02 0.912E-07 -.295E+02   -.130E+02 0.311E-15 0.328E+02   0.251E+01 0.233E-07 -.332E+01   -.127E-03 -.611E-07 0.225E-03
   -.106E+02 -.986E-07 -.295E+02   0.130E+02 0.122E-15 0.328E+02   -.251E+01 -.836E-09 -.332E+01   0.127E-03 0.583E-07 0.226E-03
   -.106E+02 -.177E-06 0.295E+02   0.130E+02 0.981E-15 -.328E+02   -.251E+01 0.282E-07 0.332E+01   0.127E-03 0.825E-07 -.225E-03
   -.934E+01 -.551E-06 -.302E+02   0.107E+02 0.331E-14 0.322E+02   -.140E+01 0.259E-06 -.201E+01   0.545E-04 0.261E-06 0.456E-03
   -.934E+01 -.152E-06 0.302E+02   0.107E+02 -.293E-14 -.322E+02   -.140E+01 0.815E-07 0.201E+01   0.550E-04 0.317E-07 -.458E-03
   0.934E+01 0.564E-06 0.302E+02   -.107E+02 -.369E-14 -.322E+02   0.140E+01 -.236E-06 0.201E+01   -.546E-04 -.256E-06 -.456E-03
   0.934E+01 0.388E-06 -.302E+02   -.107E+02 0.481E-14 0.322E+02   0.140E+01 -.224E-06 -.201E+01   -.548E-04 -.166E-06 0.458E-03
 -----------------------------------------------------------------------------------------------
   -.230E-06 0.146E-06 -.878E-06   0.000E+00 0.350E-14 0.142E-13   0.825E-07 -.714E-07 0.839E-07   0.706E-07 -.884E-07 0.640E-06
 
 
 POSITION                                       TOTAL-FORCE (eV/Angst)
 -----------------------------------------------------------------------------------
      0.53291      1.08750      1.46749         0.039563      0.000000      0.032589
      2.90791      3.26250      4.10362         0.039563      0.000000     -0.032590
      4.21709      3.26250      9.67474        -0.039563     -0.000000     -0.032589
      1.84209      1.08750      7.03860        -0.039563     -0.000000      0.032590
      4.53057      1.08750      3.90371        -0.018551     -0.000000     -0.016098
      2.15557      3.26250      1.66740        -0.018551     -0.000000      0.016097
      0.21943      3.26250      7.23851         0.018551      0.000000      0.016098
      2.59443      1.08750      9.47482         0.018551      0.000000     -0.016098
 -----------------------------------------------------------------------------------
    total drift:                               -0.000000     -0.000000     -0.000000


--------------------------------------------------------------------------------------------------------



  FREE ENERGIE OF THE ION-ELECTRON SYSTEM (eV)
  ---------------------------------------------------
  free  energy   TOTEN  =       -33.18798877 eV

  energy  without entropy=      -33.18798877  energy(sigma->0) =      -33.18798877
 


--------------------------------------------------------------------------------------------------------


    POTLOK:  cpu time      0.1130: real time      0.1134


--------------------------------------------------------------------------------------------------------


     LOOP+:  cpu time      5.2401: real time      5.2797
    4ORBIT:  cpu time      0.0000: real time      0.0000

 total amount of memory used by VASP MPI-rank0    39792. kBytes
=======================================================================

   base      :      30000. kBytes
   nonl-proj :       7704. kBytes
   fftplans  :        358. kBytes
   grid      :        506. kBytes
   one-center:         16. kBytes
   wavefun   :       1208. kBytes
 
  
  
 General timing and accounting informations for this job:
 ========================================================
  
                  Total CPU time used (sec):        6.091
                            User time (sec):        5.808
                          System time (sec):        0.282
                         Elapsed time (sec):        7.651
  
                   Maximum memory used (kb):      191664.
                   Average memory used (kb):          N/A
  
                          Minor page faults:        23202
                          Major page faults:           43
                 Voluntary context switches:         3472
