72
Lattice="12.458275804760195 -6.6815878159e-06 8.70957594e-08 -6.6969914746e-06 12.486993475325024 -3.796469891e-06 9.95045875e-08 -4.3273895086e-06 11.056915954415848" Properties=species:S:1:pos:R:3:forces:R:3:magmoms:R:1 energy=-300.72359748 stress="-0.0004374251445824119 0.0022097129268009354 0.00041847571066492 0.0022097129268009354 -0.00394255027691389 -0.00021252224978166403 0.00041847571066492 -0.00021252224978166403 -0.013503606462062287" dipole="_JSON [[0.0, 0.0, 0.0]]" magmom=0.0018428 free_energy=-300.72359748 pbc="T T T"
Ge       0.86852405       0.60400516       1.58318295       0.15995993       0.01399379      -0.15694356       0.00000000
Ge       2.80034326      10.96061163       4.20416587       0.11957961      -0.21908310       0.13536180       0.00000000
Ge       6.91524317       2.60791221       4.14536495       0.42203591      -0.31370455       0.16160151       0.00000000
Ge       7.11150458       6.87326938       4.08778117       0.17336110       0.00326781       0.18348353       0.00000000
Ge       6.85808613      10.84492624       4.04677924      -0.34626964      -0.27925893       0.43900418       0.00000000
Ge      10.90880560       2.44822499       4.03765107       0.19983333      -0.14440458      -0.15988087       0.00000000
Ge      11.05320434       6.71828647       4.21347560       0.13838763       0.29698745      -0.17968529       0.00000000
Ge      11.12867210      10.94957286       4.03531505       0.37596613      -0.10985744      -0.03024547       0.00000000
Ge       0.76194996       1.85369142       6.72192607      -0.14650191      -0.01092240       0.61185978       0.00000000
Ge       0.58502216       6.12683465       7.06278036       0.55324214      -0.25111640       0.30504466       0.00000000
Ge       0.81551304      10.24523863       6.97050253       0.01738248       0.15797199      -0.43908853       0.00000000
Ge       5.07583517       1.87156548       6.90324419      -0.14436901      -0.41088858       0.28798380       0.00000000
Ge       4.76022583       6.07044282       6.89474783       0.37071019       0.25138919      -0.02255738       0.00000000
Ge       4.85078236      10.32779132       7.05841079       0.53090647       0.00508625      -0.09933039       0.00000000
Ge       9.04306508       1.83643787       7.05053291      -0.01742574       0.15262592      -0.01591643       0.00000000
Ge       9.02515288       6.08169710       7.02824887       0.13988550       0.16935791      -0.40447136       0.00000000
Ge       2.51839908       6.73622648       4.05605607       0.23944012      -0.14207150       0.25827379       0.00000000
Ge       2.90129519       2.65971372       4.00353907       0.44656247      -0.09112764       0.16350380       0.00000000
Ge       8.98635181      10.29227202       6.63035822       0.25459309      -0.39107094       0.67825030       0.00000000
Ge      11.42163686       8.06308847       9.64414974      -0.07766126      -0.54659046      -0.50209385       0.00000000
Ge      11.04602022      12.40418727       9.56287064      -0.03978262      -0.18190867      -0.29830702       0.00000000
Ge       0.57758229       4.57523471       1.61218659      -0.26822873      -0.18318385      -0.97980630       0.00000000
Ge       0.83613370       8.88353006       1.22081397      -0.50796074      -0.01022259       0.33365809       0.00000000
Ge       4.86411156       0.54516820       1.36170565      -0.01425703      -0.15848812      -0.06711312       0.00000000
Ge       5.00685145       4.89851576       1.39989581       1.07484004      -0.94868764       0.13162477       0.00000000
Ge       8.90204381       0.30855943       1.55084381       0.13145110      -0.14604184      -0.64885352       0.00000000
Ge       9.04300359       4.53721470       1.45185709       0.43955904      -0.02134961      -0.19973760       0.00000000
Ge       4.92988601       8.63309721       1.36320273      -0.52453868       0.15812053       0.64814359       0.00000000
Ge       2.96220714       3.72645161       9.54918706       0.06456375       0.07224577      -0.14125429       0.00000000
Ge       2.99992166       8.17159238       9.46291849      -0.27064379      -0.22623325       0.62674357       0.00000000
Ge       2.82570649      12.25058541       9.61860361      -0.00875997       0.14774585       0.58227571       0.00000000
Ge       7.00890995       3.94962433       9.54870769       0.02565347       0.00879492       0.66000792       0.00000000
Ge       6.86644785       8.20661057       9.57183338       0.24734963       0.30019770       0.27162851       0.00000000
Ge       7.15563028      12.17271084       9.74824699      -0.21510804       0.17577557      -0.00184771       0.00000000
Ge      11.30791842       3.99829072       9.29110203      -0.43292497       0.03688840       0.96706692       0.00000000
Ge       9.10769387       9.02153560       1.30972980       0.38371985      -0.64194620       0.03224391       0.00000000
Se      11.29727160       0.07278139       6.94432714      -0.11575603       0.24991340       0.47975336      -0.00000000
Se       2.86663333       4.46973199       6.97193672      -0.07658135      -0.48629870       0.36352944      -0.00000000
Se       3.08326155       8.51233718       7.02760357      -0.52509396      -0.42013742      -0.44487155      -0.00000000
Se       7.06188541       0.14279611       7.22163859       0.32545985      -0.07818603      -0.27943353      -0.00000000
Se       7.17281616       4.30005074       7.13176019      -0.34872385      -0.03421170      -0.65740347      -0.00000000
Se       7.49588474       8.24589551       7.11406222      -0.43910994       0.02856730      -0.28355651      -0.00000000
Se      11.51055198       3.97728386       6.87448834      -0.00572095       0.22590029      -0.42818430      -0.00000000
Se       9.32692353       0.26374442       3.98101150      -0.19863822       0.07915231       0.44943419      -0.00000000
Se       1.05498486       0.32199542       4.12230687      -0.44629689      -0.13361917      -0.29813295      -0.00000000
Se       1.06723451       4.43607736       3.99016928      -0.23311862       0.24851314       0.65023117      -0.00000000
Se       0.66713867       8.48275242       3.79550537       0.01307194      -0.41253150      -0.11823871      -0.00000000
Se       4.88035030       0.08926222       3.89339114       0.12063705      -0.07127239       0.14936704      -0.00000000
Se       5.14078397       4.29640105       3.96937557      -0.45382360       0.53782441      -0.29925637      -0.00000000
Se       5.24693838       8.63284179       3.97457876       0.02273120       0.05361281      -0.39244002      -0.00000000
Se       3.21702725      -0.23029072       7.19233474       0.06729625       0.85539138      -0.74446244      -0.00000000
Se      11.35921557       8.57224830       6.92387874      -0.21444112      -0.23204861       0.84938150      -0.00000000
Se      11.18729923      10.62496509       1.50610108       0.57394184       0.20806324      -0.14661753      -0.00000000
Se       3.01697831       2.36763665       1.47920099      -0.08301894      -0.06816233      -0.03823595      -0.00000000
Se      11.40112870       2.31015997       1.50471156       0.04623374       0.22471336       0.18546202      -0.00000000
Se       9.12037548       4.26109233       3.94974803      -0.25595819      -0.26859488       0.26948044      -0.00000000
Se       1.21253398       1.82492389       9.41866644      -0.17652604       0.45791461      -0.41565846      -0.00000000
Se       1.07091935       6.23360442       9.69547886      -0.52490192       0.60038628      -0.78627710      -0.00000000
Se       0.86871374      10.59368045       9.42588859      -0.27422278      -0.22316798       0.53224045      -0.00000000
Se       5.16013131       2.11101019       9.45376202      -0.28753407       0.34759140      -0.22217240      -0.00000000
Se       5.03674506       6.44589015       9.47228511      -0.16458340      -0.26722911      -0.12913737      -0.00000000
Se       5.20472779      10.36374692       9.59936272       0.24461272      -0.19758453      -0.03563555      -0.00000000
Se       9.16512667       2.31466151       9.54637162       0.36030354      -0.33243031      -0.10381914      -0.00000000
Se       9.50227304       6.06174974       9.44430210       0.54974012       0.29714905       0.43572510      -0.00000000
Se       9.11251064      10.59112853       9.38924041       0.61922542      -0.02609068      -0.43875762      -0.00000000
Se       3.21926223       6.46080648       1.60270776      -0.85208373       1.00165754      -0.06868145      -0.00000000
Se       2.78942649      10.41923335       1.70490032       0.65061100       0.11828625      -0.43293679      -0.00000000
Se       7.03176540       1.99304383       1.66363296      -0.21294666       0.62964206      -0.14172861      -0.00000000
Se       7.42195539       6.43359060       1.60697449      -1.01570486       0.40636307      -0.27280217      -0.00000000
Se       7.18206680      10.60371323       1.58637114      -0.13399555       0.45507804      -0.29185858      -0.00000000
Se      11.09377175       6.30268550       1.69042056       0.06714239      -0.21988152      -0.13973126      -0.00000000
Se       9.26338999       8.60082212       3.91044119      -0.11677726      -0.07656382       0.11479765      -0.00000000
72
Lattice="12.459406979768133 -6.6821944845e-06 8.71036675e-08 -6.6965085476e-06 12.48609302513324 -3.7961961236e-06 9.94585766e-08 -4.3253885238e-06 11.051803236850246" Properties=species:S:1:pos:R:3:forces:R:3:magmoms:R:1 energy=-300.50595614 stress="0.002231456490867302 -0.0013231818967258768 0.0008088516167168378 -0.0013231818967258768 -0.0013878860240075725 2.898851437290927e-05 0.0008088516167168378 2.898851437290927e-05 -0.010173813054306678" dipole="_JSON [[0.0, 0.0, 0.0]]" magmom=0.0015585 free_energy=-300.50595614 pbc="T T T"
Ge       0.84013480       0.69309729       1.35231623       0.25010201      -0.28536651      -0.15022451       0.00000000
Ge       2.53744723      10.82295166       4.00962143       0.43355483      -0.18526833       0.24939520       0.00000000
Ge       6.85536506       2.44285626       4.17595275       0.05094734       0.18711169      -0.43119993       0.00000000
Ge       7.27708487       6.67829245       3.94989300      -0.33529316       0.33236803       0.31167289       0.00000000
Ge       6.69168602      10.73869008       4.26496264       0.03094587       0.05033001      -0.44962358       0.00000000
Ge      11.10845819       2.47738474       3.99782882      -0.29088980      -0.29741186       0.24558885       0.00000000
Ge      11.02787979       6.86816241       4.19238079       0.33879562      -0.54212298       0.28823966       0.00000000
Ge      11.07427315      10.86592835       4.01907857       0.42166972       0.20508643       0.16644977       0.00000000
Ge       0.86967925       1.76856029       6.85659298      -0.21645650       0.42142820       0.12103670       0.00000000
Ge       0.98267393       5.90066362       6.79886417      -0.33100276      -0.05659952       0.38320342      -0.00000000
Ge       0.85214071      10.15977133       6.96664766      -0.08294311      -0.09661492       0.14475063       0.00000000
Ge       4.93424105       1.72320025       6.78532084       0.50837083       0.50891289       0.39786574       0.00000000
Ge       5.22030109       5.91780003       6.92170627      -0.29168929       0.39013615       0.06482220       0.00000000
Ge       4.95685606      10.23927794       6.98835941      -0.26533230      -0.29673495       0.43806631       0.00000000
Ge       9.20835323       1.85192316       6.83625053       0.19721693       0.16343235       0.61545710       0.00000000
Ge       9.03741744       6.09215775       7.06348305       0.13827832       0.04110917       0.36182218       0.00000000
Ge       2.86743613       6.46624204       4.13010548      -0.28944463       0.42833471      -0.71604908      -0.00000000
Ge       3.14608760       2.79400589       4.07335288      -0.37049910      -0.07078451      -0.20449422       0.00000000
Ge       9.04982482      10.21424008       7.06382551       0.01962883      -0.17886576      -0.85465369       0.00000000
Ge      11.42161298       8.18695708       9.57101218      -0.38705533      -0.38303453       0.58420065      -0.00000000
Ge      11.10029471      12.36164360       9.66132230       0.25203892       0.42772649       0.38719356       0.00000000
Ge       0.67126474       4.49970639       1.33175038      -0.05821016       0.32505978       0.22230963      -0.00000000
Ge       0.58598894       8.91022470       1.47778319       0.61863198      -0.47880362      -0.23582949      -0.00000000
Ge       4.87277572       0.36371319       1.37666483      -0.10845920       0.07902312       0.11020961       0.00000000
Ge       5.07059444       4.52063013       1.26143374      -0.36314704       0.60084450      -0.51379248       0.00000000
Ge       8.93498677       0.33955590       1.55478243       0.02397786       0.19764617       0.10878885       0.00000000
Ge       9.13565743       4.53095018       1.48358484      -0.20601020       0.32567486      -0.17147733       0.00000000
Ge       4.76735427       8.63656757       1.49997420       0.38560868      -0.10400798       0.41847207      -0.00000000
Ge       2.97518565       4.09374337       9.50707115       0.02920409      -0.44364699       0.55769076      -0.00000000
Ge       2.80795716       8.19064629       9.60495377       0.08260811       0.04987153      -0.11862275      -0.00000000
Ge       2.66025544      12.55035000       9.68127473       0.16026409       0.11446863      -0.27602135       0.00000000
Ge       6.78691863       3.99104703       9.72163450       0.24362766      -0.09723966      -0.22099911       0.00000000
Ge       6.94219531       8.27998015       9.64802462       0.05583957      -0.10262261       0.09474411       0.00000000
Ge       7.27866212      12.21648771       9.51493288      -0.37173505      -0.02381491       0.17298376       0.00000000
Ge      11.04149257       4.09126679       9.48124936       0.17068904       0.19071263      -0.15181653      -0.00000000
Ge       8.91622719       8.66555834       1.32679207       0.12465627       0.53206737      -0.40940067      -0.00000000
Se      11.34613578       0.10642894       7.21174385       0.03170277      -0.04227755      -0.64364154      -0.00000000
Se       3.04797017       4.28074632       7.06311866       0.18716884       0.04500238      -0.64883359      -0.00000000
Se       2.94008862       8.45350762       7.06978027       0.33375196       0.21421115      -0.10200935      -0.00000000
Se       7.22903681       0.22218180       6.98587225      -0.27461421      -0.35154294       0.13643666      -0.00000000
Se       7.16040388       4.25121098       7.14926869       0.21916953      -0.17675052       0.09216860      -0.00000000
Se       7.13888222       8.29249448       7.13174639       0.35820017       0.33724839      -0.14262507      -0.00000000
Se      11.46367250       4.11233455       6.93589332       0.03394060       0.36952204       0.14165224      -0.00000000
Se       9.33962141       0.27587074       4.11565092       0.18273476       0.34439193      -0.42484891      -0.00000000
Se       0.85694618       0.19371276       3.82192069      -0.28269252       0.07645523       0.30393307      -0.00000000
Se       1.15128339       4.54013192       3.89456187       0.10392226      -0.44041286      -0.06344085      -0.00000000
Se       0.76697301       8.21531433       3.95326237       0.10306682       0.56709215       0.16491332      -0.00000000
Se       4.72415604      -0.06186456       3.94092439       0.27635535       0.12703196       0.00091197      -0.00000000
Se       5.13468166       4.51303278       3.69908114       0.02917449      -0.38776905       1.00241430      -0.00000000
Se       5.33688995       8.51235282       4.15810417      -0.11703436      -0.03165396      -0.70116989      -0.00000000
Se       3.12599748       0.08076796       7.04369919      -0.48513821      -0.66564793       0.45212742      -0.00000000
Se      11.08881961       8.58239183       7.16646012       0.68442759      -0.16920053      -0.77912676      -0.00000000
Se      11.31144208      10.67332318       1.52515873      -0.52201630       0.12969387      -0.09298603      -0.00000000
Se       2.98008294       2.32349164       1.51479231       0.24780440      -0.08232409       0.21905919      -0.00000000
Se      11.48995190       2.48122902       1.48711050      -0.27025718      -0.04392810      -0.10344778      -0.00000000
Se       8.98181632       4.01685653       3.97467774       0.15007846       0.27379375       0.08113926      -0.00000000
Se       1.03823642       2.29399769       9.37035624       0.07325000      -0.40705137       0.14268135      -0.00000000
Se       0.89075828       6.43784357       9.41414244       0.16513210      -0.10890421      -0.25420765      -0.00000000
Se       1.16247889      10.44664024       9.55682632      -0.61206941       0.18838920      -0.28950278      -0.00000000
Se       4.94645997       2.18251436       9.44516953       0.13630147       0.24619253      -0.33941201      -0.00000000
Se       5.23988026       6.33425172       9.46482949      -0.44015267       0.02018040      -0.04928202      -0.00000000
Se       5.26010225      10.39897029       9.56822436       0.13967849       0.26761938      -0.46589631      -0.00000000
Se       9.26948571       2.27674548       9.46865074      -0.21735837      -0.34062082      -0.23462622      -0.00000000
Se       9.36250023       6.33744016       9.64930026       0.23151217      -0.04574618      -0.62988054      -0.00000000
Se       9.35909791      10.52065698       9.46983896      -0.58258211       0.10367914       0.75958589      -0.00000000
Se       3.14038562       6.70349365       1.47856524       0.12294953      -0.86705137       0.50551024      -0.00000000
Se       2.99226475      10.42832265       1.56310321      -0.74376302       0.08004298      -0.11042991      -0.00000000
Se       6.89061907       2.09538623       1.61806418       0.18115325      -0.14860943       0.18206637      -0.00000000
Se       7.05928134       6.41538543       1.46472578       0.66723803      -0.19463688      -0.05763052      -0.00000000
Se       7.34629385      10.89459235       1.56683676      -0.33612240      -0.76725592       0.35284516      -0.00000000
Se      11.13697134       6.25872051       1.72569745      -0.10065409      -0.19205004      -0.35605344      -0.00000000
Se       9.21558708       8.58974154       3.79874514      -0.24274715       0.14448223       0.41084722      -0.00000000
72
Lattice="12.458551472586567 -6.6817356613e-06 8.70976866e-08 -6.7008827572e-06 12.494249034715756 -3.7986758273e-06 9.96079287e-08 -4.3318837494e-06 11.068399192172567" Properties=species:S:1:pos:R:3:forces:R:3:magmoms:R:1 energy=-300.75334844 stress="0.0008667338057314885 0.001115987861005742 4.5501581444621715e-05 0.001115987861005742 -0.004355726559357369 0.00019047065475691658 4.5501581444621715e-05 0.00019047065475691658 -0.004805618082328218" dipole="_JSON [[0.0, 0.0, 0.0]]" magmom=0.0017619 free_energy=-300.75334844 pbc="T T T"
Ge       0.94544897       0.67999392       1.45692529       0.22192465      -0.40166526       0.04675356       0.00000000
Ge       2.91281106      11.04612895       3.93157462       0.45707394      -0.23909179       0.54756039       0.00000000
Ge       7.00256867       2.65108057       4.12510441       0.21921352      -0.10879036       0.11362205       0.00000000
Ge       7.14788860       6.90269044       3.94334349      -0.23524236       0.02065697       0.49746239      -0.00000000
Ge       6.94553263      10.61898616       4.04019480      -0.47853773       0.11874926       0.26856037      -0.00000000
Ge      10.87989164       2.30176810       4.01938090       0.44616840       0.17708539       0.33237123       0.00000000
Ge      11.15158144       6.76579696       3.93379892       0.45097669      -0.25985920       0.54953322       0.00000000
Ge      11.32436276      11.03265107       4.07148301      -0.06736232       0.20884950       0.33700645       0.00000000
Ge       0.57478316       2.05347635       6.91743702      -0.08207770       0.20496111       0.34494197       0.00000000
Ge       1.07482920       5.71331806       6.92284372      -0.07489541       0.06220753      -0.11489372       0.00000000
Ge       0.60174032      10.22150102       6.82988961       0.18700752      -0.61563589       0.44702595       0.00000000
Ge       5.07978538       1.68418183       6.98586850       0.33281128       0.49002279      -0.03446603       0.00000000
Ge       4.93176227       5.98160941       6.96956867      -0.13330924       0.09637136      -0.14043495      -0.00000000
Ge       4.65592048      10.28715461       6.89212886       0.29073296       0.24985793       0.42258933      -0.00000000
Ge       9.08050326       1.94656370       6.81859066       0.30173924       0.63935030       0.53652150       0.00000000
Ge       8.90652733       6.24808586       6.78451686       0.21091033      -0.70945588       0.48613176      -0.00000000
Ge       2.58818973       6.41254357       4.12853190      -0.04964961       0.17892025      -0.09432994      -0.00000000
Ge       2.99153617       2.79141912       4.33454798       0.07596102      -0.15508305      -0.32972981       0.00000000
Ge       9.26662889       9.99809612       6.91763008       0.47419388      -0.30195819       0.24203981       0.00000000
Ge      11.23551549       7.88719064       9.75339002       0.04469306      -0.11874665      -0.41049125       0.00000000
Ge      11.10940974      12.17234319       9.52464057       0.39492198       0.55382640       0.41796644       0.00000000
Ge       0.67809700       4.26549520       1.22832174      -0.49671337       0.44612085       0.45552156       0.00000000
Ge       0.92375617       9.03338797       1.51368747      -0.60354857      -0.83872860      -0.46541226       0.00000000
Ge       5.07532639       0.63560433       1.26909523       0.16752441      -0.53996047       0.28090696       0.00000000
Ge       4.76334790       4.61168899       1.52892858       0.72521616      -0.13728990      -0.50651328       0.00000000
Ge       8.87487760       0.41367856       1.22249818      -0.14936200      -0.19490370       0.56465458       0.00000000
Ge       8.92444964       4.76628027       1.33033774       0.24658627       0.35177249       0.01763050       0.00000000
Ge       4.63092458       8.50265766       1.43149667       0.05402704       0.04460640       0.27957567      -0.00000000
Ge       3.11952036       3.91484034       9.86267118      -0.07187021      -0.44275220      -0.46255462       0.00000000
Ge       2.76047888       8.13740806       9.73593160      -0.01591117       0.02779899      -0.43436631       0.00000000
Ge       2.70272433      12.61199180       9.66348450      -0.36877192      -0.24690060      -0.01107472       0.00000000
Ge       6.95617621       4.17792457       9.77177335       0.22583739      -0.55449717      -0.62616605       0.00000000
Ge       6.81231342       8.20379806       9.58619001       0.09214299       0.23665228       0.09939029      -0.00000000
Ge       7.32742403      12.02662146       9.43174156      -0.73208305       0.30680347       0.07459974       0.00000000
Ge      10.95526604       4.12544412       9.91224687      -0.60407333       0.01381341      -0.67225206       0.00000000
Ge       9.36655307       8.97288573       1.33143667      -0.26448012      -0.19688105       0.46189940       0.00000000
Se      11.09413508       0.30964011       7.03514959       0.21414067      -0.27905224      -0.02713294      -0.00000000
Se       3.19068202       4.05826167       7.23648674      -0.32466941       0.31226883      -0.02343914      -0.00000000
Se       2.81576530       8.63692176       7.15616731      -0.52598568      -0.24267084       0.14515913      -0.00000000
Se       7.33705450       0.22955868       6.87437617      -0.61920247      -1.04002149       0.57706843      -0.00000000
Se       6.93146255       4.37946908       7.10613045       0.35951675       0.18630653       0.42571359      -0.00000000
Se       7.46366225       8.24117806       7.04211033      -1.04291935       0.54266486      -0.05556875      -0.00000000
Se      11.52001198       4.14588911       7.31964382      -0.06084398       0.02507314      -0.01198350      -0.00000000
Se       9.34755125       0.27628239       3.93704407      -0.22346404      -0.35772112      -0.62747348      -0.00000000
Se       1.12960653       0.34923595       3.99074682      -0.52303236       0.00863445      -0.10286572      -0.00000000
Se       0.95695900       4.34329404       3.85352488       0.18648536      -0.04262176      -0.03371199      -0.00000000
Se       0.89961510       8.37862372       3.96351737      -0.20980094       0.04843523       0.24475952      -0.00000000
Se       5.09591010       0.08169990       3.92885408       0.02018710      -0.18396370      -0.36323498      -0.00000000
Se       5.22685670       4.50306321       3.97219364      -0.41809459      -0.08410367       0.44921088      -0.00000000
Se       5.05877597       8.53796673       3.98457503       0.41844357       0.09557887      -0.27420786      -0.00000000
Se       3.22157892      -0.00508216       7.16210040      -0.42617915      -0.19225797       0.03112680      -0.00000000
Se      11.32712314       8.16474467       7.13496886       0.00010216       0.79449165       0.09902703      -0.00000000
Se      11.32135475      10.67749616       1.61006889       0.42099527       0.27468812      -0.27989053      -0.00000000
Se       3.20095187       2.26783816       1.67177962      -0.55820231       0.52530521       0.20711175      -0.00000000
Se      11.37850575       2.17061581       1.55332239       0.00922440       0.45901204      -0.28374131      -0.00000000
Se       9.21345821       4.21309167       3.81727192      -0.46923101       0.25164933       0.11746941      -0.00000000
Se       1.05045951       2.20876694       9.52786843       0.33675668      -0.35791625      -0.08407715      -0.00000000
Se       1.03503677       6.24498079       9.37247555      -0.11373858       0.23693667       0.43310641      -0.00000000
Se       0.70382865      10.57821766       9.41996159       0.20420973       0.41141205      -0.26233924      -0.00000000
Se       5.18652882       2.18048959       9.55827962      -0.15640039       0.08748846       0.09130443      -0.00000000
Se       4.86924024       6.49793351       9.51335198       0.04992048      -0.13033878      -0.10820643      -0.00000000
Se       5.19338496      10.27228706       9.49297649       0.49991503       0.46753150      -0.50099681      -0.00000000
Se       9.01362427       2.37076558       9.50480600       0.17598016       0.28295555      -0.24252333      -0.00000000
Se       9.11734137       6.32803746       9.46865286       0.93870787      -0.43924128      -0.25007486      -0.00000000
Se       9.28277573      10.40543003       9.61987950       0.02502815      -0.50646084      -0.69878709      -0.00000000
Se       2.97697084       6.31736532       1.54873524      -0.36526866       0.62284660       0.23907364      -0.00000000
Se       2.87691803      10.54739912       1.48119878       0.55613285       0.31419097      -0.19575486      -0.00000000
Se       7.04377182       2.27404201       1.60663500       0.25663952      -0.11074143      -0.19626317      -0.00000000
Se       7.03907252       6.61342193       1.51535631       0.44487413      -0.35977867      -0.48577654      -0.00000000
Se       7.35187288      10.60283575       1.58213827       0.00522848       0.27413279      -0.47038593      -0.00000000
Se      11.28266921       6.38671214       1.48740762      -0.10153673      -0.58158933      -0.53564697      -0.00000000
Se       9.35200180       8.55556935       4.01501597      -0.17569337       0.32064979      -0.46762861      -0.00000000
72
Lattice="12.458612002930407 -6.6817681247e-06 8.70981098e-08 -6.7021825082e-06 12.496672508470594 -3.7994126456e-06 9.96315157e-08 -4.332909535e-06 11.071020177583126" Properties=species:S:1:pos:R:3:forces:R:3:magmoms:R:1 energy=-300.70034593 stress="-0.0001902150774412299 0.004763876829128176 -0.00037937118299510766 0.004763876829128176 -0.004392457547212263 0.0019073333366168665 -0.00037937118299510766 0.0019073333366168665 -0.010296803938983055" dipole="_JSON [[0.0, 0.0, 0.0]]" magmom=0.0016456 free_energy=-300.70034593 pbc="T T T"
Ge       0.89052419       0.59754858       1.46901190      -0.19409663      -0.08388138      -0.05090078      -0.00000000
Ge       2.90255378      10.95959442       3.98954802      -0.09676564      -0.07668246      -0.22062294      -0.00000000
Ge       7.05499065       2.67500861       4.17900608       0.01178013      -0.21379406      -0.48846090       0.00000000
Ge       7.11576615       6.81477409       3.97048132       0.39888785      -0.19713411      -0.24246741       0.00000000
Ge       6.82131432      10.67711410       4.07288096       0.36837273      -0.29139201      -0.20401673       0.00000000
Ge      11.00059503       2.47957217       4.07069986      -0.29604876      -0.19872912      -0.54184370       0.00000000
Ge      11.28367365       6.74948717       4.05699805      -0.25897807       0.08450331      -0.12036570       0.00000000
Ge      11.26573666      11.14716702       4.25214154       0.27148962      -0.41783113      -0.34099349       0.00000000
Ge       0.55448292       2.05137039       7.02633462       0.14593711      -0.08150886      -0.33524665       0.00000000
Ge       0.95051996       5.78789393       6.90538076       0.04859866       0.13367293       0.29330853       0.00000000
Ge       0.72061674       9.98878676       6.90153172      -0.13086788       0.62541792      -0.18706239       0.00000000
Ge       4.99486586       1.84999970       6.98021478      -0.00806122      -0.48622470       0.13950659       0.00000000