72
Lattice="12.458843209423186 -6.6818921248e-06 8.70997262e-08 -6.6966405213e-06 12.486339099117309 -3.7962709384e-06 9.94719497e-08 -4.3259701139e-06 11.053289258004108" Properties=species:S:1:pos:R:3:forces:R:3:magmoms:R:1 energy=-300.23701795 stress="0.0017844955499178384 -0.0025463101302545237 0.0013041091555540943 -0.0025463101302545237 0.00010354168688166643 0.0002401458272483613 0.0013041091555540943 0.0002401458272483613 -0.0063198893046785875" dipole="_JSON [[0.0, 0.0, 0.0]]" magmom=0.0016905 free_energy=-300.23701795 pbc="T T T"
Ge       0.81103112       0.62551390       1.47753257       0.25649145       0.12272971      -0.35809777       0.00000000
Ge       2.61009493      10.81894328       4.14201101       0.14179942       0.26392746      -0.44549344      -0.00000000
Ge       6.85794279       2.42340175       4.20500680       0.06829303       0.42724425      -0.32759946       0.00000000
Ge       7.21024514       6.74257668       4.05519717      -0.02871647       0.04814549      -0.38587607       0.00000000
Ge       6.67659906      10.79333891       4.25590062       0.50407688      -0.06973844      -0.40830283       0.00000000
Ge      11.09206894       2.50687862       4.02607720      -0.29613814      -0.22724634       0.06452620       0.00000000
Ge      10.99578633       6.77159837       4.23853006       0.25316040       0.12869211      -0.12738849       0.00000000
Ge      11.07721689      10.83849281       4.04841853       0.04622792       0.30458006      -0.06029526       0.00000000
Ge       0.82880587       1.75645068       6.85573698       0.03042981       0.30719173      -0.52243039       0.00000000
Ge       0.73696123       5.97461522       7.02456621       0.50235537      -0.00309870      -0.87605152      -0.00000000
Ge       0.78517673      10.16984233       6.85944052       0.15952076      -0.10182674       0.65527483       0.00000000
Ge       4.90905683       1.75732841       6.90069302       0.63885791       0.43289651      -0.33299928      -0.00000000
Ge       5.08365208       5.89760871       6.94141136      -0.18566300       0.31635062      -0.08061150      -0.00000000
Ge       4.98664705      10.32745285       7.04125941      -0.42167347      -0.27706618       0.04741716       0.00000000
Ge       9.22243749       1.86748225       6.93750426      -0.30101003      -0.06044678       0.03529292       0.00000000
Ge       9.04368863       6.04820653       7.09509413      -0.05998646       0.14938289       0.05452032       0.00000000
Ge       2.80134588       6.57838100       4.11277281      -0.27913444      -0.11780113      -0.35640974      -0.00000000
Ge       3.11493450       2.67909833       4.06509275      -0.38620619       0.40906813      -0.20129970      -0.00000000
Ge       8.97637758      10.25146150       6.92984384       0.16928975       0.04518704      -0.29574797       0.00000000
Ge      11.40980333       7.93336806       9.56091680      -0.08710476       1.37344528       0.27363202       0.00000000
Ge      11.03205840      12.37827033       9.57690313       0.32296247       0.14303745       0.49965545       0.00000000
Ge       0.60633651       4.49388584       1.34852783       0.34396903       0.28374015       0.60021919      -0.00000000
Ge       0.63902572       8.90235091       1.40419732       0.34416463      -0.12898207      -0.23009396       0.00000000
Ge       4.88576688       0.33222375       1.37471241      -0.06898275       0.42718066       0.01933995       0.00000000
Ge       5.07737339       4.60945534       1.20158189      -0.36134497       0.42510333       0.46797032       0.00000000
Ge       9.02746514       0.29552324       1.55097705      -0.56995617       0.10862992       0.32656551       0.00000000
Ge       9.17934812       4.55365179       1.39699213      -0.57157018      -0.04139445       0.44790640       0.00000000
Ge       4.84579538       8.66313188       1.57661312       0.09608772      -0.28753445      -0.59257599       0.00000000
Ge       3.05076836       3.88458945       9.53570653      -0.35123920       0.42104990      -0.06762733      -0.00000000
Ge       2.91820232       8.17570606       9.60159912      -0.19956395       0.12888252      -0.35274239      -0.00000000
Ge       2.72852506      12.47146196       9.74612785      -0.05994755      -0.12765878      -0.48677676       0.00000000
Ge       6.79780307       3.93390440       9.74157037       0.31096249       0.25717531      -0.49401140       0.00000000
Ge       6.95945270       8.29039239       9.67496957      -0.23652600      -0.23361060      -0.31198896       0.00000000
Ge       7.21299748      12.13062588       9.62408723       0.11827623       0.25630276      -0.17099162       0.00000000
Ge      11.11843274       4.05150614       9.42370431       0.21423069       0.14427843      -0.25542509       0.00000000
Ge       8.95108114       8.71323760       1.26248339       0.07124141       0.47003455       0.31563494       0.00000000
Se      11.34410213       0.07610459       7.13809810      -0.09937376       0.00515480      -0.42776866      -0.00000000
Se       2.96001083       4.34718242       6.99787947       0.18677357       0.05291424       0.07787175      -0.00000000
Se       2.95903908       8.44261625       7.04842203       0.26973882       0.36919427       0.10020810      -0.00000000
Se       7.08169370       0.12644258       7.00473648       0.35616751       0.23644874       0.41165332      -0.00000000
Se       7.16925484       4.24615429       7.08457450       0.04626429       0.04914793       0.46171439      -0.00000000
Se       7.27850880       8.32667723       7.07436172      -0.01851604      -0.13275396       0.32236303      -0.00000000
Se      11.56667468       4.00664865       6.81361223      -0.44902695       0.19325399       0.67109847      -0.00000000
Se       9.25979696       0.28326246       4.13058165       0.44551317      -0.01747804      -0.61474155      -0.00000000
Se       0.94729164       0.33532409       3.92320690      -0.07002525      -0.43389852       0.26881850      -0.00000000
Se       1.10809369       4.53137656       4.00773301       0.18207826      -0.25654320      -0.56692591      -0.00000000
Se       0.74960707       8.30029097       3.88605889      -0.11193149       0.19520661       0.24280608      -0.00000000
Se       4.79845529      -0.03355997       3.90882146      -0.17726922       0.20725037       0.06007916      -0.00000000
Se       5.12504491       4.48112823       3.77273840       0.07662343      -0.36101733       0.17630914      -0.00000000
Se       5.37897347       8.55460753       3.99739465      -0.43002359      -0.02083503       0.43930951      -0.00000000
Se       3.22581387      -0.01516300       6.98303116      -0.60287806      -0.52677841       0.73259889      -0.00000000
Se      11.10372980       8.72018981       7.07531799       0.68433763      -0.67364924      -0.20567552      -0.00000000
Se      11.23607825      10.65578937       1.50788083      -0.08388895       0.09040539       0.09665752      -0.00000000
Se       2.96516965       2.46180050       1.49605220       0.19337080      -0.58761474       0.10981487      -0.00000000
Se      11.44420222       2.53222083       1.48250601      -0.11442942      -0.61503785      -0.02331493      -0.00000000
Se       9.03093644       4.06340993       4.03881941       0.00771177       0.25014247      -0.49428405      -0.00000000
Se       1.13218689       2.18745043       9.25603696      -0.15319473      -0.41182199       0.99913413      -0.00000000
Se       0.88377287       6.41388613       9.43856382       0.65388071      -0.51841973       0.61269297      -0.00000000
Se       1.16741398      10.47546495       9.62110551      -0.53019707       0.14888685      -0.72678850      -0.00000000
Se       4.94617082       2.22513683       9.40580021       0.42519651      -0.42171034       0.18664337      -0.00000000
Se       5.17457000       6.28841936       9.47774099      -0.02000067       0.38435457      -0.03905017      -0.00000000
Se       5.26878071      10.48822198       9.56413417      -0.14429968      -0.42966990      -0.14253645      -0.00000000
Se       9.22700227       2.41104270       9.41944253      -0.20128333      -0.68936547       0.26339877      -0.00000000
Se       9.50524848       6.38968592       9.65257253      -0.68222508      -0.93823840      -0.62649008      -0.00000000
Se       9.31930021      10.49925792       9.40894886      -0.52108249       0.18558578       0.40111717      -0.00000000
Se       3.17069426       6.66281878       1.55107656       0.21387208      -0.49993173       0.07809061      -0.00000000
Se       3.01900902      10.42752621       1.55240334      -0.73397309       0.08656563       0.46613057      -0.00000000
Se       6.87542464       2.12249390       1.67224434       0.36733793      -0.37024972      -0.09971190      -0.00000000
Se       7.16560788       6.38552807       1.44122872       0.42676785       0.02626712       0.44602162      -0.00000000
Se       7.25312446      10.83578867       1.53419183       0.23814328      -0.29795414       0.27354273      -0.00000000
Se      11.06903020       6.21167950       1.68100338       0.24197110       0.40115423       0.15608898      -0.00000000
Se       9.22318764       8.68321085       3.85903108       0.00023656      -0.39681685      -0.15399417      -0.00000000
