72
Lattice="12.455670077476213 -6.6801903195e-06 8.70775428e-08 -6.7033412985e-06 12.49883315130876 -3.8000695544e-06 9.97050642e-08 -4.3361081118e-06 11.079192863443643" Properties=species:S:1:pos:R:3:forces:R:3:magmoms:R:1 energy=-300.39375717 stress="0.0003452527410640893 0.0017225182443506046 0.0007022341765530274 0.0017225182443506046 -0.004224346786823367 -0.0015700485622764618 0.0007022341765530274 -0.0015700485622764618 -0.011757471245956658" dipole="_JSON [[0.0, 0.0, 0.0]]" magmom=0.0017804 free_energy=-300.39375717 pbc="T T T"
Ge       0.69598813       0.29700885       1.55228855       0.06533948       0.09836753      -0.50226838       0.00000000
Ge       2.84310039      10.76590113       4.20088361       0.07255153       0.08793946      -0.35802538       0.00000000
Ge       7.04643298       2.49637966       4.01653085       0.44655049      -0.24530977       0.12144538      -0.00000000
Ge       7.23099445       6.82336707       4.05038349      -0.12819904      -0.30871458      -0.06127221      -0.00000000
Ge       6.81201327      10.69876693       4.09994954       0.33192373      -0.29470138      -0.25539979       0.00000000
Ge      11.19170020       2.27006581       4.06298719      -0.40262491       0.38541425      -0.00435658       0.00000000
Ge      11.12142029       6.81298639       4.27230820       0.12648878      -0.21947439       0.04486970      -0.00000000
Ge      11.40968523      10.98106803       4.18045687      -0.16005647      -0.23130212      -0.24635681       0.00000000
Ge       0.44213736       2.25169705       6.94820806       0.18638554      -0.10523086       0.18569839       0.00000000
Ge       0.78307438       6.08118327       7.04984179      -0.02292316      -0.14478785       0.25920186       0.00000000
Ge       0.86220001      10.45408486       7.07763412      -0.32961043      -0.15668014      -0.69366917       0.00000000
Ge       5.16381894       1.73246997       6.76832636      -0.29828581       0.19256996       0.41630720      -0.00000000
Ge       4.79213035       6.15451129       6.88124524       0.36003415       0.01328560       0.12655623      -0.00000000
Ge       4.69686334      10.50722626       7.03275368      -0.12912299      -0.08141641       0.01202624       0.00000000
Ge       8.97113389       1.86213519       7.00703188       0.22268320      -0.24749736      -0.96677090      -0.00000000
Ge       8.75264062       6.39968399       7.10778070      -0.08005037      -0.05943240      -1.08740017      -0.00000000
Ge       2.75515677       6.57787853       4.11907434       0.46657575      -0.31324802      -0.34539563      -0.00000000
Ge       3.05711109       2.67524460       3.76895408       0.26637269      -0.29757444       0.80295925       0.00000000
Ge       9.40380488      10.18839849       6.85438578      -0.46451361      -0.02110313      -0.14775845       0.00000000
Ge      11.28256330       8.13124309       9.63411938      -0.16672794      -0.36023865      -0.35539617       0.00000000
Ge      11.46560233      12.27524987       9.83707286      -0.63470041      -0.02664837      -0.33495253       0.00000000
Ge       0.84480095       4.45995056       1.59443870      -0.15360042      -0.16699009       0.02830954       0.00000000
Ge       0.82670963       8.88735920       1.29677776      -0.36665668      -0.37822590       0.32731316       0.00000000
Ge       4.87023224       0.50317081       1.58799450       0.18388686      -0.04649825      -0.93128213       0.00000000
Ge       5.14204410       4.44527656       1.28332668      -0.21471890       0.47558761       0.40960813       0.00000000
Ge       8.81010923       0.10865383       1.53909166       1.03602591       0.09823953      -0.15367234       0.00000000
Ge       9.32727184       4.63215533       1.55380951      -0.40804703      -0.11227255      -0.15360347      -0.00000000
Ge       4.73069084       8.65729177       1.42426373       0.14337315      -0.14670666       0.32127914       0.00000000
Ge       2.87830965       4.02777061       9.47601284       0.32953257      -0.26125015       0.10041846       0.00000000
Ge       2.88122482       7.99575861       9.52698911       0.16800089       0.48616879       0.58082766       0.00000000
Ge       2.80370795      12.24352337       9.55100908      -0.09844845       0.32047881       0.51019678       0.00000000
Ge       7.24969317       3.84109545       9.64887243      -0.77483051       0.26974054       0.13393680      -0.00000000
Ge       6.68629742       8.53735389       9.65182563       0.41151617      -0.12565573      -0.42764589       0.00000000
Ge       7.15067927      12.32387260       9.55610216      -0.26351390      -0.23860460       0.71361816       0.00000000
Ge      11.06221089       4.05821976       9.38433470       0.16052689       0.38275010       0.05336311       0.00000000
Ge       9.15777203       8.40903411       1.38284167      -0.05080071       0.52228936       0.00809352       0.00000000
Se      11.18700438       0.27018814       7.22252035      -0.08456330      -0.00314073       0.17172633      -0.00000000
Se       2.89742011       4.38326218       6.97355491      -0.08212221      -0.06036666       0.18822823      -0.00000000
Se       2.77524354       8.73325488       7.08862644       0.26765461      -0.58408932      -0.33938074      -0.00000000
Se       7.05540555      -0.01425167       7.13523444       0.11954224       0.25469256      -0.83929789      -0.00000000
Se       6.89684387       4.53172472       7.18957207       0.23413240      -0.26298488      -0.21509041      -0.00000000
Se       7.17308719       8.52591402       7.02694404       0.03703092       0.13032245       0.34783498      -0.00000000
Se      11.21549431       4.31422302       6.85345055       0.28599070      -0.02980091       0.41152135      -0.00000000
Se       9.57698323       0.25255262       4.08269168      -0.48395436      -0.00664926      -0.20533290      -0.00000000
Se       0.99003385       0.11900659       4.01584088       0.15554509       0.19451172       0.29278944      -0.00000000
Se       1.21404273       4.41975479       4.12135059      -0.19854909       0.09241076      -0.43987387      -0.00000000
Se       0.93095377       8.24275918       3.91115509      -0.46943544       0.72132468      -0.29782262      -0.00000000
Se       5.00921781       0.02643203       4.00421703      -0.48232941      -0.01344868       0.44028218      -0.00000000
Se       5.25105516       4.21589098       3.88705123      -0.42222417       0.51085377      -0.40089277      -0.00000000
Se       5.29704276       8.56752805       3.99978990      -0.36725226       0.22170056      -0.38613830      -0.00000000
Se       2.89916845       0.15601138       7.13114328       0.41501387      -0.13905908      -0.51865938      -0.00000000
Se      11.40841897       8.53933250       7.03094399      -0.13675457      -0.17849079       0.35682232      -0.00000000
Se      11.26041666      10.52345244       1.57918993       0.48579592       0.10165032       0.17051138      -0.00000000
Se       3.00060944       2.38105544       1.30924168       0.27398673      -0.20533440      -0.08539821      -0.00000000
Se      11.55820892       2.33967919       1.57369342      -0.07951721       0.04959572       0.00186507      -0.00000000
Se       9.12762135       4.13150831       4.03493439       0.21353147      -0.05708214      -0.09703091      -0.00000000
Se       0.92833024       2.31973587       9.54451523      -0.20130326      -0.16852754      -0.41220780      -0.00000000
Se       0.88910524       6.35709018       9.68621300      -0.30308734      -0.22793929      -0.66790439      -0.00000000
Se       0.69555383      10.37433012       9.52248888       0.44598460       0.62939224       0.61053656      -0.00000000
Se       5.03427370       2.21123718       9.31290097       0.15327650       0.14741118       0.01548436      -0.00000000
Se       5.04245945       6.56789985       9.41539497      -0.50709222      -0.27669329      -0.09097764      -0.00000000
Se       4.90915606      10.48311344       9.56412380       0.38209557       0.44989414       0.06213701      -0.00000000
Se       9.21078608       2.21621597       9.38101252      -0.14448612      -0.08447546       0.95588723      -0.00000000
Se       9.29370008       6.32098148       9.43449941       0.21700481       0.08906078       1.11538957      -0.00000000
Se       9.01578651      10.53276448       9.30593023       0.77791194       0.20197574       0.62054282      -0.00000000
Se       3.30508864       6.46575592       1.51521071      -0.09304422      -0.29912840       0.33846222      -0.00000000
Se       2.78609881      10.45771153       1.61579424       0.53505758       0.17925991       0.21970891      -0.00000000
Se       7.13082706       1.99955076       1.48130017      -0.59054284       0.18666300       0.25618348      -0.00000000
Se       7.23227874       6.43327268       1.48572596       0.31834719      -0.19604511       0.19349757      -0.00000000
Se       7.42314299      10.54427934       1.52511920      -0.59462584      -0.34087510       0.25570255      -0.00000000
Se      11.34133781       6.22390568       1.76469378      -0.25601964       0.26779794      -0.12589900      -0.00000000
Se       9.19883407       8.53587465       3.92078891       0.34866533      -0.03765421      -0.03400945      -0.00000000
