72
Lattice="12.452146588874502 -6.6783006119e-06 8.70529101e-08 -6.7053265501e-06 12.50253478706428 -3.8011949773e-06 9.97851604e-08 -4.3395914401e-06 11.088093117982703" Properties=species:S:1:pos:R:3:forces:R:3:magmoms:R:1 energy=-300.48118545 stress="-0.0014403297177359488 -0.0020626052877677843 -0.0011849244055577722 -0.0020626052877677843 -0.008505508932714043 -9.230343776091132e-05 -0.0011849244055577722 -9.230343776091132e-05 -0.012975372346664066" dipole="_JSON [[0.0, 0.0, 0.0]]" magmom=0.0020042 free_energy=-300.48118545 pbc="T T T"
Ge       1.13268846       0.61414022       1.35412364      -0.32807288      -0.27787146       0.08916450       0.00000000
Ge       2.93656144      11.00462769       4.09383435       0.12913056      -0.35537160      -0.02017014      -0.00000000
Ge       7.01424685       2.48807463       4.12385102       0.40804731      -0.19525110       0.22210946       0.00000000
Ge       7.08809828       6.78754557       4.26752454       0.06501863       0.12306947      -0.41206312       0.00000000
Ge       6.93244561      10.68300876       4.05086864      -0.18265332      -0.28012470       0.02237002      -0.00000000
Ge      10.87240091       2.17743620       4.03632926      -0.04921320       0.22212864       0.49843642       0.00000000
Ge      11.31893076       6.66069097       4.10021794      -0.24065166       0.11150727       0.24008485       0.00000000
Ge      11.26522034      10.78797191       3.91009338       0.16513147       0.20580186       0.12206393       0.00000000
Ge       0.63031974       2.16130610       6.68007566      -0.31171001      -0.04062456       0.46642337       0.00000000
Ge       0.82005356       6.04576848       6.91252405       0.08789938      -0.13831019       0.24594038       0.00000000
Ge       0.76324687      10.13784536       7.00135262      -0.10036334       0.26632909      -0.59352978       0.00000000
Ge       4.91939500       1.91337153       6.94993937       0.33720818       0.03231922       0.12208125       0.00000000
Ge       5.00512919       5.98690974       6.96774272      -0.30126531       0.65759678      -0.26879660       0.00000000
Ge       4.85213055      10.29732787       7.12461235      -0.03279488      -0.03485269      -0.13976419      -0.00000000
Ge       9.03858613       2.07023106       7.16900407       0.17075532      -0.04823277      -0.64431343       0.00000000
Ge       8.94214501       6.31927236       6.93003706       0.23660417      -0.18058913      -0.49027777       0.00000000
Ge       2.60666483       6.48584662       3.98652116       0.45902453      -0.27912656      -0.00593602       0.00000000
Ge       3.14730720       2.58585059       4.18687941      -0.22892141       0.00196766       0.03662846       0.00000000
Ge       8.85629674      10.27237021       7.21445434       1.06655058       0.44461544      -0.44346560       0.00000000
Ge      11.22840407       8.20188301       9.84853334      -0.28019490      -0.33560022      -0.66122881      -0.00000000
Ge      10.96747069      12.79718262       9.44803313       0.21590269      -0.63706050       0.01491939       0.00000000
Ge       0.44274864       4.33328262       1.30193191       0.36754043       0.07655019       0.23584280       0.00000000
Ge       1.06997136       8.66098916       1.36518920      -0.79427251      -0.32058398       0.15971155      -0.00000000
Ge       5.15167340       0.35016931       1.16523036      -0.15155399       0.36767513      -0.17468133      -0.00000000
Ge       5.18615172       4.87091468       1.53646017      -0.39427203      -0.58663812      -0.44785009       0.00000000
Ge       9.01338480       0.20877064       1.39087899       0.02301651      -0.13741646       0.27805986       0.00000000
Ge       9.15652250       4.44739528       1.44197551      -0.50131243       0.14072525      -0.02817376       0.00000000
Ge       4.88915580       8.52047459       1.42274921      -0.32143179      -0.16092446       0.55041456      -0.00000000
Ge       2.93171905       3.87195301       9.72680510       0.07287424       0.33264880      -0.28099436       0.00000000
Ge       2.62208527       8.37396353       9.58407730       0.11054121       0.14238658       0.22585220      -0.00000000
Ge       2.72051255      12.76637160       9.59533232       0.13515529      -0.86610634       0.51960390       0.00000000
Ge       6.95128252       4.11454878       9.42968987      -0.30632675       0.15757192       1.29529146       0.00000000
Ge       6.79204800       8.00217099       9.69119157       0.91024138       1.11149871       0.34145376      -0.00000000
Ge       7.10053620      12.32379657       9.59927112      -0.42244970      -0.35872221       0.47302234       0.00000000
Ge      11.02423035       4.08114672       9.83989186      -0.24048103       0.51331647      -0.53003726       0.00000000
Ge       9.35209617       9.13126799       1.43061275      -0.05405661      -0.65057967      -0.27333603      -0.00000000
Se      11.20640871       0.31506739       6.91614886      -0.17822274       0.18014623       0.26391451      -0.00000000
Se       3.06186085       4.38360147       7.08282628      -0.57645602      -0.19409391       0.40234812      -0.00000000
Se       2.93560727       8.47991636       7.12803495      -0.08326080       0.17434543      -0.29194248      -0.00000000
Se       7.14092157       0.32987806       7.16723476      -0.10802099      -0.14754431      -0.46213285      -0.00000000
Se       6.99776980       4.38134049       7.06096961       0.47858178      -0.24514189      -0.92218990      -0.00000000
Se       7.34813598       8.34644026       7.17447712      -0.83248008      -0.39339961      -0.08822379      -0.00000000
Se      11.46929986       4.19263555       7.27845180       0.04223146      -0.04739344      -0.10600120      -0.00000000
Se       9.23307538       0.06547417       3.94796169       0.40557816       0.06137089      -0.14311238      -0.00000000
Se       0.96684718       0.08818779       3.84033748      -0.13077580       0.10992141       0.16046997      -0.00000000
Se       1.13007212       4.25889223       3.85721855      -0.16524109       0.21077146      -0.01084702      -0.00000000
Se       0.90306940       8.37078796       3.93253789      -0.56723484      -0.00646781      -0.17500339      -0.00000000
Se       5.12419074      -0.02252513       3.63806718      -0.51413635      -0.02064942       0.73089032      -0.00000000
Se       5.17725672       4.23373564       4.01722072      -0.27126542       0.45063194      -0.06391863      -0.00000000
Se       5.12486261       8.44158877       4.04773691       0.24317951       0.30989104      -0.43774493      -0.00000000
Se       3.32964554      -0.02215374       7.20329292      -0.46084446      -0.06879579      -0.62507483      -0.00000000
Se      11.08843865       8.63436349       7.25391716       0.18694787      -0.09652120       0.32149406      -0.00000000
Se      11.44707354      10.66164695       1.40498867      -0.05535954      -0.14448381       0.21163684      -0.00000000
Se       3.10290191       2.15806949       1.68543156       0.39772085       0.10685769      -0.43428478      -0.00000000
Se      11.37907267       2.24904896       1.60749968       0.03820548      -0.32265525      -0.55252119      -0.00000000
Se       9.11300745       4.20113581       3.91867033      -0.07465443      -0.53935061       0.28535866      -0.00000000
Se       1.04776666       2.11256398       9.39247384      -0.27709270       0.35172983      -0.42772582      -0.00000000
Se       0.79471219       6.54973839       9.44866843      -0.00746182      -0.15113665      -0.11377226      -0.00000000
Se       0.90150583      10.80613245       9.36512456      -0.12202602      -0.15929409       0.61404994      -0.00000000
Se       4.96849827       2.28365279       9.49834420       0.27129995       0.11971204      -0.04725138      -0.00000000
Se       4.94604489       6.51687395       9.46247265      -0.83643251      -0.96526939       0.13265507      -0.00000000
Se       5.27891651      10.29369092       9.57997271       0.15190265       0.31831922       0.03851380      -0.00000000
Se       9.08364777       2.37790385       9.65375264       0.11140298      -0.26063014       0.16606541      -0.00000000
Se       9.19275132       6.25323647       9.36483513       0.82288551      -0.12580955       1.02398130      -0.00000000
Se       9.17373837      10.77055641       9.67021293       0.22276405       0.15085675      -0.14728195      -0.00000000
Se       3.01717175       6.45335378       1.44634370       0.38836286       0.06456077       0.20233627      -0.00000000
Se       2.86971753      10.24533636       1.57213420       0.88210467       1.03359116       0.10629569      -0.00000000
Se       7.18749351       1.97009036       1.64706067      -0.40340882       0.55379656      -0.42010266      -0.00000000
Se       7.13229291       6.40104398       1.69046513       0.50221789       0.10315947       0.09067414      -0.00000000
Se       7.25628728      10.67656024       1.52332066       0.11772210      -0.28673393       0.13052117      -0.00000000
Se      11.06939808       6.11100465       1.62135577       0.43362608       0.51761028      -0.20964747      -0.00000000
Se       9.26587494       8.36268025       3.94775937       0.24899646       0.33437691       0.05271748      -0.00000000
