 vasp.6.4.2 20Jul23 (build Oct 12 2023 10:31:02) complex                         
 executed on              LinuxNV date 2025.05.27  20:41:23
 running  128 mpi-ranks, with    1 threads/rank, on    2 nodes
 distrk:  each k-point on   64 cores,    2 groups
 distr:  one band on NCORE=   4 cores,   16 groups


--------------------------------------------------------------------------------------------------------


 INCAR:
   ENCUT = 360.000000
   SIGMA = 0.050000
   EDIFF = 1.00e-06
   ALGO = Normal
   GGA = PE
   PREC = Normal
   SYSTEM = ./
   ICHARG = 2
   ISMEAR = 0
   ISPIN = 1
   ISTART = 0
   ISYM = 0
   KPAR = 2
   LMAXMIX = 4
   NELM = 100
   NPAR = 16
   LASPH = .TRUE.
   LCHARG = .FALSE.
   LWAVE = .FALSE.

 POTCAR:    PAW_PBE Ge 05Jan2001                  
 POTCAR:    PAW_PBE Se 06Sep2000                  
 POTCAR:    PAW_PBE Ge 05Jan2001                  
   VRHFIN =Ge: s2p2                                                                                 
   LEXCH  = PE                                                                                      
   EATOM  =   104.9960 eV,    7.7170 Ry                                                             
                                                                                                    
   TITEL  = PAW_PBE Ge 05Jan2001                                                                    
   LULTRA =        F    use ultrasoft PP ?                                                          
   IUNSCR =        1    unscreen: 0-lin 1-nonlin 2-no                                               
   RPACOR =    2.170    partial core radius                                                         
   POMASS =   72.610; ZVAL   =    4.000    mass and valenz                                          
   RCORE  =    2.300    outmost cutoff radius                                                       
   RWIGS  =    2.300; RWIGS  =    1.217    wigner-seitz radius (au A)                               
   ENMAX  =  173.807; ENMIN  =  130.355 eV                                                          
   ICORE  =        3    local potential                                                             
   LCOR   =        T    correct aug charges                                                         
   LPAW   =        T    paw PP                                                                      
   EAUG   =  385.843                                                                                
   DEXC   =    0.000                                                                                
   RMAX   =    2.342    core radius for proj-oper                                                   
   RAUG   =    1.300    factor for augmentation sphere                                              
   RDEP   =    2.318    radius for radial grids                                                     
   RDEPT  =    2.103    core radius for aug-charge                                                  
                                                                                                    
   Atomic configuration                                                                             
   10 entries                                                                                       
     n  l   j            E        occ.                                                              
     1  0  0.50    -10959.8463   2.0000                                                             
     2  0  0.50     -1371.6056   2.0000                                                             
     2  1  1.50     -1198.4791   6.0000                                                             
     3  0  0.50      -168.4733   2.0000                                                             
     3  1  1.50      -115.6019   6.0000                                                             
     3  2  2.50       -29.3106  10.0000                                                             
     4  0  0.50       -11.7309   2.0000                                                             
     4  1  0.50        -3.8952   2.0000                                                             
     4  2  1.50        -4.0817   0.0000                                                             
     4  3  2.50        -4.0817   0.0000                                                             
   Description                                                                                      
     l       E           TYP  RCUT    TYP  RCUT                                                     
     0    -11.7309493     23  2.300                                                                 
     0     -7.4578696     23  2.300                                                                 
     1     -3.8952261     23  2.300                                                                 
     1      6.1178114     23  2.300                                                                 
     2     -4.0817478     23  2.300                                                                 
     3     -1.3605826      7  2.300                                                                 
  local pseudopotential read in
  partial core-charges read in
  partial kinetic energy density read in
  atomic valenz-charges read in
  non local Contribution for L=            0  read in
    real space projection operators read in
  non local Contribution for L=            0  read in
    real space projection operators read in
  non local Contribution for L=            1  read in
    real space projection operators read in
  non local Contribution for L=            1  read in
    real space projection operators read in
  non local Contribution for L=            2  read in
    real space projection operators read in
    PAW grid and wavefunctions read in
 
   number of l-projection  operators is LMAX  =            5
   number of lm-projection operators is LMMAX =           13
 
 POTCAR:    PAW_PBE Se 06Sep2000                  
   VRHFIN =Se: s2p4                                                                                 
   LEXCH  = PE                                                                                      
   EATOM  =   257.1286 eV,   18.8984 Ry                                                             
                                                                                                    
   TITEL  = PAW_PBE Se 06Sep2000                                                                    
   LULTRA =        F    use ultrasoft PP ?                                                          
   IUNSCR =        1    unscreen: 0-lin 1-nonlin 2-no                                               
   RPACOR =    1.900    partial core radius                                                         
   POMASS =   78.960; ZVAL   =    6.000    mass and valenz                                          
   RCORE  =    2.100    outmost cutoff radius                                                       
   RWIGS  =    2.200; RWIGS  =    1.164    wigner-seitz radius (au A)                               
   ENMAX  =  211.555; ENMIN  =  158.666 eV                                                          
   ICORE  =        3    local potential                                                             
   LCOR   =        T    correct aug charges                                                         
   LPAW   =        T    paw PP                                                                      
   EAUG   =  446.842                                                                                
   DEXC   =    0.000                                                                                
   RMAX   =    2.147    core radius for proj-oper                                                   
   RAUG   =    1.300    factor for augmentation sphere                                              
   RDEP   =    2.177    radius for radial grids                                                     
   RDEPT  =    1.928    core radius for aug-charge                                                  
                                                                                                    
   Atomic configuration                                                                             
   10 entries                                                                                       
     n  l   j            E        occ.                                                              
     1  0  0.50    -12503.4787   2.0000                                                             
     2  0  0.50     -1606.9547   2.0000                                                             
     2  1  1.50     -1413.3140   6.0000                                                             
     3  0  0.50      -213.4885   2.0000                                                             
     3  1  1.50      -152.9538   6.0000                                                             
     3  2  2.50       -53.1221  10.0000                                                             
     4  0  0.50       -17.2865   2.0000                                                             
     4  1  0.50        -6.5110   4.0000                                                             
     4  2  2.50        -6.8029   0.0000                                                             
     4  3  2.50        -6.8029   0.0000                                                             
   Description                                                                                      
     l       E           TYP  RCUT    TYP  RCUT                                                     
     0    -17.2865377     23  2.100                                                                 
     0    -15.3094411     23  2.100                                                                 
     1     -6.5110275     23  2.100                                                                 
     1     -0.0695192     23  2.100                                                                 
     2     -6.8029130     23  2.100                                                                 
     3     -1.3605826      7  2.100                                                                 
  local pseudopotential read in
  partial core-charges read in
  partial kinetic energy density read in
  atomic valenz-charges read in
  non local Contribution for L=            0  read in
    real space projection operators read in
  non local Contribution for L=            0  read in
    real space projection operators read in
  non local Contribution for L=            1  read in
    real space projection operators read in
  non local Contribution for L=            1  read in
    real space projection operators read in
  non local Contribution for L=            2  read in
    real space projection operators read in
    PAW grid and wavefunctions read in
 
   number of l-projection  operators is LMAX  =            5
   number of lm-projection operators is LMMAX =           13
 
  PAW_PBE Ge 05Jan2001                  :
 energy of atom  1       EATOM= -104.9960
 kinetic energy error for atom=    0.0005 (will be added to EATOM!!)
  PAW_PBE Se 06Sep2000                  :
 energy of atom  2       EATOM= -257.1286
 kinetic energy error for atom=    0.0030 (will be added to EATOM!!)
 
 
 POSCAR: Ge Se
  positions in cartesian coordinates
  No initial velocities read in
 exchange correlation table for  LEXCH =        8
   RHO(1)=    0.500       N(1)  =     2000
   RHO(2)=  100.500       N(2)  =     4000
 


--------------------------------------------------------------------------------------------------------


 ion  position               nearest neighbor table
   1  0.000  0.250  0.121-   5 2.61   6 2.70   6 2.70   6 2.70   6 2.70
   2  0.500  0.750  0.379-   6 2.61   5 2.70   5 2.70   5 2.70   5 2.70
   3  0.000  0.750  0.879-   7 2.61   8 2.70   8 2.70   8 2.70   8 2.70
   4  0.500  0.250  0.621-   8 2.61   7 2.70   7 2.70   7 2.70   7 2.70
   5  0.000  0.250  0.355-   1 2.61   2 2.70   2 2.70   2 2.70   2 2.70
   6  0.500  0.750  0.145-   2 2.61   1 2.70   1 2.70   1 2.70   1 2.70
   7  0.000  0.750  0.645-   3 2.61   4 2.70   4 2.70   4 2.70   4 2.70
   8  0.500  0.250  0.855-   4 2.61   3 2.70   3 2.70   3 2.70   3 2.70
 

IMPORTANT INFORMATION: All symmetrisations will be switched off!
NOSYMM: (Re-)initialisation of all symmetry stuff for point group C_1.


----------------------------------------------------------------------------------------

                                     Primitive cell                                     

  volume of cell :     160.8937

  direct lattice vectors                    reciprocal lattice vectors
     3.800000000  0.000000000  0.000000000     0.263157895  0.000000000  0.000000000
     0.000000000  3.800000000  0.000000000     0.000000000  0.263157895  0.000000000
     0.000000000  0.000000000 11.142221000     0.000000000  0.000000000  0.089748713

  length of vectors
     3.800000000  3.800000000 11.142221000     0.263157895  0.263157895  0.089748713

  position of ions in fractional coordinates (direct lattice)
     0.000000000  0.250000000  0.121017995
     0.500000000  0.750000000  0.378982005
     0.000000000  0.750000000  0.878982005
     0.500000000  0.250000000  0.621017995
     0.000000000  0.250000000  0.355391703
     0.500000000  0.750000000  0.144608297
     0.000000000  0.750000000  0.644608297
     0.500000000  0.250000000  0.855391703

  ion indices of the primitive-cell ions
   primitive index   ion index
                 1           1
                 2           2
                 3           3
                 4           4
                 5           5
                 6           6
                 7           7
                 8           8

----------------------------------------------------------------------------------------

 
 
 KPOINTS: KPOINTS created by Atomic Simulation Env

Automatic generation of k-mesh.
 Grid dimensions read from file:
 generate k-points for:    6    6    2

 Generating k-lattice:

  Cartesian coordinates                     Fractional coordinates (reciprocal lattice)
     0.043859649  0.000000000  0.000000000     0.166666667  0.000000000  0.000000000
     0.000000000  0.043859649  0.000000000     0.000000000  0.166666667  0.000000000
     0.000000000  0.000000000  0.044874357     0.000000000  0.000000000  0.500000000

  Length of vectors
     0.043859649  0.043859649  0.044874357

  Shift w.r.t. Gamma in fractional coordinates (k-lattice)
     0.000000000  0.000000000  0.000000000

 
 Subroutine IBZKPT returns following result:
 ===========================================
 
 Found     40 irreducible k-points:
 
 Following reciprocal coordinates:
            Coordinates               Weight
  0.000000  0.000000  0.000000      1.000000
  0.166667  0.000000  0.000000      2.000000
  0.000000  0.166667  0.000000      2.000000
  0.333333  0.000000  0.000000      2.000000
  0.000000  0.333333  0.000000      2.000000
  0.500000  0.000000  0.000000      1.000000
  0.000000  0.500000  0.000000      1.000000
  0.166667  0.166667  0.000000      2.000000
 -0.166667  0.166667  0.000000      2.000000
  0.333333  0.166667  0.000000      2.000000
 -0.166667  0.333333  0.000000      2.000000
 -0.333333  0.166667  0.000000      2.000000
  0.166667  0.333333  0.000000      2.000000
  0.500000  0.166667  0.000000      2.000000
 -0.166667  0.500000  0.000000      2.000000
  0.333333  0.333333  0.000000      2.000000
 -0.333333  0.333333  0.000000      2.000000
  0.500000  0.333333  0.000000      2.000000
 -0.333333  0.500000  0.000000      2.000000
  0.500000  0.500000  0.000000      1.000000
  0.000000  0.000000  0.500000      1.000000
  0.166667  0.000000  0.500000      2.000000
  0.000000  0.166667  0.500000      2.000000
  0.333333  0.000000  0.500000      2.000000
  0.000000  0.333333  0.500000      2.000000
  0.500000  0.000000  0.500000      1.000000
  0.000000  0.500000  0.500000      1.000000
  0.166667  0.166667  0.500000      2.000000
 -0.166667  0.166667  0.500000      2.000000
  0.333333  0.166667  0.500000      2.000000
 -0.166667  0.333333  0.500000      2.000000
 -0.333333  0.166667  0.500000      2.000000
  0.166667  0.333333  0.500000      2.000000
  0.500000  0.166667  0.500000      2.000000
 -0.166667  0.500000  0.500000      2.000000
  0.333333  0.333333  0.500000      2.000000
 -0.333333  0.333333  0.500000      2.000000
  0.500000  0.333333  0.500000      2.000000
 -0.333333  0.500000  0.500000      2.000000
  0.500000  0.500000  0.500000      1.000000
 
 Following cartesian coordinates:
            Coordinates               Weight
  0.000000  0.000000  0.000000      1.000000
  0.043860  0.000000  0.000000      2.000000
  0.000000  0.043860  0.000000      2.000000
  0.087719  0.000000  0.000000      2.000000
  0.000000  0.087719  0.000000      2.000000
  0.131579  0.000000  0.000000      1.000000
  0.000000  0.131579  0.000000      1.000000
  0.043860  0.043860  0.000000      2.000000
 -0.043860  0.043860  0.000000      2.000000
  0.087719  0.043860  0.000000      2.000000
 -0.043860  0.087719  0.000000      2.000000
 -0.087719  0.043860  0.000000      2.000000
  0.043860  0.087719  0.000000      2.000000
  0.131579  0.043860  0.000000      2.000000
 -0.043860  0.131579  0.000000      2.000000
  0.087719  0.087719  0.000000      2.000000
 -0.087719  0.087719  0.000000      2.000000
  0.131579  0.087719  0.000000      2.000000
 -0.087719  0.131579  0.000000      2.000000
  0.131579  0.131579  0.000000      1.000000
  0.000000  0.000000  0.044874      1.000000
  0.043860  0.000000  0.044874      2.000000
  0.000000  0.043860  0.044874      2.000000
  0.087719  0.000000  0.044874      2.000000
  0.000000  0.087719  0.044874      2.000000
  0.131579  0.000000  0.044874      1.000000
  0.000000  0.131579  0.044874      1.000000
  0.043860  0.043860  0.044874      2.000000
 -0.043860  0.043860  0.044874      2.000000
  0.087719  0.043860  0.044874      2.000000
 -0.043860  0.087719  0.044874      2.000000
 -0.087719  0.043860  0.044874      2.000000
  0.043860  0.087719  0.044874      2.000000
  0.131579  0.043860  0.044874      2.000000
 -0.043860  0.131579  0.044874      2.000000
  0.087719  0.087719  0.044874      2.000000
 -0.087719  0.087719  0.044874      2.000000
  0.131579  0.087719  0.044874      2.000000
 -0.087719  0.131579  0.044874      2.000000
  0.131579  0.131579  0.044874      1.000000
 


--------------------------------------------------------------------------------------------------------




 Dimension of arrays:
   k-points           NKPTS =     40   k-points in BZ     NKDIM =     40   number of bands    NBANDS=     32
   number of dos      NEDOS =    301   number of ions     NIONS =      8
   non local maximal  LDIM  =      5   non local SUM 2l+1 LMDIM =     13
   total plane-waves  NPLWV =  17496
   max r-space proj   IRMAX =      1   max aug-charges    IRDMAX=   6109
   dimension x,y,z NGX =    18 NGY =   18 NGZ =   54
   dimension x,y,z NGXF=    36 NGYF=   36 NGZF=  108
   support grid    NGXF=    36 NGYF=   36 NGZF=  108
   ions per type =               4   4
   NGX,Y,Z   is equivalent  to a cutoff of   7.87,  7.87,  8.06 a.u.
   NGXF,Y,Z  is equivalent  to a cutoff of  15.75, 15.75, 16.11 a.u.

 SYSTEM =  ./                                      
 POSCAR =  Ge Se                                   

 Startparameter for this run:
   NWRITE =      2    write-flag & timer
   PREC   = normal    normal or accurate (medium, high low for compatibility)
   ISTART =      0    job   : 0-new  1-cont  2-samecut
   ICHARG =      2    charge: 1-file 2-atom 10-const
   ISPIN  =      1    spin polarized calculation?
   LNONCOLLINEAR =      F non collinear calculations
   LSORBIT =      F    spin-orbit coupling
   INIWAV =      1    electr: 0-lowe 1-rand  2-diag
   LASPH  =      T    aspherical Exc in radial PAW
 Electronic Relaxation 1
   ENCUT  =  360.0 eV  26.46 Ry    5.14 a.u.   5.88  5.88 17.24*2*pi/ulx,y,z
   ENINI  =  360.0     initial cutoff
   ENAUG  =  446.8 eV  augmentation charge cutoff
   NELM   =    100;   NELMIN=  2; NELMDL= -5     # of ELM steps 
   EDIFF  = 0.1E-05   stopping-criterion for ELM
   LREAL  =      F    real-space projection
   NLSPLINE    = F    spline interpolate recip. space projectors
   LCOMPAT=      F    compatible to vasp.4.4
   GGA_COMPAT  = T    GGA compatible to vasp.4.4-vasp.4.6
   LMAXPAW     = -100 max onsite density
   LMAXMIX     =    4 max onsite mixed and CHGCAR
   VOSKOWN=      0    Vosko Wilk Nusair interpolation
   ROPT   =    0.00000   0.00000
 Ionic relaxation
   EDIFFG = 0.1E-04   stopping-criterion for IOM
   NSW    =      0    number of steps for IOM
   NBLOCK =      1;   KBLOCK =      1    inner block; outer block 
   IBRION =     -1    ionic relax: 0-MD 1-quasi-New 2-CG
   NFREE  =      0    steps in history (QN), initial steepest desc. (CG)
   ISIF   =      2    stress and relaxation
   IWAVPR =     10    prediction:  0-non 1-charg 2-wave 3-comb
   ISYM   =      0    0-nonsym 1-usesym 2-fastsym
   LCORR  =      T    Harris-Foulkes like correction to forces

   POTIM  = 0.5000    time-step for ionic-motion
   TEIN   =    0.0    initial temperature
   TEBEG  =    0.0;   TEEND  =   0.0 temperature during run
   SMASS  =  -3.00    Nose mass-parameter (am)
   estimated Nose-frequenzy (Omega)   =  0.10E-29 period in steps = 0.13E+47 mass=  -0.330E-27a.u.
   SCALEE = 1.0000    scale energy and forces
   NPACO  =    256;   APACO  = 10.0  distance and # of slots for P.C.
   PSTRESS=    0.0 pullay stress

  Mass of Ions in am
   POMASS =  72.61 78.96
  Ionic Valenz
   ZVAL   =   4.00  6.00
  Atomic Wigner-Seitz radii
   RWIGS  =  -1.00 -1.00
  virtual crystal weights 
   VCA    =   1.00  1.00
   NELECT =      40.0000    total number of electrons
   NUPDOWN=      -1.0000    fix difference up-down

 DOS related values:
   EMIN   =  10.00;   EMAX   =-10.00  energy-range for DOS
   EFERMI =   0.00;   METHOD = LEGACY      
   ISMEAR =     0;   SIGMA  =   0.05  broadening in eV -4-tet -1-fermi 0-gaus

 Electronic relaxation 2 (details)
   IALGO  =     38    algorithm
   LDIAG  =      T    sub-space diagonalisation (order eigenvalues)
   LSUBROT=      F    optimize rotation matrix (better conditioning)
   TURBO    =      0    0=normal 1=particle mesh
   IRESTART =      0    0=no restart 2=restart with 2 vectors
   NREBOOT  =      0    no. of reboots
   NMIN     =      0    reboot dimension
   EREF     =   0.00    reference energy to select bands
   IMIX   =      4    mixing-type and parameters
     AMIX     =   0.40;   BMIX     =  1.00
     AMIX_MAG =   1.60;   BMIX_MAG =  1.00
     AMIN     =   0.10
     WC   =   100.;   INIMIX=   1;  MIXPRE=   1;  MAXMIX= -45

 Intra band minimization:
   WEIMIN = 0.0000     energy-eigenvalue tresh-hold
   EBREAK =  0.78E-08  absolut break condition
   DEPER  =   0.30     relativ break condition  

   TIME   =   0.40     timestep for ELM

  volume/ion in A,a.u.               =      20.11       135.72
  Fermi-wavevector in a.u.,A,eV,Ry     =   1.029394  1.945274 14.417455  1.059653
  Thomas-Fermi vector in A             =   2.163440
 
 Write flags
   LWAVE        =      F    write WAVECAR
   LDOWNSAMPLE  =      F    k-point downsampling of WAVECAR
   LCHARG       =      F    write CHGCAR
   LVTOT        =      F    write LOCPOT, total local potential
   LVHAR        =      F    write LOCPOT, Hartree potential only
   LELF         =      F    write electronic localiz. function (ELF)
   LORBIT       =      0    0 simple, 1 ext, 2 COOP (PROOUT), +10 PAW based schemes


 Dipole corrections
   LMONO  =      F    monopole corrections only (constant potential shift)
   LDIPOL =      F    correct potential (dipole corrections)
   IDIPOL =      0    1-x, 2-y, 3-z, 4-all directions 
   EPSILON=  1.0000000 bulk dielectric constant

 Exchange correlation treatment:
   GGA     =    PE    GGA type
   LEXCH   =     8    internal setting for exchange type
   LIBXC   =     F    Libxc                    
   VOSKOWN =     0    Vosko Wilk Nusair interpolation
   LHFCALC =     F    Hartree Fock is set to
   LHFONE  =     F    Hartree Fock one center treatment
   AEXX    =    0.0000 exact exchange contribution

 Linear response parameters
   LEPSILON=     F    determine dielectric tensor
   LRPA    =     F    only Hartree local field effects (RPA)
   LNABLA  =     F    use nabla operator in PAW spheres
   LVEL    =     F    velocity operator in full k-point grid
   CSHIFT  =0.1000    complex shift for real part using Kramers Kronig
   OMEGAMAX=  -1.0    maximum frequency
   DEG_THRESHOLD= 0.2000000E-02 threshold for treating states as degnerate
   RTIME   =   -0.100 relaxation time in fs
  (WPLASMAI=    0.000 imaginary part of plasma frequency in eV, 0.658/RTIME)
   DFIELD  = 0.0000000 0.0000000 0.0000000 field for delta impulse in time
 
  Optional k-point grid parameters
   LKPOINTS_OPT  =     F    use optional k-point grid
   KPOINTS_OPT_MODE=     1    mode for optional k-point grid
 
 Orbital magnetization related:
   ORBITALMAG=     F  switch on orbital magnetization
   LCHIMAG   =     F  perturbation theory with respect to B field
   DQ        =  0.001000  dq finite difference perturbation B field
   LLRAUG    =     F  two centre corrections for induced B field
   LBONE     =     F  B-component reconstruction in AE one-centre
   LVGVCALC  =     T  calculate vGv susceptibility
   LVGVAPPL  =     F  apply vGv susceptibility instead of pGv for G=0

 Random number generation:
   RANDOM_GENERATOR = DEFAULT
   PCG_SEED         = not used


--------------------------------------------------------------------------------------------------------


 Static calculation
 charge density and potential will be updated during run
 non-spin polarized calculation
 Variant of blocked Davidson
 Davidson routine will perform the subspace rotation
 perform sub-space diagonalisation
    after iterative eigenvector-optimisation
 modified Broyden-mixing scheme, WC =      100.0
 initial mixing is a Kerker type mixing with AMIX =  0.4000 and BMIX =      1.0000
 Hartree-type preconditioning will be used
 using additional bands            12
 reciprocal scheme for non local part
 use partial core corrections
 calculate Harris-corrections to forces 
   (improved forces if not selfconsistent)
 use gradient corrections 
 use of overlap-Matrix (Vanderbilt PP)
 Gauss-broadening in eV      SIGMA  =   0.05


--------------------------------------------------------------------------------------------------------


  energy-cutoff  :      360.00
  volume of cell :      160.89
      direct lattice vectors                 reciprocal lattice vectors
     3.800000000  0.000000000  0.000000000     0.263157895  0.000000000  0.000000000
     0.000000000  3.800000000  0.000000000     0.000000000  0.263157895  0.000000000
     0.000000000  0.000000000 11.142221000     0.000000000  0.000000000  0.089748713

  length of vectors
     3.800000000  3.800000000 11.142221000     0.263157895  0.263157895  0.089748713


 
 k-points in units of 2pi/SCALE and weight: KPOINTS created by Atomic Simulation Env
   0.00000000  0.00000000  0.00000000       0.014
   0.04385965  0.00000000  0.00000000       0.028
   0.00000000  0.04385965  0.00000000       0.028
   0.08771930  0.00000000  0.00000000       0.028
   0.00000000  0.08771930  0.00000000       0.028
   0.13157895  0.00000000  0.00000000       0.014
   0.00000000  0.13157895  0.00000000       0.014
   0.04385965  0.04385965  0.00000000       0.028
  -0.04385965  0.04385965  0.00000000       0.028
   0.08771930  0.04385965  0.00000000       0.028
  -0.04385965  0.08771930  0.00000000       0.028
  -0.08771930  0.04385965  0.00000000       0.028
   0.04385965  0.08771930  0.00000000       0.028
   0.13157895  0.04385965  0.00000000       0.028
  -0.04385965  0.13157895  0.00000000       0.028
   0.08771930  0.08771930  0.00000000       0.028
  -0.08771930  0.08771930  0.00000000       0.028
   0.13157895  0.08771930  0.00000000       0.028
  -0.08771930  0.13157895  0.00000000       0.028
   0.13157895  0.13157895  0.00000000       0.014
   0.00000000  0.00000000  0.04487436       0.014
   0.04385965  0.00000000  0.04487436       0.028
   0.00000000  0.04385965  0.04487436       0.028
   0.08771930  0.00000000  0.04487436       0.028
   0.00000000  0.08771930  0.04487436       0.028
   0.13157895  0.00000000  0.04487436       0.014
   0.00000000  0.13157895  0.04487436       0.014
   0.04385965  0.04385965  0.04487436       0.028
  -0.04385965  0.04385965  0.04487436       0.028
   0.08771930  0.04385965  0.04487436       0.028
  -0.04385965  0.08771930  0.04487436       0.028
  -0.08771930  0.04385965  0.04487436       0.028
   0.04385965  0.08771930  0.04487436       0.028
   0.13157895  0.04385965  0.04487436       0.028
  -0.04385965  0.13157895  0.04487436       0.028
   0.08771930  0.08771930  0.04487436       0.028
  -0.08771930  0.08771930  0.04487436       0.028
   0.13157895  0.08771930  0.04487436       0.028
  -0.08771930  0.13157895  0.04487436       0.028
   0.13157895  0.13157895  0.04487436       0.014
 
 k-points in reciprocal lattice and weights: KPOINTS created by Atomic Simulation Env
   0.00000000  0.00000000  0.00000000       0.014
   0.16666667  0.00000000  0.00000000       0.028
   0.00000000  0.16666667  0.00000000       0.028
   0.33333333  0.00000000  0.00000000       0.028
   0.00000000  0.33333333  0.00000000       0.028
   0.50000000  0.00000000  0.00000000       0.014
   0.00000000  0.50000000  0.00000000       0.014
   0.16666667  0.16666667  0.00000000       0.028
  -0.16666667  0.16666667  0.00000000       0.028
   0.33333333  0.16666667  0.00000000       0.028
  -0.16666667  0.33333333  0.00000000       0.028
  -0.33333333  0.16666667  0.00000000       0.028
   0.16666667  0.33333333  0.00000000       0.028
   0.50000000  0.16666667  0.00000000       0.028
  -0.16666667  0.50000000  0.00000000       0.028
   0.33333333  0.33333333  0.00000000       0.028
  -0.33333333  0.33333333  0.00000000       0.028
   0.50000000  0.33333333  0.00000000       0.028
  -0.33333333  0.50000000  0.00000000       0.028
   0.50000000  0.50000000  0.00000000       0.014
   0.00000000  0.00000000  0.50000000       0.014
   0.16666667  0.00000000  0.50000000       0.028
   0.00000000  0.16666667  0.50000000       0.028
   0.33333333  0.00000000  0.50000000       0.028
   0.00000000  0.33333333  0.50000000       0.028
   0.50000000  0.00000000  0.50000000       0.014
   0.00000000  0.50000000  0.50000000       0.014
   0.16666667  0.16666667  0.50000000       0.028
  -0.16666667  0.16666667  0.50000000       0.028
   0.33333333  0.16666667  0.50000000       0.028
  -0.16666667  0.33333333  0.50000000       0.028
  -0.33333333  0.16666667  0.50000000       0.028
   0.16666667  0.33333333  0.50000000       0.028
   0.50000000  0.16666667  0.50000000       0.028
  -0.16666667  0.50000000  0.50000000       0.028
   0.33333333  0.33333333  0.50000000       0.028
  -0.33333333  0.33333333  0.50000000       0.028
   0.50000000  0.33333333  0.50000000       0.028
  -0.33333333  0.50000000  0.50000000       0.028
   0.50000000  0.50000000  0.50000000       0.014
 
 position of ions in fractional coordinates (direct lattice) 
   0.00000000  0.25000000  0.12101800
   0.50000000  0.75000000  0.37898200
   0.00000000  0.75000000  0.87898200
   0.50000000  0.25000000  0.62101800
   0.00000000  0.25000000  0.35539170
   0.50000000  0.75000000  0.14460830
   0.00000000  0.75000000  0.64460830
   0.50000000  0.25000000  0.85539170
 
 position of ions in cartesian coordinates  (Angst):
   0.00000000  0.95000000  1.34840925
   1.90000000  2.85000000  4.22270125
   0.00000000  2.85000000  9.79381175
   1.90000000  0.95000000  6.91951975
   0.00000000  0.95000000  3.95985289
   1.90000000  2.85000000  1.61125761
   0.00000000  2.85000000  7.18236811
   1.90000000  0.95000000  9.53096339
 


--------------------------------------------------------------------------------------------------------


 k-point   1 :   0.0000 0.0000 0.0000  plane waves:    2487
 k-point   2 :   0.1667 0.0000 0.0000  plane waves:    2480
 k-point   3 :   0.0000 0.1667 0.0000  plane waves:    2480
 k-point   4 :   0.3333 0.0000 0.0000  plane waves:    2496
 k-point   5 :   0.0000 0.3333 0.0000  plane waves:    2496
 k-point   6 :   0.5000 0.0000 0.0000  plane waves:    2484
 k-point   7 :   0.0000 0.5000 0.0000  plane waves:    2484
 k-point   8 :   0.1667 0.1667 0.0000  plane waves:    2492
 k-point   9 :  -0.1667 0.1667 0.0000  plane waves:    2492
 k-point  10 :   0.3333 0.1667 0.0000  plane waves:    2498
 k-point  11 :  -0.1667 0.3333 0.0000  plane waves:    2498
 k-point  12 :  -0.3333 0.1667 0.0000  plane waves:    2498
 k-point  13 :   0.1667 0.3333 0.0000  plane waves:    2498
 k-point  14 :   0.5000 0.1667 0.0000  plane waves:    2500
 k-point  15 :  -0.1667 0.5000 0.0000  plane waves:    2500
 k-point  16 :   0.3333 0.3333 0.0000  plane waves:    2506
 k-point  17 :  -0.3333 0.3333 0.0000  plane waves:    2506
 k-point  18 :   0.5000 0.3333 0.0000  plane waves:    2512
 k-point  19 :  -0.3333 0.5000 0.0000  plane waves:    2512
 k-point  20 :   0.5000 0.5000 0.0000  plane waves:    2520
 k-point  21 :   0.0000 0.0000 0.5000  plane waves:    2506
 k-point  22 :   0.1667 0.0000 0.5000  plane waves:    2488
 k-point  23 :   0.0000 0.1667 0.5000  plane waves:    2488
 k-point  24 :   0.3333 0.0000 0.5000  plane waves:    2504
 k-point  25 :   0.0000 0.3333 0.5000  plane waves:    2504
 k-point  26 :   0.5000 0.0000 0.5000  plane waves:    2500
 k-point  27 :   0.0000 0.5000 0.5000  plane waves:    2500
 k-point  28 :   0.1667 0.1667 0.5000  plane waves:    2480
 k-point  29 :  -0.1667 0.1667 0.5000  plane waves:    2480
 k-point  30 :   0.3333 0.1667 0.5000  plane waves:    2494
 k-point  31 :  -0.1667 0.3333 0.5000  plane waves:    2494
 k-point  32 :  -0.3333 0.1667 0.5000  plane waves:    2494
 k-point  33 :   0.1667 0.3333 0.5000  plane waves:    2494
 k-point  34 :   0.5000 0.1667 0.5000  plane waves:    2496
 k-point  35 :  -0.1667 0.5000 0.5000  plane waves:    2496
 k-point  36 :   0.3333 0.3333 0.5000  plane waves:    2490
 k-point  37 :  -0.3333 0.3333 0.5000  plane waves:    2490
 k-point  38 :   0.5000 0.3333 0.5000  plane waves:    2516
 k-point  39 :  -0.3333 0.5000 0.5000  plane waves:    2516
 k-point  40 :   0.5000 0.5000 0.5000  plane waves:    2528

 maximum and minimum number of plane-waves per node :       646      592

 maximum number of plane-waves:      2528
 maximum index in each direction: 
   IXMAX=    6   IYMAX=    5   IZMAX=   17
   IXMIN=   -6   IYMIN=   -6   IZMIN=  -17


 parallel 3D FFT for wavefunctions:
    minimum data exchange during FFTs selected (reduces bandwidth)
 parallel 3D FFT for charge:
    minimum data exchange during FFTs selected (reduces bandwidth)


 total amount of memory used by VASP MPI-rank0    36982. kBytes
=======================================================================

   base      :      30000. kBytes
   nonl-proj :       5406. kBytes
   fftplans  :        284. kBytes
   grid      :        416. kBytes
   one-center:         16. kBytes
   wavefun   :        860. kBytes
 
     INWAV:  cpu time      0.0000: real time      0.0001
 Broyden mixing: mesh for mixing (old mesh)
   NGX = 11   NGY = 11   NGZ = 35
  (NGX  = 36   NGY  = 36   NGZ  =108)
  gives a total of   4235 points

 initial charge density was supplied:
 charge density of overlapping atoms calculated
 number of electron      40.0000000 magnetization 
 keeping initial charge density in first step


--------------------------------------------------------------------------------------------------------


 Maximum index for augmentation-charges           387 (set IRDMAX)


--------------------------------------------------------------------------------------------------------


 First call to EWALD:  gamma=   0.326
 Maximum number of real-space cells 4x 4x 2
 Maximum number of reciprocal cells 2x 2x 5

    FEWALD:  cpu time      0.0008: real time      0.0008


--------------------------------------- Ionic step        1  -------------------------------------------




--------------------------------------- Iteration      1(   1)  ---------------------------------------


    POTLOK:  cpu time      0.0055: real time      0.0059
    SETDIJ:  cpu time      0.1387: real time      0.1392
     EDDAV:  cpu time      0.2612: real time      0.2642
       DOS:  cpu time      0.0016: real time      0.0017
    --------------------------------------------
      LOOP:  cpu time      0.4071: real time      0.4110

 eigenvalue-minimisations  :  2560
 total energy-change (2. order) : 0.1245484E+03  (-0.1318869E+04)
 number of electron      40.0000000 magnetization 
 augmentation part       40.0000000 magnetization 

 Free energy of the ion-electron system (eV)
  ---------------------------------------------------
  alpha Z        PSCENC =       105.31455532
  Ewald energy   TEWEN  =     -1533.89344312
  -Hartree energ DENC   =       -89.94699411
  -exchange      EXHF   =         0.00000000
  -V(xc)+E(xc)   XCENC  =       -30.93011626
  PAW double counting   =      1193.78262552    -1080.73714043
  entropy T*S    EENTRO =        -0.00298897
  eigenvalues    EBANDS =       112.47725851
  atomic energy  EATOM  =      1448.48460880
  Solvation  Ediel_sol  =         0.00000000
  ---------------------------------------------------
  free energy    TOTEN  =       124.54836525 eV

  energy without entropy =      124.55135422  energy(sigma->0) =      124.54985973


--------------------------------------------------------------------------------------------------------




--------------------------------------- Iteration      1(   2)  ---------------------------------------


     EDDAV:  cpu time      0.3192: real time      0.3227
       DOS:  cpu time      0.0011: real time      0.0011
    --------------------------------------------
      LOOP:  cpu time      0.3202: real time      0.3238

 eigenvalue-minimisations  :  3792
 total energy-change (2. order) :-0.1505027E+03  (-0.1461814E+03)
 number of electron      40.0000000 magnetization 
 augmentation part       40.0000000 magnetization 

 Free energy of the ion-electron system (eV)
  ---------------------------------------------------
  alpha Z        PSCENC =       105.31455532
  Ewald energy   TEWEN  =     -1533.89344312
  -Hartree energ DENC   =       -89.94699411
  -exchange      EXHF   =         0.00000000
  -V(xc)+E(xc)   XCENC  =       -30.93011626
  PAW double counting   =      1193.78262552    -1080.73714043
  entropy T*S    EENTRO =        -0.00213414
  eigenvalues    EBANDS =       -38.02631423
  atomic energy  EATOM  =      1448.48460880
  Solvation  Ediel_sol  =         0.00000000
  ---------------------------------------------------
  free energy    TOTEN  =       -25.95435266 eV

  energy without entropy =      -25.95221852  energy(sigma->0) =      -25.95328559


--------------------------------------------------------------------------------------------------------




--------------------------------------- Iteration      1(   3)  ---------------------------------------


     EDDAV:  cpu time      0.3019: real time      0.3051
       DOS:  cpu time      0.0010: real time      0.0010
    --------------------------------------------
      LOOP:  cpu time      0.3029: real time      0.3061

 eigenvalue-minimisations  :  3344
 total energy-change (2. order) :-0.7118276E+01  (-0.7105230E+01)
 number of electron      40.0000000 magnetization 
 augmentation part       40.0000000 magnetization 

 Free energy of the ion-electron system (eV)
  ---------------------------------------------------
  alpha Z        PSCENC =       105.31455532
  Ewald energy   TEWEN  =     -1533.89344312
  -Hartree energ DENC   =       -89.94699411
  -exchange      EXHF   =         0.00000000
  -V(xc)+E(xc)   XCENC  =       -30.93011626
  PAW double counting   =      1193.78262552    -1080.73714043
  entropy T*S    EENTRO =        -0.00195898
  eigenvalues    EBANDS =       -45.14476536
  atomic energy  EATOM  =      1448.48460880
  Solvation  Ediel_sol  =         0.00000000
  ---------------------------------------------------
  free energy    TOTEN  =       -33.07262863 eV

  energy without entropy =      -33.07066965  energy(sigma->0) =      -33.07164914


--------------------------------------------------------------------------------------------------------




--------------------------------------- Iteration      1(   4)  ---------------------------------------


     EDDAV:  cpu time      0.2819: real time      0.2850
       DOS:  cpu time      0.0010: real time      0.0010
    --------------------------------------------
      LOOP:  cpu time      0.2830: real time      0.2860

 eigenvalue-minimisations  :  3152
 total energy-change (2. order) :-0.3811509E-01  (-0.3810535E-01)
 number of electron      40.0000000 magnetization 
 augmentation part       40.0000000 magnetization 

 Free energy of the ion-electron system (eV)
  ---------------------------------------------------
  alpha Z        PSCENC =       105.31455532
  Ewald energy   TEWEN  =     -1533.89344312
  -Hartree energ DENC   =       -89.94699411
  -exchange      EXHF   =         0.00000000
  -V(xc)+E(xc)   XCENC  =       -30.93011626
  PAW double counting   =      1193.78262552    -1080.73714043
  entropy T*S    EENTRO =        -0.00195160
  eigenvalues    EBANDS =       -45.18288783
  atomic energy  EATOM  =      1448.48460880
  Solvation  Ediel_sol  =         0.00000000
  ---------------------------------------------------
  free energy    TOTEN  =       -33.11074371 eV

  energy without entropy =      -33.10879212  energy(sigma->0) =      -33.10976792


--------------------------------------------------------------------------------------------------------




--------------------------------------- Iteration      1(   5)  ---------------------------------------


     EDDAV:  cpu time      0.2925: real time      0.2958
       DOS:  cpu time      0.0010: real time      0.0010
    CHARGE:  cpu time      0.0037: real time      0.0037
    MIXING:  cpu time      0.0006: real time      0.0006
    --------------------------------------------
      LOOP:  cpu time      0.2978: real time      0.3012

 eigenvalue-minimisations  :  3312
 total energy-change (2. order) :-0.2298411E-03  (-0.2298332E-03)
 number of electron      39.9999914 magnetization 
 augmentation part       -7.4086822 magnetization 

 Broyden mixing:
  rms(total) = 0.72338E+00    rms(broyden)= 0.72337E+00
  rms(prec ) = 0.77604E+00
  weight for this iteration     100.00

 Free energy of the ion-electron system (eV)
  ---------------------------------------------------
  alpha Z        PSCENC =       105.31455532
  Ewald energy   TEWEN  =     -1533.89344312
  -Hartree energ DENC   =       -89.94699411
  -exchange      EXHF   =         0.00000000
  -V(xc)+E(xc)   XCENC  =       -30.93011626
  PAW double counting   =      1193.78262552    -1080.73714043
  entropy T*S    EENTRO =        -0.00195159
  eigenvalues    EBANDS =       -45.18311768
  atomic energy  EATOM  =      1448.48460880
  Solvation  Ediel_sol  =         0.00000000
  ---------------------------------------------------
  free energy    TOTEN  =       -33.11097355 eV

  energy without entropy =      -33.10902197  energy(sigma->0) =      -33.10999776


--------------------------------------------------------------------------------------------------------




--------------------------------------- Iteration      1(   6)  ---------------------------------------


    POTLOK:  cpu time      0.0050: real time      0.0052
    SETDIJ:  cpu time      0.1374: real time      0.1381
     EDDAV:  cpu time      0.2894: real time      0.2923
       DOS:  cpu time      0.0019: real time      0.0019
    CHARGE:  cpu time      0.0040: real time      0.0041
    MIXING:  cpu time      0.0011: real time      0.0011
    --------------------------------------------
      LOOP:  cpu time      0.4388: real time      0.4427

 eigenvalue-minimisations  :  3296
 total energy-change (2. order) : 0.2853853E+00  (-0.5824226E-01)
 number of electron      39.9999915 magnetization 
 augmentation part       -7.3614932 magnetization 

 Broyden mixing:
  rms(total) = 0.44803E+00    rms(broyden)= 0.44803E+00
  rms(prec ) = 0.45970E+00
  weight for this iteration     100.00

 eigenvalues of (default mixing * dielectric matrix)
  average eigenvalue GAMMA=   2.3479
  2.3479

 Free energy of the ion-electron system (eV)
  ---------------------------------------------------
  alpha Z        PSCENC =       105.31455532
  Ewald energy   TEWEN  =     -1533.89344312
  -Hartree energ DENC   =       -94.29740598
  -exchange      EXHF   =         0.00000000
  -V(xc)+E(xc)   XCENC  =       -30.42322758
  PAW double counting   =      1504.12117014    -1391.44510323
  entropy T*S    EENTRO =        -0.00307871
  eigenvalues    EBANDS =       -40.68366387
  atomic energy  EATOM  =      1448.48460880
  Solvation  Ediel_sol  =         0.00000000
  ---------------------------------------------------
  free energy    TOTEN  =       -32.82558825 eV

  energy without entropy =      -32.82250953  energy(sigma->0) =      -32.82404889


--------------------------------------------------------------------------------------------------------




--------------------------------------- Iteration      1(   7)  ---------------------------------------


    POTLOK:  cpu time      0.0073: real time      0.0075
    SETDIJ:  cpu time      0.1370: real time      0.1378
     EDDAV:  cpu time      0.3065: real time      0.3098
       DOS:  cpu time      0.0010: real time      0.0010
    CHARGE:  cpu time      0.0034: real time      0.0035
    MIXING:  cpu time      0.0005: real time      0.0005
    --------------------------------------------
      LOOP:  cpu time      0.4557: real time      0.4600

 eigenvalue-minimisations  :  3488
 total energy-change (2. order) : 0.2148713E-02  (-0.2006578E-01)
 number of electron      39.9999916 magnetization 
 augmentation part       -7.3496024 magnetization 

 Broyden mixing:
  rms(total) = 0.10443E+00    rms(broyden)= 0.10443E+00
  rms(prec ) = 0.11146E+00
  weight for this iteration     100.00

 eigenvalues of (default mixing * dielectric matrix)
  average eigenvalue GAMMA=   1.8450
  1.2521  2.4378

 Free energy of the ion-electron system (eV)
  ---------------------------------------------------
  alpha Z        PSCENC =       105.31455532
  Ewald energy   TEWEN  =     -1533.89344312
  -Hartree energ DENC   =       -96.36536022
  -exchange      EXHF   =         0.00000000
  -V(xc)+E(xc)   XCENC  =       -29.97753753
  PAW double counting   =      1945.24435769    -1832.92823523
  entropy T*S    EENTRO =        -0.00305375
  eigenvalues    EBANDS =       -38.69933149
  atomic energy  EATOM  =      1448.48460880
  Solvation  Ediel_sol  =         0.00000000
  ---------------------------------------------------
  free energy    TOTEN  =       -32.82343953 eV

  energy without entropy =      -32.82038578  energy(sigma->0) =      -32.82191266


--------------------------------------------------------------------------------------------------------




--------------------------------------- Iteration      1(   8)  ---------------------------------------


    POTLOK:  cpu time      0.0048: real time      0.0050
    SETDIJ:  cpu time      0.1371: real time      0.1379
     EDDAV:  cpu time      0.2762: real time      0.2789
       DOS:  cpu time      0.0010: real time      0.0010
    CHARGE:  cpu time      0.0033: real time      0.0033
    MIXING:  cpu time      0.0005: real time      0.0005
    --------------------------------------------
      LOOP:  cpu time      0.4229: real time      0.4267

 eigenvalue-minimisations  :  3104
 total energy-change (2. order) : 0.3531085E-02  (-0.2596742E-02)
 number of electron      39.9999916 magnetization 
 augmentation part       -7.3596311 magnetization 

 Broyden mixing:
  rms(total) = 0.14655E-01    rms(broyden)= 0.14655E-01
  rms(prec ) = 0.16806E-01
  weight for this iteration     100.00

 eigenvalues of (default mixing * dielectric matrix)
  average eigenvalue GAMMA=   1.7958
  2.5213  1.4330  1.4330

 Free energy of the ion-electron system (eV)
  ---------------------------------------------------
  alpha Z        PSCENC =       105.31455532
  Ewald energy   TEWEN  =     -1533.89344312
  -Hartree energ DENC   =       -95.91917619
  -exchange      EXHF   =         0.00000000
  -V(xc)+E(xc)   XCENC  =       -29.91922134
  PAW double counting   =      2063.30971741    -1951.05284663
  entropy T*S    EENTRO =        -0.00287148
  eigenvalues    EBANDS =       -39.14123121
  atomic energy  EATOM  =      1448.48460880
  Solvation  Ediel_sol  =         0.00000000
  ---------------------------------------------------
  free energy    TOTEN  =       -32.81990845 eV

  energy without entropy =      -32.81703697  energy(sigma->0) =      -32.81847271


--------------------------------------------------------------------------------------------------------




--------------------------------------- Iteration      1(   9)  ---------------------------------------


    POTLOK:  cpu time      0.0047: real time      0.0049
    SETDIJ:  cpu time      0.1371: real time      0.1378
     EDDAV:  cpu time      0.2750: real time      0.2777
       DOS:  cpu time      0.0010: real time      0.0010
    CHARGE:  cpu time      0.0033: real time      0.0036
    MIXING:  cpu time      0.0005: real time      0.0005
    --------------------------------------------
      LOOP:  cpu time      0.4215: real time      0.4255

 eigenvalue-minimisations  :  3024
 total energy-change (2. order) :-0.2098230E-03  (-0.2261530E-03)
 number of electron      39.9999916 magnetization 
 augmentation part       -7.3589473 magnetization 

 Broyden mixing:
  rms(total) = 0.47589E-02    rms(broyden)= 0.47589E-02
  rms(prec ) = 0.51668E-02
  weight for this iteration     100.00

 eigenvalues of (default mixing * dielectric matrix)
  average eigenvalue GAMMA=   1.6417
  2.4022  1.0673  1.2382  1.8592

 Free energy of the ion-electron system (eV)
  ---------------------------------------------------
  alpha Z        PSCENC =       105.31455532
  Ewald energy   TEWEN  =     -1533.89344312
  -Hartree energ DENC   =       -96.11115249
  -exchange      EXHF   =         0.00000000
  -V(xc)+E(xc)   XCENC  =       -29.89483715
  PAW double counting   =      2072.27548720    -1960.02668887
  entropy T*S    EENTRO =        -0.00294224
  eigenvalues    EBANDS =       -38.96570571
  atomic energy  EATOM  =      1448.48460880
  Solvation  Ediel_sol  =         0.00000000
  ---------------------------------------------------
  free energy    TOTEN  =       -32.82011827 eV

  energy without entropy =      -32.81717603  energy(sigma->0) =      -32.81864715


--------------------------------------------------------------------------------------------------------




--------------------------------------- Iteration      1(  10)  ---------------------------------------


    POTLOK:  cpu time      0.0047: real time      0.0049
    SETDIJ:  cpu time      0.1370: real time      0.1377
     EDDAV:  cpu time      0.2800: real time      0.2824
       DOS:  cpu time      0.0008: real time      0.0008
    CHARGE:  cpu time      0.0030: real time      0.0031
    MIXING:  cpu time      0.0005: real time      0.0005
    --------------------------------------------
      LOOP:  cpu time      0.4260: real time      0.4293

 eigenvalue-minimisations  :  3296
 total energy-change (2. order) :-0.2205416E-04  (-0.6753761E-05)
 number of electron      39.9999916 magnetization 
 augmentation part       -7.3588911 magnetization 

 Broyden mixing:
  rms(total) = 0.21019E-02    rms(broyden)= 0.21019E-02
  rms(prec ) = 0.24452E-02
  weight for this iteration     100.00

 eigenvalues of (default mixing * dielectric matrix)
  average eigenvalue GAMMA=   1.7752
  2.7291  2.4281  1.1136  1.3026  1.3026

 Free energy of the ion-electron system (eV)
  ---------------------------------------------------
  alpha Z        PSCENC =       105.31455532
  Ewald energy   TEWEN  =     -1533.89344312
  -Hartree energ DENC   =       -96.12979214
  -exchange      EXHF   =         0.00000000
  -V(xc)+E(xc)   XCENC  =       -29.89292596
  PAW double counting   =      2068.09584168    -1955.84417097
  entropy T*S    EENTRO =        -0.00294604
  eigenvalues    EBANDS =       -38.95186789
  atomic energy  EATOM  =      1448.48460880
  Solvation  Ediel_sol  =         0.00000000
  ---------------------------------------------------
  free energy    TOTEN  =       -32.82014033 eV

  energy without entropy =      -32.81719428  energy(sigma->0) =      -32.81866730


--------------------------------------------------------------------------------------------------------




--------------------------------------- Iteration      1(  11)  ---------------------------------------


    POTLOK:  cpu time      0.0033: real time      0.0035
    SETDIJ:  cpu time      0.1383: real time      0.1387
     EDDAV:  cpu time      0.1817: real time      0.1826
       DOS:  cpu time      0.0006: real time      0.0006
    CHARGE:  cpu time      0.0028: real time      0.0028
    MIXING:  cpu time      0.0003: real time      0.0003
    --------------------------------------------
      LOOP:  cpu time      0.3270: real time      0.3284

 eigenvalue-minimisations  :  2864
 total energy-change (2. order) :-0.1418090E-04  (-0.2236436E-05)
 number of electron      39.9999916 magnetization 
 augmentation part       -7.3590036 magnetization 

 Broyden mixing:
  rms(total) = 0.68240E-03    rms(broyden)= 0.68239E-03
  rms(prec ) = 0.76966E-03
  weight for this iteration     100.00

 eigenvalues of (default mixing * dielectric matrix)
  average eigenvalue GAMMA=   1.6906
  2.7075  2.4648  1.6857  1.1997  1.1997  0.8862

 Free energy of the ion-electron system (eV)
  ---------------------------------------------------
  alpha Z        PSCENC =       105.31455532
  Ewald energy   TEWEN  =     -1533.89344312
  -Hartree energ DENC   =       -96.14695988
  -exchange      EXHF   =         0.00000000
  -V(xc)+E(xc)   XCENC  =       -29.88828724
  PAW double counting   =      2068.40294120    -1956.15100269
  entropy T*S    EENTRO =        -0.00294241
  eigenvalues    EBANDS =       -38.93962449
  atomic energy  EATOM  =      1448.48460880
  Solvation  Ediel_sol  =         0.00000000
  ---------------------------------------------------
  free energy    TOTEN  =       -32.82015451 eV

  energy without entropy =      -32.81721210  energy(sigma->0) =      -32.81868330


--------------------------------------------------------------------------------------------------------




--------------------------------------- Iteration      1(  12)  ---------------------------------------


    POTLOK:  cpu time      0.0032: real time      0.0033
    SETDIJ:  cpu time      0.1367: real time      0.1371
     EDDAV:  cpu time      0.1544: real time      0.1554
       DOS:  cpu time      0.0006: real time      0.0006
    --------------------------------------------
      LOOP:  cpu time      0.2949: real time      0.2965

 eigenvalue-minimisations  :  2336
 total energy-change (2. order) : 0.3593678E-06  (-0.1738600E-06)
 number of electron      39.9999916 magnetization 
 augmentation part       -7.3590036 magnetization 

 Free energy of the ion-electron system (eV)
  ---------------------------------------------------
  alpha Z        PSCENC =       105.31455532
  Ewald energy   TEWEN  =     -1533.89344312
  -Hartree energ DENC   =       -96.15344899
  -exchange      EXHF   =         0.00000000
  -V(xc)+E(xc)   XCENC  =       -29.88795089
  PAW double counting   =      2068.07143428    -1955.81936603
  entropy T*S    EENTRO =        -0.00294297
  eigenvalues    EBANDS =       -38.93360054
  atomic energy  EATOM  =      1448.48460880
  Solvation  Ediel_sol  =         0.00000000
  ---------------------------------------------------
  free energy    TOTEN  =       -32.82015415 eV

  energy without entropy =      -32.81721118  energy(sigma->0) =      -32.81868266


--------------------------------------------------------------------------------------------------------




 average (electrostatic) potential at core
  the test charge radii are     1.1631  1.0808
  (the norm of the test charge is              1.0000)
       1 -31.8395       2 -31.8395       3 -31.8395       4 -31.8395       5 -53.4277
       6 -53.4277       7 -53.4277       8 -53.4277
 
 
 
 E-fermi :   5.0477     XC(G=0): -10.1901     alpha+bet :-10.4917

 Fermi energy:         5.0476757873

 k-point     1 :       0.0000    0.0000    0.0000
  band No.  band energies     occupation 
      1     -10.1802      2.00000
      2      -9.7678      2.00000
      3      -8.7121      2.00000
      4      -7.9786      2.00000
      5      -2.5274      2.00000
      6      -1.6698      2.00000
      7      -1.4449      2.00000
      8       0.0721      2.00000
      9       0.0769      2.00000
     10       0.9610      2.00000
     11       0.9622      2.00000
     12       1.4405      2.00000
     13       1.4421      2.00000
     14       2.0068      2.00000
     15       2.2707      2.00000
     16       2.2737      2.00000
     17       3.0343      2.00000
     18       3.0409      2.00000
     19       3.9562      2.00000
     20       4.8855      2.00000
     21       5.1235      0.03202
     22       8.4060      0.00000
     23       8.6147      0.00000
     24       9.2680      0.00000
     25       9.3942      0.00000
     26       9.5832      0.00000
     27       9.6294      0.00000
     28      10.1413      0.00000
     29      10.2525      0.00000
     30      10.3834      0.00000
     31      10.7139      0.00000
     32      10.8119      0.00000

 k-point     2 :       0.1667    0.0000    0.0000
  band No.  band energies     occupation 
      1      -9.9594      2.00000
      2      -9.5573      2.00000
      3      -8.5592      2.00000
      4      -7.8866      2.00000
      5      -3.3791      2.00000
      6      -2.4604      2.00000
      7      -1.6432      2.00000
      8      -0.9153      2.00000
      9      -0.7896      2.00000
     10       1.2373      2.00000
     11       1.4561      2.00000
     12       1.7088      2.00000
     13       2.0259      2.00000
     14       2.0360      2.00000
     15       2.5218      2.00000
     16       3.2558      2.00000
     17       3.6052      2.00000
     18       3.6958      2.00000
     19       4.3560      2.00000
     20       4.4914      2.00000
     21       4.7632      2.00000
     22       8.1302      0.00000
     23       8.2526      0.00000
     24       8.8222      0.00000
     25       9.2027      0.00000
     26       9.3144      0.00000
     27       9.3700      0.00000
     28       9.4331      0.00000
     29       9.5670      0.00000
     30      10.0957      0.00000
     31      10.2535      0.00000
     32      10.6280      0.00000

 k-point     3 :       0.0000    0.1667    0.0000
  band No.  band energies     occupation 
      1      -9.9579      2.00000
      2      -9.5611      2.00000
      3      -8.5543      2.00000
      4      -7.9017      2.00000
      5      -3.1855      2.00000
      6      -2.6617      2.00000
      7      -1.3323      2.00000
      8      -1.3210      2.00000
      9      -0.6818      2.00000
     10       1.2360      2.00000
     11       1.7054      2.00000
     12       1.7218      2.00000
     13       1.7262      2.00000
     14       1.9949      2.00000
     15       2.5189      2.00000
     16       3.2421      2.00000
     17       3.5410      2.00000
     18       3.7895      2.00000
     19       4.2830      2.00000
     20       4.4308      2.00000
     21       5.0726      0.48103
     22       7.8287      0.00000
     23       8.5875      0.00000
     24       8.7046      0.00000
     25       8.8013      0.00000
     26       9.2709      0.00000
     27       9.5196      0.00000
     28       9.5804      0.00000
     29       9.8925      0.00000
     30      10.0241      0.00000
     31      10.0863      0.00000
     32      10.2407      0.00000

 k-point     4 :       0.3333    0.0000    0.0000
  band No.  band energies     occupation 
      1      -9.3439      2.00000
      2      -8.9738      2.00000
      3      -8.2948      2.00000
      4      -7.8137      2.00000
      5      -4.6001      2.00000
      6      -3.4952      2.00000
      7      -3.3892      2.00000
      8      -2.3295      2.00000
      9      -0.3193      2.00000
     10       1.8699      2.00000
     11       2.0239      2.00000
     12       2.4634      2.00000
     13       2.5359      2.00000
     14       3.0815      2.00000
     15       3.1228      2.00000
     16       3.5595      2.00000
     17       3.6995      2.00000
     18       4.3281      2.00000
     19       4.7465      2.00000
     20       5.2717      0.00000
     21       5.3588      0.00000
     22       6.2678      0.00000
     23       6.3193      0.00000
     24       6.7506      0.00000
     25       7.3517      0.00000
     26       7.4215      0.00000
     27       8.0575      0.00000
     28       8.5577      0.00000
     29       8.6133      0.00000
     30       8.9096      0.00000
     31      10.2540      0.00000
     32      11.0723      0.00000

 k-point     5 :       0.0000    0.3333    0.0000
  band No.  band energies     occupation 
      1      -9.3310      2.00000
      2      -8.9993      2.00000
      3      -8.2446      2.00000
      4      -7.9101      2.00000
      5      -4.2614      2.00000
      6      -3.7796      2.00000
      7      -3.1892      2.00000
      8      -2.5012      2.00000
      9      -0.3234      2.00000
     10       2.0037      2.00000
     11       2.0249      2.00000
     12       2.4467      2.00000
     13       2.5169      2.00000
     14       2.5505      2.00000
     15       3.1397      2.00000
     16       3.6192      2.00000
     17       4.0409      2.00000
     18       4.3321      2.00000
     19       4.4850      2.00000
     20       5.4612      0.00000
     21       5.4792      0.00000
     22       5.8524      0.00000
     23       6.8828      0.00000
     24       6.8832      0.00000
     25       7.2490      0.00000
     26       7.4887      0.00000
     27       7.6857      0.00000
     28       8.3878      0.00000
     29       8.5923      0.00000
     30       9.1941      0.00000
     31      10.0199      0.00000
     32      10.5933      0.00000

 k-point     6 :       0.5000    0.0000    0.0000
  band No.  band energies     occupation 
      1      -8.5722      2.00000
      2      -8.5722      2.00000
      3      -8.2282      2.00000
      4      -8.2282      2.00000
      5      -4.6562      2.00000
      6      -4.6562      2.00000
      7      -3.4571      2.00000
      8      -3.4571      2.00000
      9       0.8250      2.00000
     10       0.8250      2.00000
     11       3.0549      2.00000
     12       3.0549      2.00000
     13       3.2932      2.00000
     14       3.2932      2.00000
     15       3.4417      2.00000
     16       3.4417      2.00000
     17       4.4198      2.00000
     18       4.4198      2.00000
     19       4.6993      2.00000
     20       4.6993      2.00000
     21       5.9045      0.00000
     22       5.9045      0.00000
     23       6.3960      0.00000
     24       6.3960      0.00000
     25       6.6863      0.00000
     26       6.6863      0.00000
     27       7.1168      0.00000
     28       7.1168      0.00000
     29       7.2427      0.00000
     30       7.2427      0.00000
     31      10.8019      0.00000
     32      10.8019      0.00000

 k-point     7 :       0.0000    0.5000    0.0000
  band No.  band energies     occupation 
      1      -8.4826      2.00000
      2      -8.4826      2.00000
      3      -8.3597      2.00000
      4      -8.3597      2.00000
      5      -4.3844      2.00000
      6      -4.3844      2.00000
      7      -3.6667      2.00000
      8      -3.6667      2.00000
      9       0.8201      2.00000
     10       0.8201      2.00000
     11       3.1214      2.00000
     12       3.1214      2.00000
     13       3.2472      2.00000
     14       3.2472      2.00000
     15       3.3028      2.00000
     16       3.3028      2.00000
     17       4.1169      2.00000
     18       4.1169      2.00000
     19       5.0320      1.34265
     20       5.0320      1.34264
     21       6.1849      0.00000
     22       6.1849      0.00000
     23       6.2746      0.00000
     24       6.2746      0.00000
     25       6.6643      0.00000
     26       6.6643      0.00000
     27       6.8491      0.00000
     28       6.8491      0.00000
     29       7.4941      0.00000
     30       7.4941      0.00000
     31      10.3635      0.00000
     32      10.3635      0.00000

 k-point     8 :       0.1667    0.1667    0.0000
  band No.  band energies     occupation 
      1      -9.7428      2.00000
      2      -9.3576      2.00000
      3      -8.4106      2.00000
      4      -7.8162      2.00000
      5      -3.5726      2.00000
      6      -2.8159      2.00000
      7      -1.7531      2.00000
      8      -1.4911      2.00000
      9      -0.7373      2.00000
     10       0.2885      2.00000
     11       0.2886      2.00000
     12       1.8733      2.00000
     13       1.8889      2.00000
     14       2.2220      2.00000
     15       2.9075      2.00000
     16       3.3384      2.00000
     17       4.4911      2.00000
     18       4.5435      2.00000
     19       4.7466      2.00000
     20       4.7510      2.00000
     21       4.9389      1.99791
     22       6.6424      0.00000
     23       7.0654      0.00000
     24       7.2917      0.00000
     25       8.4348      0.00000
     26       9.1739      0.00000
     27       9.2323      0.00000
     28       9.4882      0.00000
     29      10.2636      0.00000
     30      10.2768      0.00000
     31      10.8283      0.00000
     32      10.9448      0.00000

 k-point     9 :      -0.1667    0.1667    0.0000
  band No.  band energies     occupation 
      1      -9.7428      2.00000
      2      -9.3576      2.00000
      3      -8.4106      2.00000
      4      -7.8162      2.00000
      5      -3.5726      2.00000
      6      -2.8159      2.00000
      7      -1.7531      2.00000
      8      -1.4911      2.00000
      9      -0.7373      2.00000
     10       0.2885      2.00000
     11       0.2886      2.00000
     12       1.8733      2.00000
     13       1.8889      2.00000
     14       2.2220      2.00000
     15       2.9075      2.00000
     16       3.3384      2.00000
     17       4.4911      2.00000
     18       4.5435      2.00000
     19       4.7466      2.00000
     20       4.7510      2.00000
     21       4.9389      1.99791
     22       6.6424      0.00000
     23       7.0654      0.00000
     24       7.2917      0.00000
     25       8.4348      0.00000
     26       9.1739      0.00000
     27       9.2323      0.00000
     28       9.4882      0.00000
     29      10.2636      0.00000
     30      10.2768      0.00000
     31      10.8283      0.00000
     32      10.9448      0.00000

 k-point    10 :       0.3333    0.1667    0.0000
  band No.  band energies     occupation 
      1      -9.1492      2.00000
      2      -8.7999      2.00000
      3      -8.1685      2.00000
      4      -7.7452      2.00000
      5      -4.4012      2.00000
      6      -3.3073      2.00000
      7      -3.2234      2.00000
      8      -2.3136      2.00000
      9      -0.1015      2.00000
     10       0.2303      2.00000
     11       0.3597      2.00000
     12       1.6193      2.00000
     13       2.1462      2.00000
     14       2.6459      2.00000
     15       2.7293      2.00000
     16       3.3053      2.00000
     17       3.6879      2.00000
     18       3.8666      2.00000
     19       4.3943      2.00000
     20       4.4705      2.00000
     21       5.4779      0.00000
     22       6.2720      0.00000
     23       7.2245      0.00000
     24       7.4743      0.00000
     25       7.5318      0.00000
     26       7.9345      0.00000
     27       9.2287      0.00000
     28       9.9531      0.00000
     29      10.2864      0.00000
     30      10.3505      0.00000
     31      10.3950      0.00000
     32      11.0390      0.00000

 k-point    11 :      -0.1667    0.3333    0.0000
  band No.  band energies     occupation 
      1      -9.1378      2.00000
      2      -8.8212      2.00000
      3      -8.1250      2.00000
      4      -7.8226      2.00000
      5      -4.1315      2.00000
      6      -3.5466      2.00000
      7      -3.0094      2.00000
      8      -2.5136      2.00000
      9      -0.1011      2.00000
     10       0.1658      2.00000
     11       0.4200      2.00000
     12       1.6186      2.00000
     13       2.0404      2.00000
     14       2.6475      2.00000
     15       2.7290      2.00000
     16       3.5440      2.00000
     17       3.6043      2.00000
     18       3.7178      2.00000
     19       4.3111      2.00000
     20       4.6263      2.00000
     21       5.4687      0.00000
     22       6.5532      0.00000
     23       7.0585      0.00000
     24       7.3620      0.00000
     25       7.4588      0.00000
     26       8.1069      0.00000
     27       9.2479      0.00000
     28       9.6140      0.00000
     29       9.9683      0.00000
     30      10.0916      0.00000
     31      10.5744      0.00000
     32      10.9367      0.00000

 k-point    12 :      -0.3333    0.1667    0.0000
  band No.  band energies     occupation 
      1      -9.1492      2.00000
      2      -8.7999      2.00000
      3      -8.1685      2.00000
      4      -7.7452      2.00000
      5      -4.4012      2.00000
      6      -3.3073      2.00000
      7      -3.2234      2.00000
      8      -2.3136      2.00000
      9      -0.1015      2.00000
     10       0.2303      2.00000
     11       0.3597      2.00000
     12       1.6193      2.00000
     13       2.1462      2.00000
     14       2.6459      2.00000
     15       2.7293      2.00000
     16       3.3053      2.00000
     17       3.6879      2.00000
     18       3.8666      2.00000
     19       4.3943      2.00000
     20       4.4705      2.00000
     21       5.4779      0.00000
     22       6.2720      0.00000
     23       7.2245      0.00000
     24       7.4743      0.00000
     25       7.5318      0.00000
     26       7.9345      0.00000
     27       9.2287      0.00000
     28       9.9531      0.00000
     29      10.2864      0.00000
     30      10.3505      0.00000
     31      10.3950      0.00000
     32      11.0390      0.00000

 k-point    13 :       0.1667    0.3333    0.0000
  band No.  band energies     occupation 
      1      -9.1378      2.00000
      2      -8.8212      2.00000
      3      -8.1250      2.00000
      4      -7.8226      2.00000
      5      -4.1315      2.00000
      6      -3.5466      2.00000
      7      -3.0094      2.00000
      8      -2.5136      2.00000
      9      -0.1011      2.00000
     10       0.1658      2.00000
     11       0.4200      2.00000
     12       1.6186      2.00000
     13       2.0404      2.00000
     14       2.6475      2.00000
     15       2.7290      2.00000
     16       3.5440      2.00000
     17       3.6043      2.00000
     18       3.7178      2.00000
     19       4.3111      2.00000
     20       4.6263      2.00000
     21       5.4687      0.00000
     22       6.5532      0.00000
     23       7.0585      0.00000
     24       7.3620      0.00000
     25       7.4588      0.00000
     26       8.1069      0.00000
     27       9.2479      0.00000
     28       9.6140      0.00000
     29       9.9683      0.00000
     30      10.0916      0.00000
     31      10.5744      0.00000
     32      10.9367      0.00000

 k-point    14 :       0.5000    0.1667    0.0000
  band No.  band energies     occupation 
      1      -8.4238      2.00000
      2      -8.4238      2.00000
      3      -8.1094      2.00000
      4      -8.1094      2.00000
      5      -4.3919      2.00000
      6      -4.3919      2.00000
      7      -3.2257      2.00000
      8      -3.2257      2.00000
      9       0.7643      2.00000
     10       0.7643      2.00000
     11       1.2807      2.00000
     12       1.2807      2.00000
     13       1.9271      2.00000
     14       1.9271      2.00000
     15       2.7176      2.00000
     16       2.7176      2.00000
     17       3.5233      2.00000
     18       3.5233      2.00000
     19       3.8875      2.00000
     20       3.8875      2.00000
     21       5.9075      0.00000
     22       5.9075      0.00000
     23       7.5321      0.00000
     24       7.5321      0.00000
     25       8.4085      0.00000
     26       8.4085      0.00000
     27       8.9929      0.00000
     28       8.9929      0.00000
     29       9.8461      0.00000
     30       9.8461      0.00000
     31      10.5231      0.00000
     32      10.5231      0.00000

 k-point    15 :      -0.1667    0.5000    0.0000
  band No.  band energies     occupation 
      1      -8.3393      2.00000
      2      -8.3393      2.00000
      3      -8.2286      2.00000
      4      -8.2286      2.00000
      5      -4.1227      2.00000
      6      -4.1227      2.00000
      7      -3.4478      2.00000
      8      -3.4478      2.00000
      9       0.7837      2.00000
     10       0.7837      2.00000
     11       1.1256      2.00000
     12       1.1256      2.00000
     13       1.9652      2.00000
     14       1.9652      2.00000
     15       2.9573      2.00000
     16       2.9573      2.00000
     17       3.2592      2.00000
     18       3.2592      2.00000
     19       3.9799      2.00000
     20       3.9799      2.00000
     21       5.9028      0.00000
     22       5.9028      0.00000
     23       7.8954      0.00000
     24       7.8954      0.00000
     25       8.1868      0.00000
     26       8.1868      0.00000
     27       8.6480      0.00000
     28       8.6480      0.00000
     29       9.8258      0.00000
     30       9.8258      0.00000
     31      10.3908      0.00000
     32      10.3908      0.00000

 k-point    16 :       0.3333    0.3333    0.0000
  band No.  band energies     occupation 
      1      -8.6258      2.00000
      2      -8.3572      2.00000
      3      -7.9219      2.00000
      4      -7.6963      2.00000
      5      -3.9189      2.00000
      6      -2.9746      2.00000
      7      -2.9099      2.00000
      8      -2.6525      2.00000
      9      -0.9318      2.00000
     10      -0.9303      2.00000
     11       0.3770      2.00000
     12       0.5824      2.00000
     13       0.7371      2.00000
     14       1.1489      2.00000
     15       1.8505      2.00000
     16       2.2724      2.00000
     17       2.9667      2.00000
     18       3.0599      2.00000
     19       3.0866      2.00000
     20       3.4418      2.00000
     21       5.5322      0.00000
     22       8.1651      0.00000
     23       8.4475      0.00000
     24       8.6509      0.00000
     25       9.0880      0.00000
     26       9.3570      0.00000
     27       9.9662      0.00000
     28      10.2084      0.00000
     29      10.2657      0.00000
     30      10.7944      0.00000
     31      11.0098      0.00000
     32      11.4956      0.00000

 k-point    17 :      -0.3333    0.3333    0.0000
  band No.  band energies     occupation 
      1      -8.6258      2.00000
      2      -8.3572      2.00000
      3      -7.9219      2.00000
      4      -7.6963      2.00000
      5      -3.9189      2.00000
      6      -2.9746      2.00000
      7      -2.9099      2.00000
      8      -2.6525      2.00000
      9      -0.9318      2.00000
     10      -0.9303      2.00000
     11       0.3770      2.00000
     12       0.5824      2.00000
     13       0.7371      2.00000
     14       1.1489      2.00000
     15       1.8505      2.00000
     16       2.2724      2.00000
     17       2.9667      2.00000
     18       3.0599      2.00000
     19       3.0866      2.00000
     20       3.4418      2.00000
     21       5.5322      0.00000
     22       8.1651      0.00000
     23       8.4475      0.00000
     24       8.6509      0.00000
     25       9.0880      0.00000
     26       9.3570      0.00000
     27       9.9662      0.00000
     28      10.2084      0.00000
     29      10.2657      0.00000
     30      10.7944      0.00000
     31      11.0098      0.00000
     32      11.4955      0.00000

 k-point    18 :       0.5000    0.3333    0.0000
  band No.  band energies     occupation 
      1      -8.0688      2.00000
      2      -8.0688      2.00000
      3      -7.8621      2.00000
      4      -7.8621      2.00000
      5      -3.6232      2.00000
      6      -3.6232      2.00000
      7      -2.6255      2.00000
      8      -2.6255      2.00000
      9      -0.5933      2.00000
     10      -0.5933      2.00000
     11      -0.4702      2.00000
     12      -0.4702      2.00000
     13       0.7890      2.00000
     14       0.7890      2.00000
     15       1.6104      2.00000
     16       1.6104      2.00000
     17       2.0349      2.00000
     18       2.0349      2.00000
     19       3.2323      2.00000
     20       3.2323      2.00000
     21       6.7219      0.00000
     22       6.7219      0.00000
     23       9.1220      0.00000
     24       9.1220      0.00000
     25       9.7804      0.00000
     26       9.7804      0.00000
     27      10.6606      0.00000
     28      10.6606      0.00000
     29      10.7786      0.00000
     30      10.7786      0.00000
     31      11.1673      0.00000
     32      11.1673      0.00000

 k-point    19 :      -0.3333    0.5000    0.0000
  band No.  band energies     occupation 
      1      -8.0079      2.00000
      2      -8.0079      2.00000
      3      -7.9378      2.00000
      4      -7.9378      2.00000
      5      -3.3739      2.00000
      6      -3.3739      2.00000
      7      -2.8891      2.00000
      8      -2.8891      2.00000
      9      -0.7113      2.00000
     10      -0.7113      2.00000
     11      -0.3409      2.00000
     12      -0.3409      2.00000
     13       0.8119      2.00000
     14       0.8119      2.00000
     15       1.6711      2.00000
     16       1.6711      2.00000
     17       1.9533      2.00000
     18       1.9533      2.00000
     19       3.2414      2.00000
     20       3.2414      2.00000
     21       6.8331      0.00000
     22       6.8331      0.00000
     23       8.8495      0.00000
     24       8.8495      0.00000
     25       9.7086      0.00000
     26       9.7086      0.00000
     27      10.5145      0.00000
     28      10.5145      0.00000
     29      10.8457      0.00000
     30      10.8457      0.00000
     31      11.4534      0.00000
     32      11.4534      0.00000

 k-point    20 :       0.5000    0.5000    0.0000
  band No.  band energies     occupation 
      1      -7.7926      2.00000
      2      -7.7926      2.00000
      3      -7.7926      2.00000
      4      -7.7926      2.00000
      5      -2.5515      2.00000
      6      -2.5515      2.00000
      7      -2.5515      2.00000
      8      -2.5515      2.00000
      9      -1.3816      2.00000
     10      -1.3816      2.00000
     11      -1.3816      2.00000
     12      -1.3816      2.00000
     13       0.3412      2.00000
     14       0.3412      2.00000
[...]
     32      11.2432      0.00000

 k-point    32 :      -0.3333    0.1667    0.5000
  band No.  band energies     occupation 
      1      -9.0097      2.00000
      2      -9.0097      2.00000
      3      -7.9217      2.00000
      4      -7.9217      2.00000
      5      -4.0446      2.00000
      6      -4.0446      2.00000
      7      -2.6378      2.00000
      8      -2.6378      2.00000
      9       0.3045      2.00000
     10       0.3045      2.00000
     11       1.0549      2.00000
     12       1.0549      2.00000
     13       1.7232      2.00000
     14       1.7232      2.00000
     15       3.3688      2.00000
     16       3.3688      2.00000
     17       3.4641      2.00000
     18       3.4641      2.00000
     19       4.6754      2.00000
     20       4.6754      2.00000
     21       6.5876      0.00000
     22       6.5876      0.00000
     23       6.9945      0.00000
     24       6.9945      0.00000
     25       7.9841      0.00000
     26       7.9841      0.00000
     27       8.9463      0.00000
     28       8.9463      0.00000
     29       9.4849      0.00000
     30       9.4849      0.00000
     31      11.2286      0.00000
     32      11.2286      0.00000

 k-point    33 :       0.1667    0.3333    0.5000
  band No.  band energies     occupation 
      1      -9.0065      2.00000
      2      -9.0065      2.00000
      3      -7.9436      2.00000
      4      -7.9436      2.00000
      5      -3.8984      2.00000
      6      -3.8984      2.00000
      7      -2.7653      2.00000
      8      -2.7653      2.00000
      9       0.2875      2.00000
     10       0.2875      2.00000
     11       1.0660      2.00000
     12       1.0660      2.00000
     13       1.7009      2.00000
     14       1.7009      2.00000
     15       3.3540      2.00000
     16       3.3540      2.00000
     17       3.4958      2.00000
     18       3.4958      2.00000
     19       4.6541      2.00000
     20       4.6541      2.00000
     21       6.5670      0.00000
     22       6.5670      0.00000
     23       7.1865      0.00000
     24       7.1865      0.00000
     25       8.1425      0.00000
     26       8.1425      0.00000
     27       8.3704      0.00000
     28       8.3704      0.00000
     29       9.5844      0.00000
     30       9.5844      0.00000
     31      11.2432      0.00000
     32      11.2432      0.00000

 k-point    34 :       0.5000    0.1667    0.5000
  band No.  band energies     occupation 
      1      -8.4151      2.00000
      2      -8.4151      2.00000
      3      -8.1218      2.00000
      4      -8.1218      2.00000
      5      -4.3083      2.00000
      6      -4.3083      2.00000
      7      -3.3650      2.00000
      8      -3.3650      2.00000
      9       1.0833      2.00000
     10       1.0833      2.00000
     11       1.3722      2.00000
     12       1.3722      2.00000
     13       1.9926      2.00000
     14       1.9926      2.00000
     15       2.4177      2.00000
     16       2.4177      2.00000
     17       3.0837      2.00000
     18       3.0837      2.00000
     19       3.7502      2.00000
     20       3.7502      2.00000
     21       7.0377      0.00000
     22       7.0377      0.00000
     23       7.7192      0.00000
     24       7.7192      0.00000
     25       7.7715      0.00000
     26       7.7715      0.00000
     27       9.0122      0.00000
     28       9.0122      0.00000
     29       9.4604      0.00000
     30       9.4604      0.00000
     31      10.0782      0.00000
     32      10.0782      0.00000

 k-point    35 :      -0.1667    0.5000    0.5000
  band No.  band energies     occupation 
      1      -8.2857      2.00000
      2      -8.2857      2.00000
      3      -8.2857      2.00000
      4      -8.2857      2.00000
      5      -3.8132      2.00000
      6      -3.8132      2.00000
      7      -3.8132      2.00000
      8      -3.8132      2.00000
      9       1.1692      2.00000
     10       1.1692      2.00000
     11       1.1692      2.00000
     12       1.1692      2.00000
     13       2.1780      2.00000
     14       2.1780      2.00000
     15       2.1780      2.00000
     16       2.1780      2.00000
     17       3.4905      2.00000
     18       3.4905      2.00000
     19       3.4905      2.00000
     20       3.4905      2.00000
     21       7.3340      0.00000
     22       7.3340      0.00000
     23       7.3340      0.00000
     24       7.3340      0.00000
     25       8.2487      0.00000
     26       8.2487      0.00000
     27       8.2487      0.00000
     28       8.2487      0.00000
     29       9.8428      0.00000
     30       9.8428      0.00000
     31       9.8428      0.00000
     32       9.8428      0.00000

 k-point    36 :       0.3333    0.3333    0.5000
  band No.  band energies     occupation 
      1      -8.5157      2.00000
      2      -8.5157      2.00000
      3      -7.7845      2.00000
      4      -7.7845      2.00000
      5      -3.5786      2.00000
      6      -3.5786      2.00000
      7      -2.7056      2.00000
      8      -2.7056      2.00000
      9      -0.8276      2.00000
     10      -0.8276      2.00000
     11       0.5188      2.00000
     12       0.5188      2.00000
     13       1.0540      2.00000
     14       1.0540      2.00000
     15       1.6950      2.00000
     16       1.6950      2.00000
     17       2.9014      2.00000
     18       2.9014      2.00000
     19       3.4375      2.00000
     20       3.4375      2.00000
     21       7.1612      0.00000
     22       7.1612      0.00000
     23       7.9521      0.00000
     24       7.9521      0.00000
     25       8.7797      0.00000
     26       8.7797      0.00000
     27      10.3663      0.00000
     28      10.3663      0.00000
     29      11.1290      0.00000
     30      11.1290      0.00000
     31      11.9192      0.00000
     32      11.9194      0.00000

 k-point    37 :      -0.3333    0.3333    0.5000
  band No.  band energies     occupation 
      1      -8.5157      2.00000
      2      -8.5157      2.00000
      3      -7.7845      2.00000
      4      -7.7845      2.00000
      5      -3.5786      2.00000
      6      -3.5786      2.00000
      7      -2.7056      2.00000
      8      -2.7056      2.00000
      9      -0.8276      2.00000
     10      -0.8276      2.00000
     11       0.5188      2.00000
     12       0.5188      2.00000
     13       1.0540      2.00000
     14       1.0540      2.00000
     15       1.6950      2.00000
     16       1.6950      2.00000
     17       2.9014      2.00000
     18       2.9014      2.00000
     19       3.4375      2.00000
     20       3.4375      2.00000
     21       7.1612      0.00000
     22       7.1612      0.00000
     23       7.9521      0.00000
     24       7.9521      0.00000
     25       8.7797      0.00000
     26       8.7797      0.00000
     27      10.3663      0.00000
     28      10.3663      0.00000
     29      11.1290      0.00000
     30      11.1290      0.00000
     31      11.9191      0.00000
     32      11.9193      0.00000

 k-point    38 :       0.5000    0.3333    0.5000
  band No.  band energies     occupation 
      1      -8.0632      2.00000
      2      -8.0632      2.00000
      3      -7.8689      2.00000
      4      -7.8689      2.00000
      5      -3.5795      2.00000
      6      -3.5795      2.00000
      7      -2.7024      2.00000
      8      -2.7024      2.00000
      9      -0.6263      2.00000
     10      -0.6263      2.00000
     11      -0.3507      2.00000
     12      -0.3507      2.00000
     13       0.8949      2.00000
     14       0.8949      2.00000
     15       1.1529      2.00000
     16       1.1529      2.00000
     17       2.6985      2.00000
     18       2.6985      2.00000
     19       2.8557      2.00000
     20       2.8557      2.00000
     21       7.0183      0.00000
     22       7.0183      0.00000
     23       8.0561      0.00000
     24       8.0561      0.00000
     25      10.2628      0.00000
     26      10.2628      0.00000
     27      10.5077      0.00000
     28      10.5077      0.00000
     29      11.5161      0.00000
     30      11.5161      0.00000
     31      11.6633      0.00000
     32      11.6633      0.00000

 k-point    39 :      -0.3333    0.5000    0.5000
  band No.  band energies     occupation 
      1      -7.9735      2.00000
      2      -7.9735      2.00000
      3      -7.9735      2.00000
      4      -7.9735      2.00000
      5      -3.1511      2.00000
      6      -3.1511      2.00000
      7      -3.1511      2.00000
      8      -3.1511      2.00000
      9      -0.4951      2.00000
     10      -0.4951      2.00000
     11      -0.4951      2.00000
     12      -0.4951      2.00000
     13       1.0503      2.00000
     14       1.0503      2.00000
     15       1.0503      2.00000
     16       1.0503      2.00000
     17       2.7712      2.00000
     18       2.7712      2.00000
     19       2.7712      2.00000
     20       2.7712      2.00000
     21       7.4884      0.00000
     22       7.4884      0.00000
     23       7.4884      0.00000
     24       7.4884      0.00000
     25      10.3399      0.00000
     26      10.3399      0.00000
     27      10.3399      0.00000
     28      10.3399      0.00000
     29      11.6188      0.00000
     30      11.6188      0.00000
     31      11.6188      0.00000
     32      11.6188      0.00000

 k-point    40 :       0.5000    0.5000    0.5000
  band No.  band energies     occupation 
      1      -7.7925      2.00000
      2      -7.7925      2.00000
      3      -7.7925      2.00000
      4      -7.7925      2.00000
      5      -2.5897      2.00000
      6      -2.5897      2.00000
      7      -2.5897      2.00000
      8      -2.5897      2.00000
      9      -1.2129      2.00000
     10      -1.2129      2.00000
     11      -1.2129      2.00000
     12      -1.2129      2.00000
     13       0.0634      2.00000
     14       0.0634      2.00000
     15       0.0634      2.00000
     16       0.0634      2.00000
     17       2.9515      2.00000
     18       2.9515      2.00000
     19       2.9515      2.00000
     20       2.9515      2.00000
     21       7.1590      0.00000
     22       7.1590      0.00000
     23       7.1590      0.00000
     24       7.1590      0.00000
     25      11.1519      0.00000
     26      11.1519      0.00000
     27      11.1519      0.00000
     28      11.1519      0.00000
     29      11.9141      0.00000
     30      11.9141      0.00000
     31      11.9141      0.00000
     32      11.9141      0.00000


--------------------------------------------------------------------------------------------------------


 soft charge-density along one line, spin component            1
         0         1         2         3         4         5         6         7         8         9
 total charge-density along one line
 
 pseudopotential strength for first ion, spin component:            1
 14.035  17.495   0.000   0.039   0.000   0.000   0.071   0.000
 17.495  21.823   0.000   0.050   0.000   0.000   0.089   0.000
  0.000   0.000   3.147  -0.000  -0.000   5.351  -0.000  -0.000
  0.039   0.050  -0.000   3.143   0.000  -0.000   5.344   0.000
  0.000   0.000  -0.000   0.000   3.147  -0.000   0.000   5.351
  0.000   0.000   5.351  -0.000  -0.000   9.154  -0.000  -0.000
  0.071   0.089  -0.000   5.344   0.000  -0.000   9.142   0.000
  0.000   0.000  -0.000   0.000   5.351  -0.000   0.000   9.154
 -0.000  -0.000   0.000  -0.000   0.000   0.000  -0.000   0.000
 -0.000  -0.000   0.010   0.000  -0.000   0.019   0.000  -0.000
 -0.005  -0.006   0.000   0.010  -0.000   0.000   0.018  -0.000
  0.000   0.000  -0.000   0.000   0.010  -0.000   0.000   0.019
  0.000   0.000  -0.000  -0.000   0.000  -0.000  -0.000   0.000
 total augmentation occupancy for first ion, spin component:            1
  2.944  -0.895   0.000   0.327   0.000  -0.000  -0.062  -0.000  -0.000  -0.000  -0.029   0.000  -0.003
 -0.895   0.839  -0.000  -0.422  -0.000   0.000   0.068   0.000   0.000   0.000   0.035  -0.000   0.002
  0.000  -0.000   1.338  -0.000  -0.000  -0.245   0.000   0.000   0.000   0.031   0.000   0.000   0.000
  0.327  -0.422  -0.000   1.341  -0.000  -0.000  -0.224  -0.000   0.000  -0.000   0.093   0.000   0.003
  0.000  -0.000  -0.000  -0.000   1.327   0.000   0.000  -0.241   0.000   0.000  -0.000   0.036   0.000
 -0.000   0.000  -0.245  -0.000   0.000   0.050   0.000  -0.000  -0.000  -0.005  -0.000  -0.000  -0.000
 -0.062   0.068   0.000  -0.224   0.000   0.000   0.043  -0.000  -0.000  -0.000  -0.017  -0.000  -0.001
 -0.000   0.000   0.000  -0.000  -0.241  -0.000  -0.000   0.049  -0.000  -0.000   0.000  -0.006  -0.000
 -0.000   0.000   0.000   0.000   0.000  -0.000  -0.000  -0.000   0.051   0.000  -0.000   0.000  -0.000
 -0.000   0.000   0.031  -0.000   0.000  -0.005  -0.000  -0.000   0.000   0.013   0.000   0.000  -0.000
 -0.029   0.035   0.000   0.093  -0.000  -0.000  -0.017   0.000  -0.000   0.000   0.040   0.000  -0.000
  0.000  -0.000   0.000   0.000   0.036  -0.000  -0.000  -0.006   0.000   0.000   0.000   0.011   0.000
 -0.003   0.002   0.000   0.003   0.000  -0.000  -0.001  -0.000  -0.000  -0.000  -0.000   0.000   0.011


------------------------ aborting loop because EDIFF is reached ----------------------------------------


    CHARGE:  cpu time      0.0029: real time      0.0029
    FORLOC:  cpu time      0.0001: real time      0.0001
    FORNL :  cpu time      0.0182: real time      0.0183
    STRESS:  cpu time      0.1767: real time      0.1773
    FORCOR:  cpu time      0.0031: real time      0.0031
    FORHAR:  cpu time      0.0008: real time      0.0008
    MIXING:  cpu time      0.0004: real time      0.0004
    OFIELD:  cpu time      0.0000: real time      0.0000

  FORCE on cell =-STRESS in cart. coord.  units (eV):
  Direction    XX          YY          ZZ          XY          YZ          ZX
  --------------------------------------------------------------------------------------
  Alpha Z   105.31456   105.31456   105.31456
  Ewald    -476.95522  -477.09357  -579.84706    -0.00000    -0.00000    -0.00000
  Hartree    44.15248    44.14256     7.86481    -0.00000    -0.00000    -0.00000
  E(xc)    -142.90008  -142.89454  -143.57099    -0.00000     0.00000     0.00000
  Local    -153.08979  -152.13619   -24.98916    -0.00000     0.00000     0.00000
  n-local   243.29972   243.28036   244.18741     0.00000    -0.00000    -0.00000
  augment   -11.50381   -11.44215   -12.15535    -0.00000    -0.00000    -0.00000
  Kinetic   402.36028   401.55411   405.95707     0.00000    -0.00000     0.00000
  Fock        0.00000     0.00000     0.00000     0.00000     0.00000     0.00000
  -------------------------------------------------------------------------------------
  Total      10.67813    10.72512     2.76129    -0.00000     0.00000     0.00000
  in kB     106.33266   106.80064    27.49687    -0.00000     0.00000     0.00002
  external pressure =       80.21 kB  Pullay stress =        0.00 kB


 VOLUME and BASIS-vectors are now :
 -----------------------------------------------------------------------------
  energy-cutoff  :      360.00
  volume of cell :      160.89
      direct lattice vectors                 reciprocal lattice vectors
     3.800000000  0.000000000  0.000000000     0.263157895  0.000000000  0.000000000
     0.000000000  3.800000000  0.000000000     0.000000000  0.263157895  0.000000000
     0.000000000  0.000000000 11.142221000     0.000000000  0.000000000  0.089748713

  length of vectors
     3.800000000  3.800000000 11.142221000     0.263157895  0.263157895  0.089748713


 FORCES acting on ions
    electron-ion (+dipol)            ewald-force                    non-local-force                 convergence-correction
 -----------------------------------------------------------------------------------------------
   0.147E-05 0.908E-06 0.245E+02   -.246E-14 0.831E-15 -.269E+02   -.813E-06 -.379E-06 0.245E+01   -.545E-06 -.586E-06 -.747E-03
   0.788E-06 0.544E-06 -.245E+02   -.322E-14 -.155E-15 0.269E+02   -.320E-06 -.264E-06 -.245E+01   -.445E-06 -.431E-06 0.710E-03
   -.109E-05 -.141E-05 -.245E+02   -.330E-14 -.247E-15 0.269E+02   0.691E-06 0.780E-06 -.245E+01   0.353E-06 0.626E-06 0.750E-03
   0.285E-06 -.865E-06 0.245E+02   -.296E-14 0.180E-15 -.269E+02   -.127E-06 0.387E-06 0.245E+01   -.146E-06 0.449E-06 -.711E-03
   -.216E-05 -.159E-05 -.266E+02   0.285E-14 -.149E-16 0.277E+02   0.130E-05 0.479E-06 -.106E+01   0.104E-05 0.122E-05 0.163E-02
   -.157E-06 -.292E-05 0.267E+02   0.230E-14 0.177E-14 -.277E+02   -.114E-06 0.131E-05 0.106E+01   0.208E-06 0.181E-05 -.169E-02
   -.336E-06 0.260E-05 0.266E+02   0.454E-14 0.121E-14 -.277E+02   -.122E-06 -.139E-05 0.106E+01   0.487E-06 -.110E-05 -.163E-02
   -.163E-05 0.201E-05 -.267E+02   0.291E-15 -.207E-15 0.277E+02   0.110E-05 -.901E-06 -.106E+01   0.538E-06 -.930E-06 0.170E-02
 -----------------------------------------------------------------------------------------------
   -.283E-05 -.727E-06 -.574E-05   -.195E-14 0.337E-14 -.711E-14   0.159E-05 0.212E-07 0.242E-05   0.149E-05 0.106E-05 0.370E-05
 
 
 POSITION                                       TOTAL-FORCE (eV/Angst)
 -----------------------------------------------------------------------------------
      0.00000      0.95000      1.34841         0.000000     -0.000000     -0.004386
      1.90000      2.85000      4.22270        -0.000000     -0.000000      0.004385
      0.00000      2.85000      9.79381        -0.000000     -0.000000      0.004386
      1.90000      0.95000      6.91952        -0.000000     -0.000000     -0.004385
      0.00000      0.95000      3.95985         0.000000      0.000000      0.004629
      1.90000      2.85000      1.61126        -0.000000      0.000000     -0.004628
      0.00000      2.85000      7.18237        -0.000000      0.000000     -0.004630
      1.90000      0.95000      9.53096        -0.000000      0.000000      0.004628
 -----------------------------------------------------------------------------------
    total drift:                                0.000000      0.000000      0.000000


--------------------------------------------------------------------------------------------------------



  FREE ENERGIE OF THE ION-ELECTRON SYSTEM (eV)
  ---------------------------------------------------
  free  energy   TOTEN  =       -32.82015415 eV

  energy  without entropy=      -32.81721118  energy(sigma->0) =      -32.81868266
 


--------------------------------------------------------------------------------------------------------


    POTLOK:  cpu time      0.1135: real time      0.1138


--------------------------------------------------------------------------------------------------------


     LOOP+:  cpu time      4.8307: real time      4.8727
    4ORBIT:  cpu time      0.0000: real time      0.0000

 total amount of memory used by VASP MPI-rank0    36982. kBytes
=======================================================================

   base      :      30000. kBytes
   nonl-proj :       5406. kBytes
   fftplans  :        284. kBytes
   grid      :        416. kBytes
   one-center:         16. kBytes
   wavefun   :        860. kBytes
 
  
  
 General timing and accounting informations for this job:
 ========================================================
  
                  Total CPU time used (sec):        5.548
                            User time (sec):        5.340
                          System time (sec):        0.208
                         Elapsed time (sec):        7.211
  
                   Maximum memory used (kb):      189612.
                   Average memory used (kb):          N/A
  
                          Minor page faults:        21880
                          Major page faults:           34
                 Voluntary context switches:         6912
