 running  128 mpi-ranks, with    1 threads/rank, on    2 nodes
 distrk:  each k-point on   64 cores,    2 groups
 distr:  one band on    8 cores,    8 groups
 vasp.6.4.2 20Jul23 (build Oct 12 2023 10:31:02) complex                         
 POSCAR found type information on POSCAR GeSe
 POSCAR found :  2 types and      72 ions
 Reading from existing POTCAR
 -----------------------------------------------------------------------------
|                                                                             |
|           W    W    AA    RRRRR   N    N  II  N    N   GGGG   !!!           |
|           W    W   A  A   R    R  NN   N  II  NN   N  G    G  !!!           |
|           W    W  A    A  R    R  N N  N  II  N N  N  G       !!!           |
|           W WW W  AAAAAA  RRRRR   N  N N  II  N  N N  G  GGG   !            |
|           WW  WW  A    A  R   R   N   NN  II  N   NN  G    G                |
|           W    W  A    A  R    R  N    N  II  N    N   GGGG   !!!           |
|                                                                             |
|     You use a magnetic or noncollinear calculation, but did not specify     |
|     the initial magnetic moment with the MAGMOM tag. Note that a            |
|     default of 1 will be used for all atoms. This ferromagnetic setup       |
|     may break the symmetry of the crystal, in particular it may rule        |
|     out finding an antiferromagnetic solution. Thence, we recommend         |
|     setting the initial magnetic moment manually or verifying carefully     |
|     that this magnetic setup is desired.                                    |
|                                                                             |
 -----------------------------------------------------------------------------

 scaLAPACK will be used
 Reading from existing POTCAR
 -----------------------------------------------------------------------------
|                                                                             |
|               ----> ADVICE to this user running VASP <----                  |
|                                                                             |
|     You have a (more or less) 'large supercell' and for larger cells it     |
|     might be more efficient to use real-space projection operators.         |
|     Therefore, try LREAL= Auto in the INCAR file.                           |
|     Mind: For very accurate calculation, you might also keep the            |
|     reciprocal projection scheme (i.e. LREAL=.FALSE.).                      |
|                                                                             |
 -----------------------------------------------------------------------------

 LDA part: xc-table for Pade appr. of Perdew
 -----------------------------------------------------------------------------
|                                                                             |
|           W    W    AA    RRRRR   N    N  II  N    N   GGGG   !!!           |
|           W    W   A  A   R    R  NN   N  II  NN   N  G    G  !!!           |
|           W    W  A    A  R    R  N N  N  II  N N  N  G       !!!           |
|           W WW W  AAAAAA  RRRRR   N  N N  II  N  N N  G  GGG   !            |
|           WW  WW  A    A  R   R   N   NN  II  N   NN  G    G                |
|           W    W  A    A  R    R  N    N  II  N    N   GGGG   !!!           |
|                                                                             |
|     The number of bands has been changed from the values supplied in        |
|     the INCAR file. This is a result of running the parallel version.       |
|     The orbitals not found in the WAVECAR file will be initialized with     |
|     random numbers, which is usually adequate. For correlated               |
|     calculations, however, you should redo the groundstate calculation.     |
|     I found NBANDS = 220. Now, NBANDS = 224.                                |
|                                                                             |
 -----------------------------------------------------------------------------

 POSCAR, INCAR and KPOINTS ok, starting setup
 FFT: planning ... GRIDC
 FFT: planning ... GRID_SOFT
 FFT: planning ... GRID
 WAVECAR not read
 WARNING: random wavefunctions but no delay for mixing, default for NELMDL
 entering main loop
       N       E                     dE             d eps       ncg     rms          rms(c)
DAV:   1     0.181150751367E+04    0.18115E+04   -0.14187E+05  7168   0.135E+03
DAV:   2    -0.644953581971E+02   -0.18760E+04   -0.18004E+04  8488   0.204E+02
DAV:   3    -0.281815159042E+03   -0.21732E+03   -0.21161E+03  8560   0.691E+01
DAV:   4    -0.289724043165E+03   -0.79089E+01   -0.78213E+01  8808   0.130E+01
DAV:   5    -0.290001992482E+03   -0.27795E+00   -0.27717E+00  9088   0.210E+00    0.291E+01
DAV:   6    -0.289653980461E+03    0.34801E+00   -0.26810E+01  7928   0.761E+00    0.172E+01
DAV:   7    -0.296873454536E+03   -0.72195E+01   -0.86029E+00  8040   0.445E+00    0.909E+00
DAV:   8    -0.300105052551E+03   -0.32316E+01   -0.17201E+00  8160   0.224E+00    0.327E+00
DAV:   9    -0.300487361948E+03   -0.38231E+00   -0.43375E-01  9072   0.102E+00    0.146E+00
DAV:  10    -0.300588652693E+03   -0.10129E+00   -0.93279E-02  8080   0.459E-01    0.722E-01
DAV:  11    -0.300619338164E+03   -0.30685E-01   -0.35690E-02  8904   0.275E-01    0.279E-01
DAV:  12    -0.300622528286E+03   -0.31901E-02   -0.45317E-03  8552   0.118E-01    0.100E-01
DAV:  13    -0.300622632930E+03   -0.10464E-03   -0.56342E-04  9768   0.365E-02    0.398E-02
DAV:  14    -0.300622646742E+03   -0.13812E-04   -0.77467E-05  8248   0.171E-02    0.158E-02
DAV:  15    -0.300622649041E+03   -0.22993E-05   -0.12978E-05  8616   0.754E-03    0.719E-03
DAV:  16    -0.300622649763E+03   -0.72192E-06   -0.13599E-06  4816   0.240E-03
   1 F= -.30062265E+03 E0= -.30062265E+03  d E =-.101031E-15  mag=     0.0004
