 running   32 mpi-ranks, with    1 threads/rank, on    2 nodes
 distrk:  each k-point on   16 cores,    2 groups
 distr:  one band on    1 cores,   16 groups
 vasp.6.4.2 20Jul23 (build Oct 12 2023 10:31:02) complex                         
 POSCAR found type information on POSCAR GeSe
 POSCAR found :  2 types and       8 ions
 Reading from existing POTCAR
 -----------------------------------------------------------------------------
|                                                                             |
|           W    W    AA    RRRRR   N    N  II  N    N   GGGG   !!!           |
|           W    W   A  A   R    R  NN   N  II  NN   N  G    G  !!!           |
|           W    W  A    A  R    R  N N  N  II  N N  N  G       !!!           |
|           W WW W  AAAAAA  RRRRR   N  N N  II  N  N N  G  GGG   !            |
|           WW  WW  A    A  R   R   N   NN  II  N   NN  G    G                |
|           W    W  A    A  R    R  N    N  II  N    N   GGGG   !!!           |
|                                                                             |
|     You use a magnetic or noncollinear calculation, but did not specify     |
|     the initial magnetic moment with the MAGMOM tag. Note that a            |
|     default of 1 will be used for all atoms. This ferromagnetic setup       |
|     may break the symmetry of the crystal, in particular it may rule        |
|     out finding an antiferromagnetic solution. Thence, we recommend         |
|     setting the initial magnetic moment manually or verifying carefully     |
|     that this magnetic setup is desired.                                    |
|                                                                             |
 -----------------------------------------------------------------------------

 scaLAPACK will be used
 Reading from existing POTCAR
 LDA part: xc-table for Pade appr. of Perdew
 -----------------------------------------------------------------------------
|                                                                             |
|           W    W    AA    RRRRR   N    N  II  N    N   GGGG   !!!           |
|           W    W   A  A   R    R  NN   N  II  NN   N  G    G  !!!           |
|           W    W  A    A  R    R  N N  N  II  N N  N  G       !!!           |
|           W WW W  AAAAAA  RRRRR   N  N N  II  N  N N  G  GGG   !            |
|           WW  WW  A    A  R   R   N   NN  II  N   NN  G    G                |
|           W    W  A    A  R    R  N    N  II  N    N   GGGG   !!!           |
|                                                                             |
|     The number of bands has been changed from the values supplied in        |
|     the INCAR file. This is a result of running the parallel version.       |
|     The orbitals not found in the WAVECAR file will be initialized with     |
|     random numbers, which is usually adequate. For correlated               |
|     calculations, however, you should redo the groundstate calculation.     |
|     I found NBANDS = 220. Now, NBANDS = 224.                                |
|                                                                             |
 -----------------------------------------------------------------------------

 POSCAR, INCAR and KPOINTS ok, starting setup
 FFT: planning ... GRIDC
 FFT: planning ... GRID_SOFT
 FFT: planning ... GRID
 WAVECAR not read
 WARNING: random wavefunctions but no delay for mixing, default for NELMDL
 entering main loop
       N       E                     dE             d eps       ncg     rms          rms(c)
DAV:   1     0.175586023973E+03    0.17559E+03   -0.96420E+03 28672   0.138E+02
DAV:   2    -0.223460271747E+02   -0.19793E+03   -0.17606E+03 34720   0.423E+01
DAV:   3    -0.324297448887E+02   -0.10084E+02   -0.99346E+01 34368   0.968E+00
DAV:   4    -0.324772013744E+02   -0.47456E-01   -0.47446E-01 33776   0.584E-01
DAV:   5    -0.324773459519E+02   -0.14458E-03   -0.14457E-03 33200   0.355E-02    0.967E+00
DAV:   6    -0.267434331113E+02    0.57339E+01   -0.31086E+00 32112   0.182E+00    0.601E+00
DAV:   7    -0.262138606507E+02    0.52957E+00   -0.42260E-01 31792   0.589E-01    0.376E+00
DAV:   8    -0.276144400091E+02   -0.14006E+01   -0.19304E-01 33584   0.456E-01    0.211E+00
DAV:   9    -0.290855185982E+02   -0.14711E+01   -0.13762E-01 32176   0.347E-01    0.158E+00
DAV:  10    -0.313372400427E+02   -0.22517E+01   -0.42350E-01 31536   0.552E-01    0.960E-01
DAV:  11    -0.331541606897E+02   -0.18169E+01   -0.34561E-01 31712   0.476E-01    0.386E-01
DAV:  12    -0.333496071351E+02   -0.19545E+00   -0.37105E-02 32192   0.163E-01    0.269E-01
DAV:  13    -0.334540072978E+02   -0.10440E+00   -0.12612E-02 30768   0.107E-01    0.173E-01
DAV:  14    -0.334903656171E+02   -0.36358E-01   -0.18847E-03 31264   0.452E-02    0.970E-02
DAV:  15    -0.335022720643E+02   -0.11906E-01   -0.58688E-04 32784   0.229E-02    0.567E-02
DAV:  16    -0.335149718742E+02   -0.12700E-01   -0.10130E-03 32176   0.304E-02    0.293E-02
DAV:  17    -0.335205080468E+02   -0.55362E-02   -0.38604E-04 32784   0.172E-02    0.181E-02
DAV:  18    -0.335214035914E+02   -0.89554E-03   -0.60330E-05 33184   0.888E-03    0.765E-03
DAV:  19    -0.335213881051E+02    0.15486E-04   -0.11868E-05 31536   0.393E-03    0.305E-03
DAV:  20    -0.335213847345E+02    0.33706E-05   -0.35255E-06 30928   0.218E-03    0.159E-03
DAV:  21    -0.335213837943E+02    0.94022E-06   -0.18332E-06 30672   0.155E-03
   1 F= -.33521384E+02 E0= -.33521384E+02  d E =-.166715E-23  mag=    -0.0000
 writing wavefunctions
