 vasp.6.4.2 20Jul23 (build Oct 12 2023 10:31:02) complex                         
 executed on              LinuxNV date 2024.11.02  00:19:35
 running  128 mpi-ranks, with    1 threads/rank, on    2 nodes
 distrk:  each k-point on   64 cores,    2 groups
 distr:  one band on NCORE=   8 cores,    8 groups


--------------------------------------------------------------------------------------------------------


 INCAR:
   ENCUT = 520.000000
   SIGMA = 0.050000
   EDIFF = 1.00e-06
   ALGO = N
   GGA = PE
   PREC = Accurate
   SYSTEM = 01_AOPT
   ICHARG = 0
   ISMEAR = 0
   ISPIN = 2
   ISTART = 1
   ISYM = -1
   KPAR = 2
   LORBIT = 11
   NBANDS = 220
   NELM = 100
   NELMIN = 5
   NPAR = 8
   LASPH = .TRUE.
   LCHARG = .FALSE.
   LWAVE = .FALSE.
   LREAL = .FALSE.

 POTCAR:    PAW_PBE Ge 05Jan2001                  
 POTCAR:    PAW_PBE Se 06Sep2000                  
 -----------------------------------------------------------------------------
|                                                                             |
|           W    W    AA    RRRRR   N    N  II  N    N   GGGG   !!!           |
|           W    W   A  A   R    R  NN   N  II  NN   N  G    G  !!!           |
|           W    W  A    A  R    R  N N  N  II  N N  N  G       !!!           |
|           W WW W  AAAAAA  RRRRR   N  N N  II  N  N N  G  GGG   !            |
|           WW  WW  A    A  R   R   N   NN  II  N   NN  G    G                |
|           W    W  A    A  R    R  N    N  II  N    N   GGGG   !!!           |
|                                                                             |
|     You use a magnetic or noncollinear calculation, but did not specify     |
|     the initial magnetic moment with the MAGMOM tag. Note that a            |
|     default of 1 will be used for all atoms. This ferromagnetic setup       |
|     may break the symmetry of the crystal, in particular it may rule        |
|     out finding an antiferromagnetic solution. Thence, we recommend         |
|     setting the initial magnetic moment manually or verifying carefully     |
|     that this magnetic setup is desired.                                    |
|                                                                             |
 -----------------------------------------------------------------------------

 POTCAR:    PAW_PBE Ge 05Jan2001                  
   VRHFIN =Ge: s2p2                                                                                 
   LEXCH  = PE                                                                                      
   EATOM  =   104.9960 eV,    7.7170 Ry                                                             
                                                                                                    
   TITEL  = PAW_PBE Ge 05Jan2001                                                                    
   LULTRA =        F    use ultrasoft PP ?                                                          
   IUNSCR =        1    unscreen: 0-lin 1-nonlin 2-no                                               
   RPACOR =    2.170    partial core radius                                                         
   POMASS =   72.610; ZVAL   =    4.000    mass and valenz                                          
   RCORE  =    2.300    outmost cutoff radius                                                       
   RWIGS  =    2.300; RWIGS  =    1.217    wigner-seitz radius (au A)                               
   ENMAX  =  173.807; ENMIN  =  130.355 eV                                                          
   ICORE  =        3    local potential                                                             
   LCOR   =        T    correct aug charges                                                         
   LPAW   =        T    paw PP                                                                      
   EAUG   =  385.843                                                                                
   DEXC   =    0.000                                                                                
   RMAX   =    2.342    core radius for proj-oper                                                   
   RAUG   =    1.300    factor for augmentation sphere                                              
   RDEP   =    2.318    radius for radial grids                                                     
   RDEPT  =    2.103    core radius for aug-charge                                                  
                                                                                                    
   Atomic configuration                                                                             
   10 entries                                                                                       
     n  l   j            E        occ.                                                              
     1  0  0.50    -10959.8463   2.0000                                                             
     2  0  0.50     -1371.6056   2.0000                                                             
     2  1  1.50     -1198.4791   6.0000                                                             
     3  0  0.50      -168.4733   2.0000                                                             
     3  1  1.50      -115.6019   6.0000                                                             
     3  2  2.50       -29.3106  10.0000                                                             
     4  0  0.50       -11.7309   2.0000                                                             
     4  1  0.50        -3.8952   2.0000                                                             
     4  2  1.50        -4.0817   0.0000                                                             
     4  3  2.50        -4.0817   0.0000                                                             
   Description                                                                                      
     l       E           TYP  RCUT    TYP  RCUT                                                     
     0    -11.7309493     23  2.300                                                                 
     0     -7.4578696     23  2.300                                                                 
     1     -3.8952261     23  2.300                                                                 
     1      6.1178114     23  2.300                                                                 
     2     -4.0817478     23  2.300                                                                 
     3     -1.3605826      7  2.300                                                                 
  local pseudopotential read in
  partial core-charges read in
  partial kinetic energy density read in
  atomic valenz-charges read in
  non local Contribution for L=            0  read in
    real space projection operators read in
  non local Contribution for L=            0  read in
    real space projection operators read in
  non local Contribution for L=            1  read in
    real space projection operators read in
  non local Contribution for L=            1  read in
    real space projection operators read in
  non local Contribution for L=            2  read in
    real space projection operators read in
    PAW grid and wavefunctions read in
 
   number of l-projection  operators is LMAX  =            5
   number of lm-projection operators is LMMAX =           13
 
 POTCAR:    PAW_PBE Se 06Sep2000                  
   VRHFIN =Se: s2p4                                                                                 
   LEXCH  = PE                                                                                      
   EATOM  =   257.1286 eV,   18.8984 Ry                                                             
                                                                                                    
   TITEL  = PAW_PBE Se 06Sep2000                                                                    
   LULTRA =        F    use ultrasoft PP ?                                                          
   IUNSCR =        1    unscreen: 0-lin 1-nonlin 2-no                                               
   RPACOR =    1.900    partial core radius                                                         
   POMASS =   78.960; ZVAL   =    6.000    mass and valenz                                          
   RCORE  =    2.100    outmost cutoff radius                                                       
   RWIGS  =    2.200; RWIGS  =    1.164    wigner-seitz radius (au A)                               
   ENMAX  =  211.555; ENMIN  =  158.666 eV                                                          
   ICORE  =        3    local potential                                                             
   LCOR   =        T    correct aug charges                                                         
   LPAW   =        T    paw PP                                                                      
   EAUG   =  446.842                                                                                
   DEXC   =    0.000                                                                                
   RMAX   =    2.147    core radius for proj-oper                                                   
   RAUG   =    1.300    factor for augmentation sphere                                              
   RDEP   =    2.177    radius for radial grids                                                     
   RDEPT  =    1.928    core radius for aug-charge                                                  
                                                                                                    
   Atomic configuration                                                                             
   10 entries                                                                                       
     n  l   j            E        occ.                                                              
     1  0  0.50    -12503.4787   2.0000                                                             
     2  0  0.50     -1606.9547   2.0000                                                             
     2  1  1.50     -1413.3140   6.0000                                                             
     3  0  0.50      -213.4885   2.0000                                                             
     3  1  1.50      -152.9538   6.0000                                                             
     3  2  2.50       -53.1221  10.0000                                                             
     4  0  0.50       -17.2865   2.0000                                                             
     4  1  0.50        -6.5110   4.0000                                                             
     4  2  2.50        -6.8029   0.0000                                                             
     4  3  2.50        -6.8029   0.0000                                                             
   Description                                                                                      
     l       E           TYP  RCUT    TYP  RCUT                                                     
     0    -17.2865377     23  2.100                                                                 
     0    -15.3094411     23  2.100                                                                 
     1     -6.5110275     23  2.100                                                                 
     1     -0.0695192     23  2.100                                                                 
     2     -6.8029130     23  2.100                                                                 
     3     -1.3605826      7  2.100                                                                 
  local pseudopotential read in
  partial core-charges read in
  partial kinetic energy density read in
  atomic valenz-charges read in
  non local Contribution for L=            0  read in
    real space projection operators read in
  non local Contribution for L=            0  read in
    real space projection operators read in
  non local Contribution for L=            1  read in
    real space projection operators read in
  non local Contribution for L=            1  read in
    real space projection operators read in
  non local Contribution for L=            2  read in
    real space projection operators read in
    PAW grid and wavefunctions read in
 
   number of l-projection  operators is LMAX  =            5
   number of lm-projection operators is LMMAX =           13
 
 -----------------------------------------------------------------------------
|                                                                             |
|               ----> ADVICE to this user running VASP <----                  |
|                                                                             |
|     You have a (more or less) 'large supercell' and for larger cells it     |
|     might be more efficient to use real-space projection operators.         |
|     Therefore, try LREAL= Auto in the INCAR file.                           |
|     Mind: For very accurate calculation, you might also keep the            |
|     reciprocal projection scheme (i.e. LREAL=.FALSE.).                      |
|                                                                             |
 -----------------------------------------------------------------------------

  PAW_PBE Ge 05Jan2001                  :
 energy of atom  1       EATOM= -104.9960
 kinetic energy error for atom=    0.0002 (will be added to EATOM!!)
  PAW_PBE Se 06Sep2000                  :
 energy of atom  2       EATOM= -257.1286
 kinetic energy error for atom=    0.0007 (will be added to EATOM!!)
 
 
 POSCAR: Ge Se
  positions in cartesian coordinates
  No initial velocities read in
 exchange correlation table for  LEXCH =        8
   RHO(1)=    0.500       N(1)  =     2000
   RHO(2)=  100.500       N(2)  =     4000
 


--------------------------------------------------------------------------------------------------------


 ion  position               nearest neighbor table
   1  0.074  0.022  0.139-  45 2.48  54 2.63  67 2.74
   2  0.246  0.849  0.349-  67 2.51  48 2.58  50 2.78
   3  0.547  0.219  0.371-  56 2.54  68 2.54  49 2.69
   4  0.579  0.517  0.366-  72 2.56  69 2.63  56 2.67
   5  0.565  0.853  0.357-  48 2.48  70 2.58  44 2.74
   6  0.907  0.192  0.375-  55 2.55  46 2.72  45 2.74
   7  0.899  0.545  0.375-  47 2.44  71 2.54  72 2.63
   8  0.895  0.876  0.357-  53 2.61  45 2.62
   9  0.070  0.151  0.625-  57 2.60  37 2.67  51 2.68
  10  0.068  0.499  0.636-  58 2.52  43 2.74
  11  0.092  0.842  0.607-  59 2.55  39 2.65  51 2.75
  12  0.437  0.177  0.618-  60 2.53  40 2.61  41 2.62
  13  0.417  0.494  0.616-  61 2.58  41 2.61
  14  0.419  0.840  0.642-  62 2.49  42 2.63  39 2.73
  15  0.755  0.160  0.654-  63 2.55  37 2.57  40 2.70
  16  0.767  0.511  0.624-  64 2.58  43 2.58  52 2.63
  17  0.208  0.530  0.359-  66 2.53  50 2.76  47 2.82
  18  0.244  0.182  0.363-  54 2.50  49 2.72  46 2.82
  19  0.746  0.831  0.623-  52 2.56  65 2.56
  20  0.919  0.691  0.863-  52 2.42  59 2.53
  21  0.908  0.975  0.887-  59 2.54  65 2.68  37 2.71
  22  0.070  0.376  0.123-  66 2.49  71 2.65  46 2.71
  23  0.061  0.716  0.109-  67 2.65  47 2.66  53 2.78
  24  0.407  0.024  0.125-  68 2.65  48 2.74
  25  0.392  0.373  0.114-  49 2.54  69 2.58  66 2.81
  26  0.712  0.038  0.137-  68 2.49  44 2.56  55 2.71
  27  0.750  0.349  0.133-  56 2.57  55 2.58  71 2.71
  28  0.421  0.677  0.123-  69 2.59  50 2.62  70 2.63
  29  0.248  0.312  0.865-  38 2.44  57 2.63  60 2.63
  30  0.247  0.652  0.866-  61 2.52  39 2.57  58 2.71
  31  0.274  0.012  0.856-  51 2.55  62 2.62  60 2.65
  32  0.598  0.344  0.877-  64 2.53  63 2.61  41 2.69
  33  0.556  0.657  0.874-  42 2.49  61 2.66  64 2.80
  34  0.572  0.991  0.888-  62 2.62  40 2.64  65 2.75
  35  0.925  0.331  0.870-  57 2.61  43 2.68  63 2.80
  36  0.724  0.702  0.100-  70 2.65  72 2.65  53 2.65
  37  0.904  0.018  0.648-  15 2.57   9 2.67  21 2.71
  38  0.244  0.339  0.647-  29 2.44
  39  0.250  0.702  0.642-  30 2.57  11 2.65  14 2.73
  40  0.582  0.030  0.655-  12 2.61  34 2.64  15 2.70
  41  0.562  0.345  0.637-  13 2.61  12 2.62  32 2.69
  42  0.562  0.686  0.652-  33 2.49  14 2.63
  43  0.903  0.355  0.631-  16 2.58  35 2.68  10 2.74
  44  0.712  0.016  0.366-  26 2.56   5 2.74
  45  0.045  0.022  0.360-   1 2.48   8 2.62   6 2.74
  46  0.074  0.331  0.362-  22 2.71   6 2.72  18 2.82
  47  0.039  0.678  0.344-   7 2.44  23 2.66  17 2.82
  48  0.409  0.976  0.366-   5 2.48   2 2.58  24 2.74
  49  0.379  0.352  0.341-  25 2.54   3 2.69  18 2.72
  50  0.379  0.670  0.355-  28 2.62  17 2.76   2 2.78
  51  0.232  0.011  0.630-  31 2.55   9 2.68  11 2.75
  52  0.886  0.683  0.648-  20 2.42  19 2.56  16 2.63
  53  0.880  0.846  0.125-   8 2.61  36 2.65  23 2.78
  54  0.226  0.168  0.139-  18 2.50   1 2.63
  55  0.873  0.184  0.148-   6 2.55  27 2.58  26 2.71
  56  0.706  0.345  0.360-   3 2.54  27 2.57   4 2.67
  57  0.078  0.188  0.856-   9 2.60  35 2.61  29 2.63
  58  0.073  0.521  0.862-  10 2.52  30 2.71
  59  0.053  0.841  0.833-  20 2.53  21 2.54  11 2.55
  60  0.408  0.175  0.844-  12 2.53  29 2.63  31 2.65
  61  0.397  0.518  0.846-  30 2.52  13 2.58  33 2.66
  62  0.413  0.855  0.866-  14 2.49  31 2.62  34 2.62
  63  0.746  0.196  0.880-  15 2.55  32 2.61  35 2.80
  64  0.720  0.505  0.850-  32 2.53  16 2.58  33 2.80
  65  0.737  0.848  0.853-  19 2.56  21 2.68  34 2.75
  66  0.215  0.513  0.131-  22 2.49  17 2.53  25 2.81
  67  0.219  0.857  0.125-   2 2.51  23 2.65   1 2.74
  68  0.561  0.168  0.149-  26 2.49   3 2.54  24 2.65
  69  0.545  0.511  0.132-  25 2.58  28 2.59   4 2.63
  70  0.560  0.835  0.125-   5 2.58  28 2.63  36 2.65
  71  0.902  0.504  0.151-   7 2.54  22 2.65  27 2.71
  72  0.725  0.658  0.334-   4 2.56   7 2.63  36 2.65
 

IMPORTANT INFORMATION: All symmetrisations will be switched off!
NOSYMM: (Re-)initialisation of all symmetry stuff for point group C_1.


----------------------------------------------------------------------------------------

                                     Primitive cell                                     

  volume of cell :    1726.5959

  direct lattice vectors                    reciprocal lattice vectors
    12.449474532 -0.000000763 -0.000000818     0.080324675  0.000000005  0.000000007
    -0.000000766 12.511239777  0.000002155     0.000000005  0.079928130 -0.000000018
    -0.000000938  0.000002458 11.085093108     0.000000006 -0.000000016  0.090211240

  length of vectors
    12.449474532 12.511239777 11.085093108     0.080324675  0.079928130  0.090211240

  position of ions in fractional coordinates (direct lattice)
     0.074164548  0.022177174  0.138577643
     0.246172395  0.848894175  0.348835029
     0.547018382  0.218552528  0.370771504
     0.578795400  0.516987292  0.365541609
     0.564938916  0.852684183  0.356640869
     0.906584379  0.191841723  0.374578818
     0.898561349  0.544818216  0.375424409
     0.894540931  0.876123886  0.357028519
     0.070352123  0.151014917  0.624754912
     0.068006400  0.499282080  0.635504950
     0.092182407  0.841781813  0.607070860
     0.437370856  0.177162124  0.617533682
     0.417480356  0.494143189  0.615843020
     0.419397522  0.840377551  0.641572506
     0.755081105  0.160420490  0.653628796
     0.766637237  0.510861582  0.623628212
     0.208386488  0.529500473  0.358582114
     0.244264465  0.181981550  0.363001256
     0.745645173  0.830979185  0.622930340
     0.918980813  0.691250446  0.862555261
     0.907753773  0.975277528  0.887142058
     0.070059496  0.375885501  0.122754061
     0.060935331  0.716466621  0.109337780
     0.406759843  0.024246617  0.125127103
     0.392046744  0.373074241  0.113927991
     0.712169952  0.037729570  0.136703145
     0.749907865  0.349484517  0.132728676
     0.420740507  0.677147183  0.123100209
     0.248354124  0.311745942  0.865363063
     0.246729727  0.651577432  0.866304963
     0.273869896  0.011805376  0.855609758
     0.598227514  0.343936565  0.876645749
     0.556220911  0.657328474  0.873971921
     0.572121133  0.990778490  0.888483074
     0.925308999  0.330940528  0.869713593
     0.724475353  0.702149817  0.100214836
     0.904198959  0.018239784  0.647703073
     0.244339311  0.339088553  0.647184402
     0.249566511  0.702015009  0.641819398
     0.582100330  0.029739580  0.654990975
     0.562409241  0.345020932  0.637031085
     0.562098538  0.685798462  0.651870541
     0.902898861  0.355100455  0.630819588
     0.711536344  0.016097199  0.366137444
     0.045060062  0.022472964  0.359769930
     0.074017533  0.330615184  0.362141362
     0.038853949  0.677943206  0.344403087
     0.408823370  0.975952955  0.366359170
     0.379267817  0.352020594  0.341482423
     0.379404761  0.670292343  0.355141311
     0.232394723  0.010609676  0.630047543
     0.886035265  0.683402739  0.647781957
     0.879766461  0.845890734  0.124766747
     0.226129227  0.168418237  0.139207849
     0.872915009  0.183807542  0.147838572
     0.706155237  0.345368953  0.359672089
     0.078101708  0.188110223  0.855823044
     0.072603877  0.521084838  0.861539942
     0.052571435  0.840966577  0.832913847
     0.408281718  0.175346749  0.843524813
     0.396986842  0.518147653  0.846136358
     0.412814240  0.854871786  0.865790379
     0.746041093  0.195736984  0.880262871
     0.719542457  0.504759828  0.850025598
     0.737089236  0.847993689  0.852976288
     0.215499722  0.512645487  0.131284119
     0.218956978  0.857330132  0.124659682
     0.561467430  0.167564740  0.149452248
     0.544804064  0.511021701  0.131686399
     0.560087130  0.835146625  0.124947955
     0.902070016  0.503773029  0.151181683
     0.724655762  0.658156520  0.334463962

  ion indices of the primitive-cell ions
   primitive index   ion index
                 1           1
                 2           2
                 3           3
                 4           4
                 5           5
                 6           6
                 7           7
                 8           8
                 9           9
                10          10
                11          11
                12          12
                13          13
                14          14
                15          15
                16          16
                17          17
                18          18
                19          19
                20          20
                21          21
                22          22
                23          23
                24          24
                25          25
                26          26
                27          27
                28          28
                29          29
                30          30
                31          31
                32          32
                33          33
                34          34
                35          35
                36          36
                37          37
                38          38
                39          39
                40          40
                41          41
                42          42
                43          43
                44          44
                45          45
                46          46
                47          47
                48          48
                49          49
                50          50
                51          51
                52          52
                53          53
                54          54
                55          55
                56          56
                57          57
                58          58
                59          59
                60          60
                61          61
                62          62
                63          63
                64          64
                65          65
                66          66
                67          67
                68          68
                69          69
                70          70
                71          71
                72          72

----------------------------------------------------------------------------------------

 
 
 KPOINTS: KPOINTS created by Atomic Simulation Env

Automatic generation of k-mesh.
 Grid dimensions read from file:
 generate k-points for:    2    2    2

 Generating k-lattice:

  Cartesian coordinates                     Fractional coordinates (reciprocal lattice)
     0.040162338  0.000000002  0.000000003     0.500000000 -0.000000000 -0.000000000
     0.000000002  0.039964065 -0.000000009     0.000000000  0.500000000 -0.000000000
     0.000000003 -0.000000008  0.045105620    -0.000000000 -0.000000000  0.500000000

  Length of vectors
     0.040162338  0.039964065  0.045105620

  Shift w.r.t. Gamma in fractional coordinates (k-lattice)
     0.000000000  0.000000000  0.000000000

 
 Subroutine IBZKPT returns following result:
 ===========================================
 
 Found      8 irreducible k-points:
 
 Following reciprocal coordinates:
            Coordinates               Weight
  0.000000  0.000000  0.000000      1.000000
  0.500000  0.000000  0.000000      1.000000
  0.000000  0.500000  0.000000      1.000000
  0.500000  0.500000  0.000000      1.000000
  0.000000  0.000000  0.500000      1.000000
  0.500000  0.000000  0.500000      1.000000
  0.000000  0.500000  0.500000      1.000000
  0.500000  0.500000  0.500000      1.000000
 
 Following cartesian coordinates:
            Coordinates               Weight
  0.000000  0.000000  0.000000      1.000000
  0.040162  0.000000  0.000000      1.000000
  0.000000  0.039964 -0.000000      1.000000
  0.040162  0.039964 -0.000000      1.000000
  0.000000 -0.000000  0.045106      1.000000
  0.040162 -0.000000  0.045106      1.000000
  0.000000  0.039964  0.045106      1.000000
  0.040162  0.039964  0.045106      1.000000
 
 -----------------------------------------------------------------------------
|                                                                             |
|           W    W    AA    RRRRR   N    N  II  N    N   GGGG   !!!           |
|           W    W   A  A   R    R  NN   N  II  NN   N  G    G  !!!           |
|           W    W  A    A  R    R  N N  N  II  N N  N  G       !!!           |
|           W WW W  AAAAAA  RRRRR   N  N N  II  N  N N  G  GGG   !            |
|           WW  WW  A    A  R   R   N   NN  II  N   NN  G    G                |
|           W    W  A    A  R    R  N    N  II  N    N   GGGG   !!!           |
|                                                                             |
|     The number of bands has been changed from the values supplied in        |
|     the INCAR file. This is a result of running the parallel version.       |
|     The orbitals not found in the WAVECAR file will be initialized with     |
|     random numbers, which is usually adequate. For correlated               |
|     calculations, however, you should redo the groundstate calculation.     |
|     I found NBANDS = 220. Now, NBANDS = 224.                                |
|                                                                             |
 -----------------------------------------------------------------------------



--------------------------------------------------------------------------------------------------------




 Dimension of arrays:
   k-points           NKPTS =      8   k-points in BZ     NKDIM =      8   number of bands    NBANDS=    224
   number of dos      NEDOS =    301   number of ions     NIONS =     72
   non local maximal  LDIM  =      5   non local SUM 2l+1 LMDIM =     13
   total plane-waves  NPLWV = 774144
   max r-space proj   IRMAX =      1   max aug-charges    IRDMAX=  24565
   dimension x,y,z NGX =    96 NGY =   96 NGZ =   84
   dimension x,y,z NGXF=   192 NGYF=  192 NGZF=  168
   support grid    NGXF=   192 NGYF=  192 NGZF=  168
   ions per type =              36  36
   NGX,Y,Z   is equivalent  to a cutoff of  12.82, 12.76, 12.60 a.u.
   NGXF,Y,Z  is equivalent  to a cutoff of  25.64, 25.51, 25.20 a.u.

 SYSTEM =  01_AOPT                                 
 POSCAR =  Ge Se                                   

 Startparameter for this run:
   NWRITE =      2    write-flag & timer
   PREC   = accura    normal or accurate (medium, high low for compatibility)
   ISTART =      0    job   : 0-new  1-cont  2-samecut
   ICHARG =      2    charge: 1-file 2-atom 10-const
   ISPIN  =      2    spin polarized calculation?
   LNONCOLLINEAR =      F non collinear calculations
   LSORBIT =      F    spin-orbit coupling
   INIWAV =      1    electr: 0-lowe 1-rand  2-diag
   LASPH  =      T    aspherical Exc in radial PAW
 Electronic Relaxation 1
   ENCUT  =  520.0 eV  38.22 Ry    6.18 a.u.  23.15 23.26 20.61*2*pi/ulx,y,z
   ENINI  =  520.0     initial cutoff
   ENAUG  =  446.8 eV  augmentation charge cutoff
   NELM   =    100;   NELMIN=  5; NELMDL=  0     # of ELM steps 
   EDIFF  = 0.1E-05   stopping-criterion for ELM
   LREAL  =      F    real-space projection
   NLSPLINE    = F    spline interpolate recip. space projectors
   LCOMPAT=      F    compatible to vasp.4.4
   GGA_COMPAT  = T    GGA compatible to vasp.4.4-vasp.4.6
   LMAXPAW     = -100 max onsite density
   LMAXMIX     =    2 max onsite mixed and CHGCAR
   VOSKOWN=      0    Vosko Wilk Nusair interpolation
   ROPT   =    0.00000   0.00000
 Ionic relaxation
   EDIFFG = 0.1E-04   stopping-criterion for IOM
   NSW    =      0    number of steps for IOM
   NBLOCK =      1;   KBLOCK =      1    inner block; outer block 
   IBRION =     -1    ionic relax: 0-MD 1-quasi-New 2-CG
   NFREE  =      0    steps in history (QN), initial steepest desc. (CG)
   ISIF   =      2    stress and relaxation
   IWAVPR =     10    prediction:  0-non 1-charg 2-wave 3-comb
   ISYM   =     -1    0-nonsym 1-usesym 2-fastsym
   LCORR  =      T    Harris-Foulkes like correction to forces

   POTIM  = 0.5000    time-step for ionic-motion
   TEIN   =    0.0    initial temperature
   TEBEG  =    0.0;   TEEND  =   0.0 temperature during run
   SMASS  =  -3.00    Nose mass-parameter (am)
   estimated Nose-frequenzy (Omega)   =  0.10E-29 period in steps = 0.13E+47 mass=  -0.354E-26a.u.
   SCALEE = 1.0000    scale energy and forces
   NPACO  =    256;   APACO  = 10.0  distance and # of slots for P.C.
   PSTRESS=    0.0 pullay stress

  Mass of Ions in am
   POMASS =  72.61 78.96
  Ionic Valenz
   ZVAL   =   4.00  6.00
  Atomic Wigner-Seitz radii
   RWIGS  =  -1.00 -1.00
  virtual crystal weights 
   VCA    =   1.00  1.00
   NELECT =     360.0000    total number of electrons
   NUPDOWN=      -1.0000    fix difference up-down

 DOS related values:
   EMIN   =  10.00;   EMAX   =-10.00  energy-range for DOS
   EFERMI =   0.00;   METHOD = LEGACY      
   ISMEAR =     0;   SIGMA  =   0.05  broadening in eV -4-tet -1-fermi 0-gaus

 Electronic relaxation 2 (details)
   IALGO  =     38    algorithm
   LDIAG  =      T    sub-space diagonalisation (order eigenvalues)
   LSUBROT=      F    optimize rotation matrix (better conditioning)
   TURBO    =      0    0=normal 1=particle mesh
   IRESTART =      0    0=no restart 2=restart with 2 vectors
   NREBOOT  =      0    no. of reboots
   NMIN     =      0    reboot dimension
   EREF     =   0.00    reference energy to select bands
   IMIX   =      4    mixing-type and parameters
     AMIX     =   0.40;   BMIX     =  1.00
     AMIX_MAG =   1.60;   BMIX_MAG =  1.00
     AMIN     =   0.10
     WC   =   100.;   INIMIX=   1;  MIXPRE=   1;  MAXMIX= -45

 Intra band minimization:
   WEIMIN = 0.0000     energy-eigenvalue tresh-hold
   EBREAK =  0.11E-08  absolut break condition
   DEPER  =   0.30     relativ break condition  

   TIME   =   0.40     timestep for ELM

  volume/ion in A,a.u.               =      23.98       161.83
  Fermi-wavevector in a.u.,A,eV,Ry     =   0.970760  1.834471 12.821803  0.942376
  Thomas-Fermi vector in A             =   2.100922
 
 Write flags
   LWAVE        =      F    write WAVECAR
   LDOWNSAMPLE  =      F    k-point downsampling of WAVECAR
   LCHARG       =      F    write CHGCAR
   LVTOT        =      F    write LOCPOT, total local potential
   LVHAR        =      F    write LOCPOT, Hartree potential only
   LELF         =      F    write electronic localiz. function (ELF)
   LORBIT       =     11    0 simple, 1 ext, 2 COOP (PROOUT), +10 PAW based schemes


 Dipole corrections
   LMONO  =      F    monopole corrections only (constant potential shift)
   LDIPOL =      F    correct potential (dipole corrections)
   IDIPOL =      0    1-x, 2-y, 3-z, 4-all directions 
   EPSILON=  1.0000000 bulk dielectric constant

 Exchange correlation treatment:
   GGA     =    PE    GGA type
   LEXCH   =     8    internal setting for exchange type
   LIBXC   =     F    Libxc                    
   VOSKOWN =     0    Vosko Wilk Nusair interpolation
   LHFCALC =     F    Hartree Fock is set to
   LHFONE  =     F    Hartree Fock one center treatment
   AEXX    =    0.0000 exact exchange contribution

 Linear response parameters
   LEPSILON=     F    determine dielectric tensor
   LRPA    =     F    only Hartree local field effects (RPA)
   LNABLA  =     F    use nabla operator in PAW spheres
   LVEL    =     F    velocity operator in full k-point grid
   CSHIFT  =0.1000    complex shift for real part using Kramers Kronig
   OMEGAMAX=  -1.0    maximum frequency
   DEG_THRESHOLD= 0.2000000E-02 threshold for treating states as degnerate
   RTIME   =   -0.100 relaxation time in fs
  (WPLASMAI=    0.000 imaginary part of plasma frequency in eV, 0.658/RTIME)
   DFIELD  = 0.0000000 0.0000000 0.0000000 field for delta impulse in time
 
  Optional k-point grid parameters
   LKPOINTS_OPT  =     F    use optional k-point grid
   KPOINTS_OPT_MODE=     1    mode for optional k-point grid
 
 Orbital magnetization related:
   ORBITALMAG=     F  switch on orbital magnetization
   LCHIMAG   =     F  perturbation theory with respect to B field
   DQ        =  0.001000  dq finite difference perturbation B field
   LLRAUG    =     F  two centre corrections for induced B field
   LBONE     =     F  B-component reconstruction in AE one-centre
   LVGVCALC  =     T  calculate vGv susceptibility
   LVGVAPPL  =     F  apply vGv susceptibility instead of pGv for G=0

 Random number generation:
   RANDOM_GENERATOR = DEFAULT
   PCG_SEED         = not used


--------------------------------------------------------------------------------------------------------


 Static calculation
 charge density and potential will be updated during run
 spin polarized calculation
 Variant of blocked Davidson
 Davidson routine will perform the subspace rotation
 perform sub-space diagonalisation
    after iterative eigenvector-optimisation
 modified Broyden-mixing scheme, WC =      100.0
 initial mixing is a Kerker type mixing with AMIX =  0.4000 and BMIX =      1.0000
 Hartree-type preconditioning will be used
 using additional bands            44
 reciprocal scheme for non local part
 use partial core corrections
 calculate Harris-corrections to forces 
   (improved forces if not selfconsistent)
 use gradient corrections 
 use of overlap-Matrix (Vanderbilt PP)
 Gauss-broadening in eV      SIGMA  =   0.05


--------------------------------------------------------------------------------------------------------


  energy-cutoff  :      520.00
  volume of cell :     1726.60
      direct lattice vectors                 reciprocal lattice vectors
    12.449474532 -0.000000763 -0.000000818     0.080324675  0.000000005  0.000000007
    -0.000000766 12.511239777  0.000002155     0.000000005  0.079928130 -0.000000018
    -0.000000938  0.000002458 11.085093108     0.000000006 -0.000000016  0.090211240

  length of vectors
    12.449474532 12.511239777 11.085093108     0.080324675  0.079928130  0.090211240


 
 k-points in units of 2pi/SCALE and weight: KPOINTS created by Atomic Simulation Env
   0.00000000  0.00000000  0.00000000       0.125
   0.04016234  0.00000000  0.00000000       0.125
   0.00000000  0.03996407 -0.00000001       0.125
   0.04016234  0.03996407 -0.00000001       0.125
   0.00000000 -0.00000001  0.04510562       0.125
   0.04016234 -0.00000001  0.04510562       0.125
   0.00000001  0.03996406  0.04510561       0.125
   0.04016234  0.03996406  0.04510561       0.125
 
 k-points in reciprocal lattice and weights: KPOINTS created by Atomic Simulation Env
   0.00000000  0.00000000  0.00000000       0.125
   0.50000000  0.00000000  0.00000000       0.125
   0.00000000  0.50000000  0.00000000       0.125
   0.50000000  0.50000000  0.00000000       0.125
   0.00000000  0.00000000  0.50000000       0.125
   0.50000000  0.00000000  0.50000000       0.125
   0.00000000  0.50000000  0.50000000       0.125
   0.50000000  0.50000000  0.50000000       0.125
 
 position of ions in fractional coordinates (direct lattice) 
   0.07416455  0.02217717  0.13857764
   0.24617239  0.84889417  0.34883503
   0.54701838  0.21855253  0.37077150
   0.57879540  0.51698729  0.36554161
   0.56493892  0.85268418  0.35664087
   0.90658438  0.19184172  0.37457882
   0.89856135  0.54481822  0.37542441
   0.89454093  0.87612389  0.35702852
   0.07035212  0.15101492  0.62475491
   0.06800640  0.49928208  0.63550495
   0.09218241  0.84178181  0.60707086
   0.43737086  0.17716212  0.61753368
   0.41748036  0.49414319  0.61584302
   0.41939752  0.84037755  0.64157251
   0.75508111  0.16042049  0.65362880
   0.76663724  0.51086158  0.62362821
   0.20838649  0.52950047  0.35858211
   0.24426446  0.18198155  0.36300126
   0.74564517  0.83097919  0.62293034
   0.91898081  0.69125045  0.86255526
   0.90775377  0.97527753  0.88714206
   0.07005950  0.37588550  0.12275406
   0.06093533  0.71646662  0.10933778
   0.40675984  0.02424662  0.12512710
   0.39204674  0.37307424  0.11392799
   0.71216995  0.03772957  0.13670314
   0.74990786  0.34948452  0.13272868
   0.42074051  0.67714718  0.12310021
   0.24835412  0.31174594  0.86536306
   0.24672973  0.65157743  0.86630496
   0.27386990  0.01180538  0.85560976
   0.59822751  0.34393657  0.87664575
   0.55622091  0.65732847  0.87397192
   0.57212113  0.99077849  0.88848307
   0.92530900  0.33094053  0.86971359
   0.72447535  0.70214982  0.10021484
   0.90419896  0.01823978  0.64770307
   0.24433931  0.33908855  0.64718440
   0.24956651  0.70201501  0.64181940
   0.58210033  0.02973958  0.65499098
   0.56240924  0.34502093  0.63703108
   0.56209854  0.68579846  0.65187054
   0.90289886  0.35510045  0.63081959
   0.71153634  0.01609720  0.36613744
   0.04506006  0.02247296  0.35976993
   0.07401753  0.33061518  0.36214136
   0.03885395  0.67794321  0.34440309
   0.40882337  0.97595295  0.36635917
   0.37926782  0.35202059  0.34148242
   0.37940476  0.67029234  0.35514131
   0.23239472  0.01060968  0.63004754
   0.88603527  0.68340274  0.64778196
   0.87976646  0.84589073  0.12476675
   0.22612923  0.16841824  0.13920785
   0.87291501  0.18380754  0.14783857
   0.70615524  0.34536895  0.35967209
   0.07810171  0.18811022  0.85582304
   0.07260388  0.52108484  0.86153994
   0.05257144  0.84096658  0.83291385
   0.40828172  0.17534675  0.84352481
   0.39698684  0.51814765  0.84613636
   0.41281424  0.85487179  0.86579038
   0.74604109  0.19573698  0.88026287
   0.71954246  0.50475983  0.85002560
   0.73708924  0.84799369  0.85297629
   0.21549972  0.51264549  0.13128412
   0.21895698  0.85733013  0.12465968
   0.56146743  0.16756474  0.14945225
   0.54480406  0.51102170  0.13168640
   0.56008713  0.83514663  0.12494795
   0.90207002  0.50377303  0.15118168
   0.72465576  0.65815652  0.33446396
 
 position of ions in cartesian coordinates  (Angst):
   0.92330950  0.27746422  1.53614606
   3.06471598 10.62071924  3.86687041
   6.81009090  2.73436358  4.11003667
   7.20569786  6.46815242  4.05206341
   7.03319166 10.66813671  3.95339861
  11.28649864  2.40017803  4.15224074
  11.18661585  6.81635157  4.16161497
  11.13656353 10.96139621  3.95769553
   0.87584626  1.88938532  6.92546664
   0.84664296  6.24663932  7.04463256
   1.14762132 10.53173552  6.72943874
   5.44503662  2.21651899  6.84541838
   5.19741010  6.18234512  6.82667794
   5.22127753 10.51416630  7.11189243
   9.40036226  2.00706025  7.24553579
   9.54422978  6.39151270  6.91297727
   2.59430153  6.62470810  3.97491709
   3.04096375  2.27681551  4.02390292
   9.28288937 10.39658080  6.90524200
  11.44082689  8.64840149  9.56150612
  11.30105589 12.20193248  9.83405368
   0.87220351  4.70279388  1.36074095
   0.75861220  8.96388591  1.21202096
   5.06394616  0.30335524  1.38704531
   4.88077557  4.66762126  1.26290288
   8.86614152  0.47204349  1.51536659
   9.33595847  4.37248434  1.47130987
   5.23799759  8.47195075  1.36457840
   3.09187729  3.90033016  9.59263059
   3.07165414  8.15204343  9.60307238
   3.40953548  0.14770178  9.48451364
   7.44761712  4.30307454  9.71770000
   6.92465674  8.22399588  9.68806108
   7.12260589 12.39586900  9.84891927
  11.51960975  4.14047774  9.64085612
   9.01933682  8.78476442  1.11089171
  11.25680128  0.22820321  7.17984817
   3.04189516  4.24241959  7.17409989
   3.10697078  8.78307949  7.11462909
   7.24684259  0.37208018  7.26063553
   7.00169866  4.31664074  7.06154917
   6.99783030  8.58019017  7.22604666
  11.24061551  4.44274779  6.99269389
   8.85825324  0.20139627  4.05866711
   0.56097374  0.28116549  3.98808318
   0.92147880  4.13640667  4.01437137
   0.48371041  8.48191082  3.81774172
   5.08963504 12.21038201  4.06112728
   4.72168444  4.40421460  3.78536490
   4.72338906  8.38618880  3.93677563
   2.89319158  0.13274157  6.98413551
  11.03067234  8.55021645  7.18072406
  10.95262938 10.58314144  1.38305211
   2.81518979  2.10712112  1.54313214
  10.86733289  2.29965993  1.63880402
   8.79126103  4.32099413  3.98699876
   0.97232427  2.35349415  9.48687847
   0.90387891  6.51941942  9.55025154
   0.65448532 10.52153650  9.23292931
   5.08289192  2.19380699  9.35055114
   4.94227639  6.48267130  9.37950110
   5.13931890 10.69550771  9.59736846
   9.28781861  2.44891394  9.75779569
   8.95792431  6.31517278  9.42261340
   9.17637223 10.60945390  9.45532280
   2.68285779  6.41383077  1.45529761
   2.72589855 10.72626299  1.38186585
   6.98997420  2.09644258  1.65669199
   6.78252380  6.39351495  1.45975665
   6.97278971 10.44871956  1.38506105
  11.23029717  6.30282485  1.67586338
   9.02158263  8.23435430  3.70756499
 


--------------------------------------------------------------------------------------------------------


 k-point   1 :   0.0000 0.0000 0.0000  plane waves:   46457
 k-point   2 :   0.5000 0.0000 0.0000  plane waves:   46526
 k-point   3 :   0.0000 0.5000 0.0000  plane waves:   46490
 k-point   4 :   0.5000 0.5000 0.0000  plane waves:   46540
 k-point   5 :   0.0000 0.0000 0.5000  plane waves:   46566
 k-point   6 :   0.5000 0.0000 0.5000  plane waves:   46460
 k-point   7 :   0.0000 0.5000 0.5000  plane waves:   46496
 k-point   8 :   0.5000 0.5000 0.5000  plane waves:   46464

 maximum and minimum number of plane-waves per node :      5847     5774

 maximum number of plane-waves:     46566
 maximum index in each direction: 
   IXMAX=   23   IYMAX=   23   IZMAX=   20
   IXMIN=  -23   IYMIN=  -23   IZMIN=  -21


 parallel 3D FFT for wavefunctions:
    minimum data exchange during FFTs selected (reduces bandwidth)
 parallel 3D FFT for charge:
    minimum data exchange during FFTs selected (reduces bandwidth)


 total amount of memory used by VASP MPI-rank0   111085. kBytes
=======================================================================

   base      :      30000. kBytes
   nonl-proj :      16445. kBytes
   fftplans  :       6180. kBytes
   grid      :      15593. kBytes
   one-center:        146. kBytes
   wavefun   :      42721. kBytes
 
     INWAV:  cpu time      0.0000: real time      0.0001
 Broyden mixing: mesh for mixing (old mesh)
   NGX = 47   NGY = 47   NGZ = 41
  (NGX  =192   NGY  =192   NGZ  =168)
  gives a total of  90569 points

 initial charge density was supplied:
 charge density of overlapping atoms calculated
 number of electron     360.0000000 magnetization      72.0000000
 keeping initial charge density in first step


--------------------------------------------------------------------------------------------------------


 Maximum index for augmentation-charges           759 (set IRDMAX)


--------------------------------------------------------------------------------------------------------


 First call to EWALD:  gamma=   0.148
 Maximum number of real-space cells 3x 3x 3
 Maximum number of reciprocal cells 3x 3x 3

    FEWALD:  cpu time      0.0043: real time      0.0043


--------------------------------------- Ionic step        1  -------------------------------------------




--------------------------------------- Iteration      1(   1)  ---------------------------------------


    POTLOK:  cpu time      0.1383: real time      0.1393
    SETDIJ:  cpu time      0.5941: real time      0.5958
     EDDAV:  cpu time      8.6610: real time      8.7120
       DOS:  cpu time      0.0018: real time      0.0018
    --------------------------------------------
      LOOP:  cpu time      9.3951: real time      9.4489

 eigenvalue-minimisations  :  7168
 total energy-change (2. order) : 0.1816149E+04  (-0.1418958E+05)
 number of electron     360.0000000 magnetization      72.0000000
 augmentation part      360.0000000 magnetization      72.0000000

 Free energy of the ion-electron system (eV)
  ---------------------------------------------------
  alpha Z        PSCENC =       794.91678043
  Ewald energy   TEWEN  =    -12835.18983815
  -Hartree energ DENC   =     -1129.88259669
  -exchange      EXHF   =         0.00000000
  -V(xc)+E(xc)   XCENC  =      -293.86835933
  PAW double counting   =     10738.42099860    -9719.93139476
  entropy T*S    EENTRO =        -0.02297538
  eigenvalues    EBANDS =      1225.25504383
  atomic energy  EATOM  =     13036.45147835
  Solvation  Ediel_sol  =         0.00000000
  ---------------------------------------------------
  free energy    TOTEN  =      1816.14913690 eV

  energy without entropy =     1816.17211228  energy(sigma->0) =     1816.16062459


--------------------------------------------------------------------------------------------------------




--------------------------------------- Iteration      1(   2)  ---------------------------------------


     EDDAV:  cpu time      9.7990: real time      9.8498
       DOS:  cpu time      0.0014: real time      0.0014
    --------------------------------------------
      LOOP:  cpu time      9.8004: real time      9.8512

 eigenvalue-minimisations  :  8488
 total energy-change (2. order) :-0.1881037E+04  (-0.1806607E+04)
 number of electron     360.0000000 magnetization      72.0000000
 augmentation part      360.0000000 magnetization      72.0000000

 Free energy of the ion-electron system (eV)
  ---------------------------------------------------
  alpha Z        PSCENC =       794.91678043
  Ewald energy   TEWEN  =    -12835.18983815
  -Hartree energ DENC   =     -1129.88259669
  -exchange      EXHF   =         0.00000000
  -V(xc)+E(xc)   XCENC  =      -293.86835933
  PAW double counting   =     10738.42099860    -9719.93139476
  entropy T*S    EENTRO =        -0.01569477
  eigenvalues    EBANDS =      -655.78928863
  atomic energy  EATOM  =     13036.45147835
  Solvation  Ediel_sol  =         0.00000000
  ---------------------------------------------------
  free energy    TOTEN  =       -64.88791495 eV

  energy without entropy =      -64.87222017  energy(sigma->0) =      -64.88006756


--------------------------------------------------------------------------------------------------------




--------------------------------------- Iteration      1(   3)  ---------------------------------------


     EDDAV:  cpu time      9.8760: real time      9.9261
       DOS:  cpu time      0.0012: real time      0.0012
    --------------------------------------------
      LOOP:  cpu time      9.8772: real time      9.9273

 eigenvalue-minimisations  :  8576
 total energy-change (2. order) :-0.2169422E+03  (-0.2110523E+03)
 number of electron     360.0000000 magnetization      72.0000000
 augmentation part      360.0000000 magnetization      72.0000000

 Free energy of the ion-electron system (eV)
  ---------------------------------------------------
  alpha Z        PSCENC =       794.91678043
  Ewald energy   TEWEN  =    -12835.18983815
  -Hartree energ DENC   =     -1129.88259669
  -exchange      EXHF   =         0.00000000
  -V(xc)+E(xc)   XCENC  =      -293.86835933
  PAW double counting   =     10738.42099860    -9719.93139476
  entropy T*S    EENTRO =        -0.00017335
  eigenvalues    EBANDS =      -872.74701054
  atomic energy  EATOM  =     13036.45147835
  Solvation  Ediel_sol  =         0.00000000
  ---------------------------------------------------
  free energy    TOTEN  =      -281.83011543 eV

  energy without entropy =     -281.82994208  energy(sigma->0) =     -281.83002876


--------------------------------------------------------------------------------------------------------




--------------------------------------- Iteration      1(   4)  ---------------------------------------


     EDDAV:  cpu time     10.0208: real time     10.0722
       DOS:  cpu time      0.0010: real time      0.0010
    --------------------------------------------
      LOOP:  cpu time     10.0217: real time     10.0732

 eigenvalue-minimisations  :  8784
 total energy-change (2. order) :-0.7995554E+01  (-0.7906436E+01)
 number of electron     360.0000000 magnetization      72.0000000
 augmentation part      360.0000000 magnetization      72.0000000

 Free energy of the ion-electron system (eV)
  ---------------------------------------------------
  alpha Z        PSCENC =       794.91678043
  Ewald energy   TEWEN  =    -12835.18983815
  -Hartree energ DENC   =     -1129.88259669
  -exchange      EXHF   =         0.00000000
  -V(xc)+E(xc)   XCENC  =      -293.86835933
  PAW double counting   =     10738.42099860    -9719.93139476
  entropy T*S    EENTRO =        -0.00002797
  eigenvalues    EBANDS =      -880.74270992
  atomic energy  EATOM  =     13036.45147835
  Solvation  Ediel_sol  =         0.00000000
  ---------------------------------------------------
  free energy    TOTEN  =      -289.82566943 eV

  energy without entropy =     -289.82564146  energy(sigma->0) =     -289.82565545


--------------------------------------------------------------------------------------------------------




--------------------------------------- Iteration      1(   5)  ---------------------------------------


     EDDAV:  cpu time     10.2650: real time     10.3336
       DOS:  cpu time      0.0014: real time      0.0014
    CHARGE:  cpu time      0.4279: real time      0.4296
    MIXING:  cpu time      0.0074: real time      0.0075
    --------------------------------------------
      LOOP:  cpu time     10.7018: real time     10.7721

 eigenvalue-minimisations  :  9024
 total energy-change (2. order) :-0.2862091E+00  (-0.2854322E+00)
 number of electron     359.9999994 magnetization      48.7975683
 augmentation part      -66.8061880 magnetization      49.0098532

 Broyden mixing:
  rms(total) = 0.29160E+01    rms(broyden)= 0.29160E+01
  rms(prec ) = 0.30723E+01
  weight for this iteration     100.00

 Free energy of the ion-electron system (eV)
  ---------------------------------------------------
  alpha Z        PSCENC =       794.91678043
  Ewald energy   TEWEN  =    -12835.18983815
  -Hartree energ DENC   =     -1129.88259669
  -exchange      EXHF   =         0.00000000
  -V(xc)+E(xc)   XCENC  =      -293.86835933
  PAW double counting   =     10738.42099860    -9719.93139476
  entropy T*S    EENTRO =        -0.00002980
  eigenvalues    EBANDS =      -881.02891720
  atomic energy  EATOM  =     13036.45147835
  Solvation  Ediel_sol  =         0.00000000
  ---------------------------------------------------
  free energy    TOTEN  =      -290.11187855 eV

  energy without entropy =     -290.11184875  energy(sigma->0) =     -290.11186365


--------------------------------------------------------------------------------------------------------




--------------------------------------- Iteration      1(   6)  ---------------------------------------


    POTLOK:  cpu time      0.1354: real time      0.1360
    SETDIJ:  cpu time      0.5990: real time      0.6012
     EDDAV:  cpu time      9.3116: real time      9.3609
       DOS:  cpu time      0.0011: real time      0.0011
    CHARGE:  cpu time      0.4248: real time      0.4267
    MIXING:  cpu time      0.0074: real time      0.0074
    --------------------------------------------
      LOOP:  cpu time     10.4794: real time     10.5333

 eigenvalue-minimisations  :  7984
 total energy-change (2. order) : 0.2548378E+00  (-0.2648016E+01)
 number of electron     359.9999995 magnetization      27.9669215
 augmentation part      -66.1928454 magnetization      29.1438440

 Broyden mixing:
  rms(total) = 0.17263E+01    rms(broyden)= 0.17263E+01
  rms(prec ) = 0.17630E+01
  weight for this iteration     100.00

 eigenvalues of (default mixing * dielectric matrix)
  average eigenvalue GAMMA=   1.0071
  1.0071

 Free energy of the ion-electron system (eV)
  ---------------------------------------------------
  alpha Z        PSCENC =       794.91678043
  Ewald energy   TEWEN  =    -12835.18983815
  -Hartree energ DENC   =     -1183.13535164
  -exchange      EXHF   =         0.00000000
  -V(xc)+E(xc)   XCENC  =      -287.29060086
  PAW double counting   =     13023.24372159   -12008.27349005
  entropy T*S    EENTRO =        -0.00000635
  eigenvalues    EBANDS =      -830.57973403
  atomic energy  EATOM  =     13036.45147835
  Solvation  Ediel_sol  =         0.00000000
  ---------------------------------------------------
  free energy    TOTEN  =      -289.85704073 eV

  energy without entropy =     -289.85703437  energy(sigma->0) =     -289.85703755


--------------------------------------------------------------------------------------------------------




--------------------------------------- Iteration      1(   7)  ---------------------------------------


    POTLOK:  cpu time      0.1311: real time      0.1317
    SETDIJ:  cpu time      0.5963: real time      0.5985
     EDDAV:  cpu time      9.3758: real time      9.4220
       DOS:  cpu time      0.0011: real time      0.0012
    CHARGE:  cpu time      0.4262: real time      0.4279
    MIXING:  cpu time      0.0077: real time      0.0077
    --------------------------------------------
      LOOP:  cpu time     10.5382: real time     10.5890

 eigenvalue-minimisations  :  7992
 total energy-change (2. order) :-0.7225923E+01  (-0.8604485E+00)
 number of electron     359.9999995 magnetization       9.1034496
 augmentation part      -66.1837003 magnetization       9.7756890

 Broyden mixing:
  rms(total) = 0.91129E+00    rms(broyden)= 0.91129E+00
  rms(prec ) = 0.92784E+00
  weight for this iteration     100.00

 eigenvalues of (default mixing * dielectric matrix)
  average eigenvalue GAMMA=   1.4612
  0.8615  2.0609

 Free energy of the ion-electron system (eV)
  ---------------------------------------------------
  alpha Z        PSCENC =       794.91678043
  Ewald energy   TEWEN  =    -12835.18983815
  -Hartree energ DENC   =     -1199.76403146
  -exchange      EXHF   =         0.00000000
  -V(xc)+E(xc)   XCENC  =      -290.25003074
  PAW double counting   =     15110.34244826   -14096.99266071
  entropy T*S    EENTRO =        -0.00000000
  eigenvalues    EBANDS =      -816.59710999
  atomic energy  EATOM  =     13036.45147835
  Solvation  Ediel_sol  =         0.00000000
  ---------------------------------------------------
  free energy    TOTEN  =      -297.08296401 eV

  energy without entropy =     -297.08296401  energy(sigma->0) =     -297.08296401


--------------------------------------------------------------------------------------------------------




--------------------------------------- Iteration      1(   8)  ---------------------------------------


    POTLOK:  cpu time      0.1299: real time      0.1308
    SETDIJ:  cpu time      0.5980: real time      0.6000
     EDDAV:  cpu time      9.5001: real time      9.5506
       DOS:  cpu time      0.0008: real time      0.0009
    CHARGE:  cpu time      0.4183: real time      0.4198
    MIXING:  cpu time      0.0075: real time      0.0075
    --------------------------------------------
      LOOP:  cpu time     10.6546: real time     10.7096

 eigenvalue-minimisations  :  8208
 total energy-change (2. order) :-0.3226195E+01  (-0.1731952E+00)
 number of electron     359.9999995 magnetization       4.3256201
 augmentation part      -66.1921052 magnetization       4.6293366

 Broyden mixing:
  rms(total) = 0.32595E+00    rms(broyden)= 0.32595E+00
  rms(prec ) = 0.33110E+00
  weight for this iteration     100.00

 eigenvalues of (default mixing * dielectric matrix)
  average eigenvalue GAMMA=   1.3613
  2.5044  0.9246  0.6549

 Free energy of the ion-electron system (eV)
  ---------------------------------------------------
  alpha Z        PSCENC =       794.91678043
  Ewald energy   TEWEN  =    -12835.18983815
  -Hartree energ DENC   =     -1204.79402320
  -exchange      EXHF   =         0.00000000
  -V(xc)+E(xc)   XCENC  =      -289.90533730
  PAW double counting   =     16904.66829865   -15892.26862869
  entropy T*S    EENTRO =        -0.00000000
  eigenvalues    EBANDS =      -814.18788921
  atomic energy  EATOM  =     13036.45147835
  Solvation  Ediel_sol  =         0.00000000
  ---------------------------------------------------
  free energy    TOTEN  =      -300.30915914 eV

  energy without entropy =     -300.30915914  energy(sigma->0) =     -300.30915914


--------------------------------------------------------------------------------------------------------




--------------------------------------- Iteration      1(   9)  ---------------------------------------


    POTLOK:  cpu time      0.1294: real time      0.1301
    SETDIJ:  cpu time      0.5977: real time      0.5999
     EDDAV:  cpu time     10.3121: real time     10.3627
       DOS:  cpu time      0.0010: real time      0.0010
    CHARGE:  cpu time      0.4183: real time      0.4202
    MIXING:  cpu time      0.0077: real time      0.0078
    --------------------------------------------
      LOOP:  cpu time     11.4663: real time     11.5216

 eigenvalue-minimisations  :  9040
 total energy-change (2. order) :-0.3746950E+00  (-0.4241914E-01)
 number of electron     359.9999995 magnetization       2.2972307
 augmentation part      -66.2279704 magnetization       2.4474060

 Broyden mixing:
  rms(total) = 0.14695E+00    rms(broyden)= 0.14695E+00
  rms(prec ) = 0.14872E+00
  weight for this iteration     100.00

 eigenvalues of (default mixing * dielectric matrix)
  average eigenvalue GAMMA=   1.3284
  2.6323  1.2310  0.8305  0.6199

 Free energy of the ion-electron system (eV)
  ---------------------------------------------------
  alpha Z        PSCENC =       794.91678043
  Ewald energy   TEWEN  =    -12835.18983815
  -Hartree energ DENC   =     -1203.95039157
  -exchange      EXHF   =         0.00000000
  -V(xc)+E(xc)   XCENC  =      -289.93636847
  PAW double counting   =     17186.57671845   -16174.51727615
  entropy T*S    EENTRO =        -0.00000000
  eigenvalues    EBANDS =      -815.03495706
  atomic energy  EATOM  =     13036.45147835
  Solvation  Ediel_sol  =         0.00000000
  ---------------------------------------------------
  free energy    TOTEN  =      -300.68385417 eV

  energy without entropy =     -300.68385417  energy(sigma->0) =     -300.68385417


--------------------------------------------------------------------------------------------------------




--------------------------------------- Iteration      1(  10)  ---------------------------------------


    POTLOK:  cpu time      0.1299: real time      0.1305
    SETDIJ:  cpu time      0.5977: real time      0.5998
     EDDAV:  cpu time      9.4534: real time      9.5029
       DOS:  cpu time      0.0007: real time      0.0007
    CHARGE:  cpu time      0.4165: real time      0.4180
    MIXING:  cpu time      0.0077: real time      0.0078
    --------------------------------------------
      LOOP:  cpu time     10.6059: real time     10.6597

 eigenvalue-minimisations  :  8144
 total energy-change (2. order) :-0.1012871E+00  (-0.9091044E-02)
 number of electron     359.9999995 magnetization       0.7271824
 augmentation part      -66.2286462 magnetization       0.7953329

 Broyden mixing:
  rms(total) = 0.73026E-01    rms(broyden)= 0.73026E-01
  rms(prec ) = 0.74115E-01
  weight for this iteration     100.00

 eigenvalues of (default mixing * dielectric matrix)
  average eigenvalue GAMMA=   1.3754
  2.7057  1.7555  0.9700  0.8201  0.6256

 Free energy of the ion-electron system (eV)
  ---------------------------------------------------
  alpha Z        PSCENC =       794.91678043
  Ewald energy   TEWEN  =    -12835.18983815
  -Hartree energ DENC   =     -1204.20513052
  -exchange      EXHF   =         0.00000000
  -V(xc)+E(xc)   XCENC  =      -289.92850644
  PAW double counting   =     17192.52891003   -16180.48196316
  entropy T*S    EENTRO =        -0.00000000
  eigenvalues    EBANDS =      -814.87687179
  atomic energy  EATOM  =     13036.45147835
  Solvation  Ediel_sol  =         0.00000000
  ---------------------------------------------------
  free energy    TOTEN  =      -300.78514127 eV

  energy without entropy =     -300.78514127  energy(sigma->0) =     -300.78514127


--------------------------------------------------------------------------------------------------------




--------------------------------------- Iteration      1(  11)  ---------------------------------------


    POTLOK:  cpu time      0.1296: real time      0.1303
    SETDIJ:  cpu time      0.5997: real time      0.6018
     EDDAV:  cpu time     10.1290: real time     10.1793
       DOS:  cpu time      0.0007: real time      0.0007
    CHARGE:  cpu time      0.4152: real time      0.4171
    MIXING:  cpu time      0.0081: real time      0.0081
    --------------------------------------------
      LOOP:  cpu time     11.2823: real time     11.3373

 eigenvalue-minimisations  :  8960
 total energy-change (2. order) :-0.3200935E-01  (-0.3716082E-02)
 number of electron     359.9999995 magnetization       0.1812224
 augmentation part      -66.2151658 magnetization       0.1992050

 Broyden mixing:
  rms(total) = 0.28651E-01    rms(broyden)= 0.28651E-01
  rms(prec ) = 0.29239E-01
  weight for this iteration     100.00

 eigenvalues of (default mixing * dielectric matrix)
  average eigenvalue GAMMA=   1.4048
  2.9114  2.1780  1.1682  0.8547  0.6932  0.6231

 Free energy of the ion-electron system (eV)
  ---------------------------------------------------
  alpha Z        PSCENC =       794.91678043
  Ewald energy   TEWEN  =    -12835.18983815
  -Hartree energ DENC   =     -1205.29952165
  -exchange      EXHF   =         0.00000000
  -V(xc)+E(xc)   XCENC  =      -289.88455589
  PAW double counting   =     17117.72034792   -16105.64522213
  entropy T*S    EENTRO =        -0.00000000
  eigenvalues    EBANDS =      -813.88661950
  atomic energy  EATOM  =     13036.45147835
  Solvation  Ediel_sol  =         0.00000000
  ---------------------------------------------------
  free energy    TOTEN  =      -300.81715062 eV

  energy without entropy =     -300.81715062  energy(sigma->0) =     -300.81715062


--------------------------------------------------------------------------------------------------------




--------------------------------------- Iteration      1(  12)  ---------------------------------------


    POTLOK:  cpu time      0.1297: real time      0.1323
    SETDIJ:  cpu time      0.5976: real time      0.5995
     EDDAV:  cpu time      9.8181: real time      9.8710
       DOS:  cpu time      0.0006: real time      0.0006
    CHARGE:  cpu time      0.4212: real time      0.4231
    MIXING:  cpu time      0.0083: real time      0.0083
    --------------------------------------------
      LOOP:  cpu time     10.9756: real time     11.0349

 eigenvalue-minimisations  :  8480
 total energy-change (2. order) :-0.3193393E-02  (-0.4407173E-03)
 number of electron     359.9999995 magnetization       0.0626653
 augmentation part      -66.2145210 magnetization       0.0671705

 Broyden mixing:
  rms(total) = 0.10894E-01    rms(broyden)= 0.10894E-01
  rms(prec ) = 0.11577E-01
  weight for this iteration     100.00

 eigenvalues of (default mixing * dielectric matrix)
  average eigenvalue GAMMA=   1.3630
  3.0062  2.3338  1.2009  0.8704  0.8704  0.6063  0.6533

 Free energy of the ion-electron system (eV)
  ---------------------------------------------------
  alpha Z        PSCENC =       794.91678043
  Ewald energy   TEWEN  =    -12835.18983815
  -Hartree energ DENC   =     -1205.40796299
  -exchange      EXHF   =         0.00000000
  -V(xc)+E(xc)   XCENC  =      -289.88649560
  PAW double counting   =     17081.64957691   -16069.55154926
  entropy T*S    EENTRO =        -0.00000000
  eigenvalues    EBANDS =      -813.80233370
  atomic energy  EATOM  =     13036.45147835
  Solvation  Ediel_sol  =         0.00000000
  ---------------------------------------------------
  free energy    TOTEN  =      -300.82034401 eV

  energy without entropy =     -300.82034401  energy(sigma->0) =     -300.82034401


--------------------------------------------------------------------------------------------------------




--------------------------------------- Iteration      1(  13)  ---------------------------------------


    POTLOK:  cpu time      0.1301: real time      0.1308
    SETDIJ:  cpu time      0.5970: real time      0.5990
     EDDAV:  cpu time     10.9767: real time     11.0306
       DOS:  cpu time      0.0007: real time      0.0007
    CHARGE:  cpu time      0.4218: real time      0.4238
    MIXING:  cpu time      0.0079: real time      0.0079
    --------------------------------------------
      LOOP:  cpu time     12.1342: real time     12.1928

 eigenvalue-minimisations  :  9832
 total energy-change (2. order) :-0.1176059E-03  (-0.6604715E-04)
 number of electron     359.9999995 magnetization       0.0175397
 augmentation part      -66.2157566 magnetization       0.0183367

 Broyden mixing:
  rms(total) = 0.47262E-02    rms(broyden)= 0.47262E-02
  rms(prec ) = 0.49377E-02
  weight for this iteration     100.00

 eigenvalues of (default mixing * dielectric matrix)
  average eigenvalue GAMMA=   1.3461
  3.0516  2.4354  1.0782  1.0440  1.0440  0.8586  0.6480  0.6086

 Free energy of the ion-electron system (eV)
  ---------------------------------------------------
  alpha Z        PSCENC =       794.91678043
  Ewald energy   TEWEN  =    -12835.18983815
  -Hartree energ DENC   =     -1205.32251015
  -exchange      EXHF   =         0.00000000
  -V(xc)+E(xc)   XCENC  =      -289.89595248
  PAW double counting   =     17068.05977301   -16055.95094316
  entropy T*S    EENTRO =        -0.00000000
  eigenvalues    EBANDS =      -813.88924946
  atomic energy  EATOM  =     13036.45147835
  Solvation  Ediel_sol  =         0.00000000
  ---------------------------------------------------
  free energy    TOTEN  =      -300.82046162 eV

  energy without entropy =     -300.82046162  energy(sigma->0) =     -300.82046162


--------------------------------------------------------------------------------------------------------




--------------------------------------- Iteration      1(  14)  ---------------------------------------


    POTLOK:  cpu time      0.1287: real time      0.1294
    SETDIJ:  cpu time      0.6009: real time      0.6030
     EDDAV:  cpu time      9.6455: real time      9.6930
       DOS:  cpu time      0.0008: real time      0.0008
    CHARGE:  cpu time      0.4133: real time      0.4151
    MIXING:  cpu time      0.0078: real time      0.0078
    --------------------------------------------
      LOOP:  cpu time     10.7969: real time     10.8490

 eigenvalue-minimisations  :  8304
 total energy-change (2. order) :-0.1857522E-04  (-0.9512700E-05)
 number of electron     359.9999995 magnetization       0.0055352
 augmentation part      -66.2154379 magnetization       0.0058759

 Broyden mixing:
  rms(total) = 0.17792E-02    rms(broyden)= 0.17792E-02
  rms(prec ) = 0.18955E-02
  weight for this iteration     100.00

 eigenvalues of (default mixing * dielectric matrix)
  average eigenvalue GAMMA=   1.3325
  3.0785  2.4677  1.4506  1.1966  0.8710  0.8710  0.8014  0.6124  0.6436

 Free energy of the ion-electron system (eV)
  ---------------------------------------------------
  alpha Z        PSCENC =       794.91678043
  Ewald energy   TEWEN  =    -12835.18983815
  -Hartree energ DENC   =     -1205.32753726
  -exchange      EXHF   =         0.00000000
  -V(xc)+E(xc)   XCENC  =      -289.89638226
  PAW double counting   =     17063.48075303   -16051.36898423
  entropy T*S    EENTRO =        -0.00000000
  eigenvalues    EBANDS =      -813.88675010
  atomic energy  EATOM  =     13036.45147835
  Solvation  Ediel_sol  =         0.00000000
  ---------------------------------------------------
  free energy    TOTEN  =      -300.82048019 eV

  energy without entropy =     -300.82048019  energy(sigma->0) =     -300.82048019


--------------------------------------------------------------------------------------------------------




--------------------------------------- Iteration      1(  15)  ---------------------------------------


    POTLOK:  cpu time      0.1293: real time      0.1300
    SETDIJ:  cpu time      0.5973: real time      0.5991
     EDDAV:  cpu time      9.8895: real time      9.9501
       DOS:  cpu time      0.0010: real time      0.0010
    CHARGE:  cpu time      0.4168: real time      0.4187
    MIXING:  cpu time      0.0089: real time      0.0089
    --------------------------------------------
      LOOP:  cpu time     11.0428: real time     11.1077

 eigenvalue-minimisations  :  8616
 total energy-change (2. order) :-0.3380385E-05  (-0.1824784E-05)
 number of electron     359.9999995 magnetization       0.0017475
 augmentation part      -66.2156059 magnetization       0.0019603

 Broyden mixing:
  rms(total) = 0.77437E-03    rms(broyden)= 0.77436E-03
  rms(prec ) = 0.82037E-03
  weight for this iteration     100.00

 eigenvalues of (default mixing * dielectric matrix)
  average eigenvalue GAMMA=   1.3010
  3.0914  2.4341  1.6577  1.0872  0.9820  0.9820  0.8309  0.7052  0.6200  0.6200

 Free energy of the ion-electron system (eV)
  ---------------------------------------------------
  alpha Z        PSCENC =       794.91678043
  Ewald energy   TEWEN  =    -12835.18983815
  -Hartree energ DENC   =     -1205.31202684
  -exchange      EXHF   =         0.00000000
  -V(xc)+E(xc)   XCENC  =      -289.89693146
  PAW double counting   =     17062.86783126   -16050.75513199
  entropy T*S    EENTRO =        -0.00000000
  eigenvalues    EBANDS =      -813.90264518
  atomic energy  EATOM  =     13036.45147835
  Solvation  Ediel_sol  =         0.00000000
  ---------------------------------------------------
  free energy    TOTEN  =      -300.82048357 eV

  energy without entropy =     -300.82048357  energy(sigma->0) =     -300.82048357


--------------------------------------------------------------------------------------------------------




--------------------------------------- Iteration      1(  16)  ---------------------------------------


    POTLOK:  cpu time      0.1299: real time      0.1306
    SETDIJ:  cpu time      0.5984: real time      0.6006
     EDDAV:  cpu time      6.8226: real time      6.8559
       DOS:  cpu time      0.0008: real time      0.0036
    --------------------------------------------
      LOOP:  cpu time      7.5517: real time      7.5906

 eigenvalue-minimisations  :  5048
 total energy-change (2. order) :-0.7415354E-06  (-0.1733264E-06)
 number of electron     359.9999995 magnetization       0.0017475
 augmentation part      -66.2156059 magnetization       0.0019603

 Free energy of the ion-electron system (eV)
  ---------------------------------------------------
  alpha Z        PSCENC =       794.91678043
  Ewald energy   TEWEN  =    -12835.18983815
  -Hartree energ DENC   =     -1205.30595565
  -exchange      EXHF   =         0.00000000
  -V(xc)+E(xc)   XCENC  =      -289.89717436
  PAW double counting   =     17062.81264618   -16050.69967441
  entropy T*S    EENTRO =        -0.00000000
  eigenvalues    EBANDS =      -813.90874670
  atomic energy  EATOM  =     13036.45147835
  Solvation  Ediel_sol  =         0.00000000
  ---------------------------------------------------
  free energy    TOTEN  =      -300.82048431 eV

  energy without entropy =     -300.82048431  energy(sigma->0) =     -300.82048431


--------------------------------------------------------------------------------------------------------




 average (electrostatic) potential at core
  the test charge radii are     1.1631  1.0808
  (the norm of the test charge is              1.0000)
       1 -33.4796       2 -33.4400       3 -33.4454       4 -33.5083       5 -33.3933
       6 -33.5016       7 -33.3417       8 -33.6574       9 -33.5046      10 -33.6379
      11 -33.5507      12 -33.2913      13 -33.5062      14 -33.3930      15 -33.3352
      16 -33.4287      17 -33.5603      18 -33.5282      19 -33.6633      20 -33.4439
      21 -33.5219      22 -33.3462      23 -33.7096      24 -33.8325      25 -33.5693
      26 -33.3606      27 -33.4100      28 -33.4946      29 -33.1888      30 -33.3722
      31 -33.4467      32 -33.3848      33 -33.5177      34 -33.6279      35 -33.5487
      36 -33.6652      37 -54.8289      38 -54.4905      39 -54.7044      40 -54.7781
      41 -54.7515      42 -54.7967      43 -54.8891      44 -54.6681      45 -55.0353
      46 -54.6144      47 -54.9283      48 -54.9497      49 -54.8927      50 -54.7018
      51 -54.8301      52 -55.0974      53 -54.9959      54 -54.8189      55 -54.8176
      56 -54.9252      57 -54.7885      58 -54.8421      59 -54.9591      60 -54.8964
      61 -54.9555      62 -55.0694      63 -54.7612      64 -54.7020      65 -54.9363
      66 -54.9656      67 -54.9719      68 -54.9994      69 -54.9919      70 -55.1169
      71 -54.7934      72 -54.8408
 
 
 
 E-fermi :   3.3909     XC(G=0):  -9.3585     alpha+bet : -8.7991

 Fermi energy:         3.3909005367

 spin component 1

 k-point     1 :       0.0000    0.0000    0.0000
  band No.  band energies     occupation 
      1     -10.9454      1.00000
      2     -10.6391      1.00000
      3     -10.4885      1.00000
      4     -10.3826      1.00000
      5     -10.3518      1.00000
      6     -10.3095      1.00000
      7     -10.1330      1.00000
      8     -10.0689      1.00000
      9     -10.0441      1.00000
     10     -10.0017      1.00000
     11      -9.9620      1.00000
     12      -9.9041      1.00000
     13      -9.8847      1.00000
     14      -9.8171      1.00000
     15      -9.6835      1.00000
     16      -9.6764      1.00000
     17      -9.6181      1.00000
     18      -9.5961      1.00000
     19      -9.5617      1.00000
     20      -9.5059      1.00000
     21      -9.4809      1.00000
     22      -9.4195      1.00000
     23      -9.3622      1.00000
     24      -9.3313      1.00000
     25      -9.3097      1.00000
     26      -9.2763      1.00000
     27      -9.2431      1.00000
     28      -9.2085      1.00000
     29      -9.1692      1.00000
     30      -9.1507      1.00000
     31      -9.1184      1.00000
     32      -9.0778      1.00000
     33      -9.0088      1.00000
     34      -8.9824      1.00000
     35      -8.9681      1.00000
     36      -8.8368      1.00000
     37      -5.5627      1.00000
     38      -5.3861      1.00000
     39      -5.3495      1.00000
     40      -5.2474      1.00000
     41      -5.1869      1.00000
     42      -5.1122      1.00000
     43      -5.0084      1.00000
     44      -4.9716      1.00000
     45      -4.7708      1.00000
     46      -4.7385      1.00000
     47      -4.6682      1.00000
     48      -4.5649      1.00000
     49      -4.5298      1.00000
     50      -4.5107      1.00000
     51      -4.4492      1.00000
     52      -4.4285      1.00000
     53      -4.4104      1.00000
     54      -4.3420      1.00000
     55      -4.3294      1.00000
     56      -4.3030      1.00000
     57      -4.2677      1.00000
     58      -4.2268      1.00000
     59      -4.2073      1.00000
     60      -4.1724      1.00000
     61      -4.1275      1.00000
     62      -4.0793      1.00000
     63      -3.9976      1.00000
     64      -3.9609      1.00000
     65      -3.8972      1.00000
     66      -3.8795      1.00000
     67      -3.7090      1.00000
     68      -3.6497      1.00000
     69      -3.5544      1.00000
     70      -3.4657      1.00000
     71      -2.5038      1.00000
     72      -2.3613      1.00000
     73      -1.8716      1.00000
     74      -1.6072      1.00000
     75      -1.5784      1.00000
     76      -1.5264      1.00000
     77      -1.4982      1.00000
     78      -1.4330      1.00000
     79      -1.3482      1.00000
     80      -1.3101      1.00000
     81      -1.2389      1.00000
     82      -1.1918      1.00000
     83      -1.1333      1.00000
     84      -1.0974      1.00000
     85      -1.0119      1.00000
     86      -0.7926      1.00000
     87      -0.7754      1.00000
     88      -0.7666      1.00000
     89      -0.7008      1.00000
     90      -0.6720      1.00000
     91      -0.6396      1.00000
     92      -0.6062      1.00000
     93      -0.5115      1.00000
     94      -0.2114      1.00000
     95      -0.1901      1.00000
     96      -0.1451      1.00000
     97      -0.0918      1.00000
     98      -0.0442      1.00000
     99      -0.0049      1.00000
    100       0.0203      1.00000
    101       0.0583      1.00000
    102       0.0983      1.00000
    103       0.1478      1.00000
    104       0.1936      1.00000
    105       0.2186      1.00000
    106       0.2852      1.00000
    107       0.2883      1.00000
    108       0.3503      1.00000
    109       0.4124      1.00000
    110       0.4171      1.00000
    111       0.4394      1.00000
    112       0.5059      1.00000
    113       0.5267      1.00000
    114       0.5849      1.00000
    115       0.6184      1.00000
    116       0.6313      1.00000
    117       0.6792      1.00000
    118       0.7131      1.00000
    119       0.7245      1.00000
    120       0.7445      1.00000
    121       0.7717      1.00000
    122       0.8376      1.00000
    123       0.8709      1.00000
    124       0.8991      1.00000
    125       0.9378      1.00000
    126       0.9732      1.00000
    127       0.9976      1.00000
    128       1.0313      1.00000
    129       1.0941      1.00000
    130       1.1383      1.00000
    131       1.1527      1.00000
    132       1.1985      1.00000
    133       1.2259      1.00000
    134       1.2676      1.00000
    135       1.2995      1.00000
    136       1.3279      1.00000
    137       1.3901      1.00000
    138       1.4175      1.00000
    139       1.4471      1.00000
    140       1.4758      1.00000
    141       1.4991      1.00000
    142       1.5747      1.00000
    143       1.6225      1.00000
    144       1.6429      1.00000
    145       1.6586      1.00000
    146       1.6769      1.00000
    147       1.7534      1.00000
    148       1.8177      1.00000
    149       1.8671      1.00000
    150       1.9211      1.00000
[...]
   0.382E+00 -.893E+01 -.182E+02   -.849E+00 0.108E+02 0.205E+02   0.348E+00 -.193E+01 -.269E+01   0.924E-05 0.144E-03 -.637E-04
   -.991E+01 0.192E+02 0.150E+02   0.998E+01 -.213E+02 -.175E+02   0.188E+00 0.202E+01 0.271E+01   0.117E-03 -.116E-03 -.184E-03
   -.173E+01 0.609E+01 0.254E+02   0.174E+01 -.710E+01 -.265E+02   -.176E+00 0.843E+00 0.135E+01   -.688E-04 0.185E-03 0.151E-03
   0.119E+02 -.800E+01 0.398E+02   -.122E+02 0.752E+01 -.419E+02   0.204E-03 0.122E+01 0.138E+01   0.698E-04 0.252E-05 0.243E-03
   0.119E+02 0.190E+02 0.347E+02   -.116E+02 -.202E+02 -.366E+02   -.532E+00 0.122E+01 0.179E+01   -.218E-03 -.235E-04 -.148E-03
   -.512E+01 0.112E+02 0.336E+02   0.542E+01 -.124E+02 -.350E+02   -.167E+00 0.889E+00 0.172E+01   -.413E-03 0.414E-03 -.298E-03
   -.177E+02 -.519E+01 0.211E+02   0.193E+02 0.549E+01 -.224E+02   -.152E+01 -.287E+00 0.158E+01   0.354E-04 -.299E-03 -.185E-03
   -.111E+02 0.765E+01 0.488E+02   0.115E+02 -.842E+01 -.507E+02   -.147E+00 0.984E+00 0.140E+01   -.150E-04 -.731E-04 -.226E-03
   -.495E+01 0.125E+02 0.260E+02   0.520E+01 -.135E+02 -.277E+02   0.200E+00 0.118E+01 0.237E+01   -.237E-03 0.335E-03 -.204E-03
   -.843E+01 -.142E+01 -.378E+02   0.837E+01 0.218E+01 0.396E+02   0.319E+00 -.137E+01 -.198E+01   -.291E-03 0.506E-04 -.415E-04
   -.134E+02 0.719E+01 -.247E+02   0.143E+02 -.731E+01 0.268E+02   -.107E+01 -.677E-01 -.180E+01   0.102E-03 -.613E-04 -.578E-04
   0.321E+01 -.867E+01 -.267E+02   -.322E+01 0.935E+01 0.284E+02   -.542E-01 -.900E+00 -.214E+01   -.349E-03 0.285E-03 -.881E-04
   -.163E+02 -.185E+02 -.320E+02   0.172E+02 0.199E+02 0.337E+02   0.101E+00 -.800E+00 -.179E+01   -.176E-04 -.298E-03 0.381E-03
   0.103E+02 -.226E+02 -.292E+02   -.106E+02 0.243E+02 0.310E+02   -.403E+00 -.821E+00 -.247E+01   0.969E-04 -.124E-03 0.532E-03
   0.893E+01 -.754E+01 -.299E+02   -.922E+01 0.847E+01 0.315E+02   0.362E+00 -.135E+01 -.133E+01   0.260E-03 -.127E-03 0.364E-03
   -.967E+00 0.361E+01 -.333E+02   0.156E+01 -.392E+01 0.352E+02   -.875E+00 0.637E+00 -.225E+01   -.194E-04 0.104E-03 0.795E-04
   -.610E+01 -.338E+01 0.299E+02   0.717E+01 0.371E+01 -.321E+02   -.147E+01 -.460E+00 0.217E+01   0.276E-03 0.673E-04 0.519E-04
   -.176E+02 0.512E+01 0.423E+02   0.190E+02 -.498E+01 -.445E+02   -.104E+01 -.514E+00 0.111E+01   0.334E-03 -.415E-03 0.253E-03
   -.891E+01 -.971E+01 0.406E+01   0.888E+01 0.107E+02 -.546E+01   0.340E+00 -.999E+00 0.167E+01   0.277E-03 0.667E-04 -.414E-03
   0.862E+00 -.779E+01 0.279E+02   -.670E+00 0.885E+01 -.297E+02   0.195E+00 -.154E+01 0.158E+01   -.162E-03 0.943E-04 -.190E-03
   -.303E+02 0.621E+01 0.237E+02   0.317E+02 -.682E+01 -.255E+02   -.118E+01 0.402E+00 0.193E+01   0.863E-04 0.108E-03 0.477E-05
   -.240E+02 -.109E+01 -.313E+02   0.255E+02 0.116E+01 0.331E+02   -.116E+01 0.170E+00 -.197E+01   0.126E-03 -.132E-04 0.230E-03
   0.773E+01 0.176E+02 -.298E+02   -.796E+01 -.191E+02 0.315E+02   -.110E+00 0.120E+01 -.196E+01   0.195E-03 0.102E-03 0.121E-03
   0.552E+01 0.730E+01 -.172E+02   -.573E+01 -.770E+01 0.190E+02   0.844E-01 0.704E+00 -.206E+01   -.382E-03 0.176E-03 -.486E-04
   -.357E+02 -.929E+01 -.213E+02   0.378E+02 0.942E+01 0.229E+02   -.151E+01 -.907E-01 -.102E+01   -.308E-04 -.274E-03 0.411E-03
   -.737E+01 -.939E+01 -.330E+02   0.867E+01 0.990E+01 0.345E+02   -.160E+01 -.746E+00 -.108E+01   -.574E-04 0.205E-03 -.317E-03
   0.772E+01 0.213E+02 -.160E+02   -.762E+01 -.228E+02 0.174E+02   0.175E+00 0.136E+01 -.138E+01   -.298E-04 -.155E-03 -.575E-04
   0.217E+02 0.126E+02 -.232E+02   -.221E+02 -.137E+02 0.252E+02   0.384E+00 0.119E+01 -.188E+01   -.291E-03 0.118E-03 -.298E-03
   -.751E+01 0.110E+02 -.161E+02   0.781E+01 -.120E+02 0.178E+02   -.153E+00 0.109E+01 -.205E+01   -.180E-03 0.245E-03 -.200E-03
   -.245E+02 -.670E+01 -.257E+02   0.259E+02 0.753E+01 0.275E+02   -.125E+01 -.284E+00 -.169E+01   0.216E-03 0.474E-05 0.397E-04
   0.556E+01 0.348E+01 -.141E+02   -.611E+01 -.444E+01 0.154E+02   0.362E+00 0.117E+01 -.133E+01   0.335E-03 -.236E-03 0.693E-04
   -.441E+01 -.150E+02 0.214E+02   0.467E+01 0.165E+02 -.230E+02   0.223E+00 -.114E+01 0.167E+01   -.213E-03 -.458E-04 -.198E-04
   -.428E+01 0.308E+01 0.271E+02   0.529E+01 -.319E+01 -.291E+02   -.134E+01 0.217E-01 0.207E+01   -.207E-03 -.103E-03 -.128E-04
   0.159E+02 -.212E+02 0.245E+02   -.165E+02 0.227E+02 -.264E+02   -.418E+00 -.983E+00 0.154E+01   0.125E-03 0.208E-03 0.451E-04
   -.199E+02 0.105E+02 0.170E+02   0.214E+02 -.109E+02 -.184E+02   -.131E+01 0.409E+00 0.171E+01   0.144E-03 -.897E-04 -.514E-04
   0.171E+00 -.833E+01 0.713E+01   -.405E+00 0.914E+01 -.870E+01   0.425E+00 -.839E+00 0.191E+01   -.865E-04 -.501E-04 0.322E-03
   0.498E+01 -.676E+01 0.316E+02   -.534E+01 0.808E+01 -.331E+02   0.157E+00 -.178E+01 0.140E+01   -.457E-04 -.277E-03 0.464E-05
   -.138E+01 -.201E+02 -.303E+02   0.126E+01 0.216E+02 0.317E+02   0.267E+00 -.110E+01 -.135E+01   0.106E-03 -.294E-03 0.517E-03
 -----------------------------------------------------------------------------------------------
   -.154E+02 0.255E+00 0.497E+00   0.391E-13 -.355E-14 0.274E-12   0.154E+02 -.254E+00 -.498E+00   0.820E-03 -.218E-03 0.804E-03
 
 
 POSITION                                       TOTAL-FORCE (eV/Angst)
 -----------------------------------------------------------------------------------
      0.92331      0.27746      1.53615         0.264508      0.116727     -0.597291
      3.06472     10.62072      3.86687         0.235405     -0.446929      0.345932
      6.81009      2.73436      4.11004        -0.040800     -0.198911      0.184265
      7.20570      6.46815      4.05206        -0.072883     -0.049952     -0.169127
      7.03319     10.66814      3.95340         0.663707     -0.136969      0.100566
     11.28650      2.40018      4.15224         0.305810      0.082129     -0.139139
     11.18662      6.81635      4.16161        -0.471603     -0.598988     -0.194803
     11.13656     10.96140      3.95770        -0.417257      0.196843     -0.006821
      0.87585      1.88939      6.92547         0.302801      0.098678      0.339669
      0.84664      6.24664      7.04463         0.392093     -0.667117      0.020203
      1.14762     10.53174      6.72944         0.522518      0.100828     -0.091164
      5.44504      2.21652      6.84542        -0.109315      0.058279     -0.178941
      5.19741      6.18235      6.82668        -0.330168     -0.372109      0.090516
      5.22128     10.51417      7.11189        -0.051045     -0.311452     -0.365285
      9.40036      2.00706      7.24554        -0.273625      0.183224     -0.142277
      9.54423      6.39151      6.91298        -0.488399     -0.219005      0.029941
      2.59430      6.62471      3.97492         0.225540      0.309773      0.093392
      3.04096      2.27682      4.02390        -0.223132      0.788850      0.068290
      9.28289     10.39658      6.90524        -0.546661      0.040788      0.155290
     11.44083      8.64840      9.56151         0.115099     -0.583708      0.985944
     11.30106     12.20193      9.83405        -0.264133      0.355613     -0.331617
      0.87220      4.70279      1.36074        -0.497449     -0.580937      0.415684
      0.75861      8.96389      1.21202        -0.194622     -0.052614      0.311013
      5.06395      0.30336      1.38705        -0.176963      0.350451      0.642040
      4.88078      4.66762      1.26290        -0.346083      0.010076     -0.043835
      8.86614      0.47204      1.51537         0.723027     -0.135564      0.245701
      9.33596      4.37248      1.47131         0.130930      0.271339      0.056325
      5.23800      8.47195      1.36458        -0.426161      0.054044      0.373079
      3.09188      3.90033      9.59263        -0.074116      0.192543      0.361921
      3.07165      8.15204      9.60307        -0.383544      0.319649      0.068638
      3.40954      0.14770      9.48451        -0.305577      0.182228      0.089266
      7.44762      4.30307      9.71770        -0.069490     -0.172262     -0.282011
      6.92466      8.22400      9.68806         0.357289     -0.465394     -0.098721
      7.12261     12.39587      9.84892         0.338813      0.048277     -0.530090
     11.51961      4.14048      9.64086        -0.118944     -0.069871     -0.338499
      9.01934      8.78476      1.11089         0.256449     -0.059753      0.252474
     11.25680      0.22820      7.17985        -0.169103     -0.166142      0.308127
      3.04190      4.24242      7.17410        -0.346834      0.729289     -0.739961
      3.10697      8.78308      7.11463        -0.221763     -0.037983     -0.136004
      7.24684      0.37208      7.26064         0.138764     -0.282122      0.269001
      7.00170      4.31664      7.06155         0.126503      0.016122      0.259753
      6.99783      8.58019      7.22605         0.222948      0.206652     -0.462252
     11.24062      4.44275      6.99269         0.446029      0.191994      0.604574
      8.85825      0.20140      4.05867         0.264268     -0.619171     -0.198093
      0.56097      0.28117      3.98808        -0.170994     -0.183859      0.317097
      0.92148      4.13641      4.01437        -0.061663     -0.219316     -0.455444
      0.48371      8.48191      3.81774         0.990356      0.629494     -0.158484
      5.08964     12.21038      4.06113        -0.682114      0.919714     -0.730934
      4.72168      4.40421      3.78536         0.072348     -0.417584      0.225121
      4.72339      8.38619      3.93678        -0.286866      0.322369     -0.416615
      2.89319      0.13274      6.98414        -0.400915     -0.135914     -0.007055
     11.03067      8.55022      7.18072         0.386686     -0.375959     -1.053720
     10.95263     10.58314      1.38305         0.316544     -0.035129      0.271595
      2.81519      2.10712      1.54313         0.387080     -0.478457     -0.168721
     10.86733      2.29966      1.63880         0.142367     -0.200540      0.074517
      8.79126      4.32099      3.98700         0.252460      0.244952     -0.117062
      0.97232      2.35349      9.48688        -0.340912     -0.294002     -0.184675
      0.90388      6.51942      9.55025        -0.121938      0.300410     -0.311191
      0.65449     10.52154      9.23293         0.551383      0.046800      0.546922
      5.08289      2.19381      9.35055        -0.301607     -0.232252      0.408912
      4.94228      6.48267      9.37950         0.273891     -0.185983      0.030540
      5.13932     10.69551      9.59737        -0.056238      0.092035      0.103050
      9.28782      2.44891      9.75780         0.146698      0.010009     -0.328438
      8.95792      6.31517      9.42261         0.114557      0.552664      0.111621
      9.17637     10.60945      9.45532        -0.190125      0.208115     -0.005243
      2.68286      6.41383      1.45530         0.488705      0.331662      0.013062
      2.72590     10.72626      1.38187        -0.328981     -0.084075      0.023658
      6.98997      2.09644      1.65669        -0.983942      0.539635     -0.332100
      6.78252      6.39351      1.45976         0.250117      0.040373      0.273088
      6.97279     10.44872      1.38506         0.190961     -0.030928      0.339632
     11.23030      6.30282      1.67586        -0.202251     -0.455639     -0.119018
      9.02158      8.23435      3.70756         0.151562      0.413964      0.024213
 -----------------------------------------------------------------------------------
    total drift:                                0.001611      0.000433     -0.000164


--------------------------------------------------------------------------------------------------------



  FREE ENERGIE OF THE ION-ELECTRON SYSTEM (eV)
  ---------------------------------------------------
  free  energy   TOTEN  =      -300.82048431 eV

  energy  without entropy=     -300.82048431  energy(sigma->0) =     -300.82048431
 


--------------------------------------------------------------------------------------------------------


    POTLOK:  cpu time      0.7278: real time      0.7306


--------------------------------------------------------------------------------------------------------


     LOOP+:  cpu time    181.6171: real time    182.5623
    4ORBIT:  cpu time      0.0000: real time      0.0000



 total charge

# of ion       s       p       d       tot
------------------------------------------
    1        1.321   0.778   0.056   2.155
    2        1.313   0.788   0.054   2.156
    3        1.309   0.802   0.060   2.171
    4        1.322   0.763   0.057   2.142
    5        1.322   0.785   0.060   2.167
    6        1.325   0.743   0.051   2.119
    7        1.291   0.850   0.067   2.208
    8        1.331   0.730   0.047   2.108
    9        1.325   0.746   0.052   2.123
   10        1.326   0.723   0.045   2.095
   11        1.329   0.741   0.052   2.122
   12        1.314   0.793   0.063   2.169
   13        1.334   0.724   0.051   2.109
   14        1.323   0.777   0.059   2.159
   15        1.323   0.776   0.056   2.156
   16        1.316   0.783   0.058   2.156
   17        1.335   0.726   0.052   2.113
   18        1.327   0.742   0.051   2.120
   19        1.331   0.737   0.053   2.122
   20        1.313   0.816   0.068   2.197
   21        1.334   0.741   0.055   2.130
   22        1.312   0.785   0.056   2.152
   23        1.333   0.720   0.047   2.101
   24        1.331   0.709   0.047   2.086
   25        1.329   0.751   0.054   2.134
   26        1.310   0.805   0.064   2.180
   27        1.314   0.783   0.055   2.152
   28        1.315   0.782   0.056   2.152
   29        1.303   0.826   0.063   2.192
   30        1.317   0.789   0.057   2.163
   31        1.319   0.785   0.054   2.159
   32        1.319   0.772   0.057   2.147
   33        1.307   0.787   0.059   2.153
   34        1.322   0.745   0.054   2.120
   35        1.330   0.727   0.049   2.106
   36        1.334   0.728   0.052   2.114
   37        1.475   2.304   0.030   3.808
   38        1.475   2.289   0.026   3.789
   39        1.474   2.296   0.027   3.797
   40        1.477   2.292   0.029   3.798
   41        1.475   2.300   0.029   3.803
   42        1.476   2.299   0.030   3.805
   43        1.481   2.273   0.030   3.785
   44        1.479   2.271   0.026   3.776
   45        1.477   2.307   0.035   3.819
   46        1.477   2.264   0.024   3.765
   47        1.476   2.308   0.032   3.816
   48        1.480   2.299   0.034   3.813
   49        1.476   2.295   0.031   3.802
   50        1.479   2.265   0.026   3.770
   51        1.478   2.284   0.029   3.792
   52        1.473   2.347   0.039   3.859
   53        1.476   2.285   0.030   3.792
   54        1.478   2.292   0.030   3.800
   55        1.477   2.299   0.033   3.809
   56        1.478   2.303   0.033   3.814
   57        1.476   2.298   0.030   3.804
   58        1.480   2.281   0.030   3.791
   59        1.472   2.339   0.037   3.848
   60        1.478   2.306   0.034   3.819
   61        1.475   2.316   0.035   3.826
   62        1.480   2.312   0.039   3.831
   63        1.479   2.292   0.030   3.800
   64        1.474   2.304   0.029   3.806
   65        1.475   2.299   0.032   3.806
   66        1.476   2.313   0.035   3.824
   67        1.480   2.291   0.032   3.802
   68        1.474   2.326   0.036   3.837
   69        1.477   2.307   0.034   3.818
   70        1.479   2.300   0.037   3.815
   71        1.478   2.290   0.029   3.797
   72        1.474   2.310   0.030   3.814
--------------------------------------------------
tot        100.723 110.308   3.122 214.154



 magnetization (x)

# of ion       s       p       d       tot
------------------------------------------
    1       -0.000   0.000   0.000   0.000
    2       -0.000   0.000   0.000   0.000
    3       -0.000   0.000  -0.000  -0.000
    4       -0.000   0.000  -0.000   0.000
    5       -0.000   0.000   0.000   0.000
    6       -0.000   0.000  -0.000   0.000
    7       -0.000   0.000  -0.000   0.000
    8       -0.000   0.000   0.000   0.000
    9       -0.000   0.000  -0.000  -0.000
   10       -0.000   0.000   0.000   0.000
   11       -0.000   0.000   0.000   0.000
   12       -0.000   0.000  -0.000   0.000
   13       -0.000   0.000  -0.000   0.000
   14       -0.000   0.000   0.000   0.000
   15       -0.000  -0.000  -0.000  -0.000
   16       -0.000   0.000  -0.000   0.000
   17       -0.000   0.000   0.000   0.000
   18       -0.000   0.000  -0.000  -0.000
   19       -0.000   0.000   0.000   0.000
   20       -0.000   0.000   0.000   0.000
   21       -0.000   0.000   0.000   0.000
   22       -0.000   0.000  -0.000   0.000
   23       -0.000   0.000   0.000   0.000
   24       -0.000   0.000   0.000   0.000
   25       -0.000  -0.000  -0.000  -0.000
   26       -0.000   0.000   0.000   0.000
   27       -0.000  -0.000  -0.000  -0.000
   28       -0.000   0.000   0.000   0.000
   29       -0.000   0.000  -0.000  -0.000
   30       -0.000   0.000   0.000   0.000
   31       -0.000   0.000   0.000   0.000
   32       -0.000  -0.000  -0.000  -0.000
   33       -0.000   0.000   0.000   0.000
   34       -0.000   0.000   0.000   0.000
   35       -0.000  -0.000  -0.000  -0.000
   36       -0.000   0.000   0.000   0.000
   37       -0.000  -0.000   0.000  -0.000
   38       -0.000  -0.000  -0.000  -0.000
   39       -0.000  -0.000   0.000  -0.000
   40       -0.000  -0.000   0.000  -0.000
   41       -0.000  -0.000  -0.000  -0.000
   42       -0.000  -0.000   0.000  -0.000
   43       -0.000  -0.000  -0.000  -0.000
   44       -0.000  -0.000   0.000  -0.000
   45       -0.000  -0.000   0.000  -0.000
   46       -0.000  -0.000  -0.000  -0.000
   47       -0.000  -0.000   0.000  -0.000
   48       -0.000  -0.000   0.000  -0.000
   49       -0.000  -0.000  -0.000  -0.000
   50       -0.000  -0.000   0.000  -0.000
   51       -0.000  -0.000   0.000  -0.000
   52       -0.000  -0.000   0.000  -0.000
   53       -0.000  -0.000   0.000  -0.000
   54       -0.000  -0.000  -0.000  -0.000
   55       -0.000  -0.000  -0.000  -0.000
   56       -0.000  -0.000  -0.000  -0.000
   57       -0.000  -0.000  -0.000  -0.000
   58       -0.000  -0.000   0.000  -0.000
   59       -0.000  -0.000   0.000  -0.000
   60       -0.000  -0.000  -0.000  -0.000
   61       -0.000  -0.000   0.000  -0.000
   62       -0.000  -0.000   0.000  -0.000
   63       -0.000  -0.000  -0.000  -0.000
   64       -0.000  -0.000  -0.000  -0.000
   65       -0.000  -0.000   0.000  -0.000
   66       -0.000  -0.000   0.000  -0.000
   67       -0.000  -0.000   0.000  -0.000
   68       -0.000  -0.000  -0.000  -0.000
   69       -0.000  -0.000  -0.000  -0.000
   70       -0.000  -0.000   0.000  -0.000
   71       -0.000  -0.000   0.000  -0.000
   72       -0.000  -0.000   0.000  -0.000
--------------------------------------------------
tot         -0.000  -0.000   0.000  -0.000
 

 total amount of memory used by VASP MPI-rank0   111085. kBytes
=======================================================================

   base      :      30000. kBytes
   nonl-proj :      16445. kBytes
   fftplans  :       6180. kBytes
   grid      :      15593. kBytes
   one-center:        146. kBytes
   wavefun   :      42721. kBytes
 
  
  
 General timing and accounting informations for this job:
 ========================================================
  
                  Total CPU time used (sec):      193.187
                            User time (sec):      187.007
                          System time (sec):        6.180
                         Elapsed time (sec):      195.663
  
                   Maximum memory used (kb):      315824.
                   Average memory used (kb):          N/A
  
                          Minor page faults:       102918
                          Major page faults:           38
                 Voluntary context switches:         8552
