 vasp.6.4.2 20Jul23 (build Oct 12 2023 10:31:02) complex                         
 executed on              LinuxNV date 2024.11.01  22:38:47
 running  128 mpi-ranks, with    1 threads/rank, on    2 nodes
 distrk:  each k-point on   64 cores,    2 groups
 distr:  one band on NCORE=   8 cores,    8 groups


--------------------------------------------------------------------------------------------------------


 INCAR:
   ENCUT = 520.000000
   SIGMA = 0.050000
   EDIFF = 1.00e-06
   ALGO = N
   GGA = PE
   PREC = Accurate
   SYSTEM = 01_AOPT
   ICHARG = 0
   ISMEAR = 0
   ISPIN = 2
   ISTART = 1
   ISYM = -1
   KPAR = 2
   LORBIT = 11
   NBANDS = 220
   NELM = 100
   NELMIN = 5
   NPAR = 8
   LASPH = .TRUE.
   LCHARG = .FALSE.
   LWAVE = .FALSE.
   LREAL = .FALSE.

 POTCAR:    PAW_PBE Ge 05Jan2001                  
 POTCAR:    PAW_PBE Se 06Sep2000                  
 -----------------------------------------------------------------------------
|                                                                             |
|           W    W    AA    RRRRR   N    N  II  N    N   GGGG   !!!           |
|           W    W   A  A   R    R  NN   N  II  NN   N  G    G  !!!           |
|           W    W  A    A  R    R  N N  N  II  N N  N  G       !!!           |
|           W WW W  AAAAAA  RRRRR   N  N N  II  N  N N  G  GGG   !            |
|           WW  WW  A    A  R   R   N   NN  II  N   NN  G    G                |
|           W    W  A    A  R    R  N    N  II  N    N   GGGG   !!!           |
|                                                                             |
|     You use a magnetic or noncollinear calculation, but did not specify     |
|     the initial magnetic moment with the MAGMOM tag. Note that a            |
|     default of 1 will be used for all atoms. This ferromagnetic setup       |
|     may break the symmetry of the crystal, in particular it may rule        |
|     out finding an antiferromagnetic solution. Thence, we recommend         |
|     setting the initial magnetic moment manually or verifying carefully     |
|     that this magnetic setup is desired.                                    |
|                                                                             |
 -----------------------------------------------------------------------------

 POTCAR:    PAW_PBE Ge 05Jan2001                  
   VRHFIN =Ge: s2p2                                                                                 
   LEXCH  = PE                                                                                      
   EATOM  =   104.9960 eV,    7.7170 Ry                                                             
                                                                                                    
   TITEL  = PAW_PBE Ge 05Jan2001                                                                    
   LULTRA =        F    use ultrasoft PP ?                                                          
   IUNSCR =        1    unscreen: 0-lin 1-nonlin 2-no                                               
   RPACOR =    2.170    partial core radius                                                         
   POMASS =   72.610; ZVAL   =    4.000    mass and valenz                                          
   RCORE  =    2.300    outmost cutoff radius                                                       
   RWIGS  =    2.300; RWIGS  =    1.217    wigner-seitz radius (au A)                               
   ENMAX  =  173.807; ENMIN  =  130.355 eV                                                          
   ICORE  =        3    local potential                                                             
   LCOR   =        T    correct aug charges                                                         
   LPAW   =        T    paw PP                                                                      
   EAUG   =  385.843                                                                                
   DEXC   =    0.000                                                                                
   RMAX   =    2.342    core radius for proj-oper                                                   
   RAUG   =    1.300    factor for augmentation sphere                                              
   RDEP   =    2.318    radius for radial grids                                                     
   RDEPT  =    2.103    core radius for aug-charge                                                  
                                                                                                    
   Atomic configuration                                                                             
   10 entries                                                                                       
     n  l   j            E        occ.                                                              
     1  0  0.50    -10959.8463   2.0000                                                             
     2  0  0.50     -1371.6056   2.0000                                                             
     2  1  1.50     -1198.4791   6.0000                                                             
     3  0  0.50      -168.4733   2.0000                                                             
     3  1  1.50      -115.6019   6.0000                                                             
     3  2  2.50       -29.3106  10.0000                                                             
     4  0  0.50       -11.7309   2.0000                                                             
     4  1  0.50        -3.8952   2.0000                                                             
     4  2  1.50        -4.0817   0.0000                                                             
     4  3  2.50        -4.0817   0.0000                                                             
   Description                                                                                      
     l       E           TYP  RCUT    TYP  RCUT                                                     
     0    -11.7309493     23  2.300                                                                 
     0     -7.4578696     23  2.300                                                                 
     1     -3.8952261     23  2.300                                                                 
     1      6.1178114     23  2.300                                                                 
     2     -4.0817478     23  2.300                                                                 
     3     -1.3605826      7  2.300                                                                 
  local pseudopotential read in
  partial core-charges read in
  partial kinetic energy density read in
  atomic valenz-charges read in
  non local Contribution for L=            0  read in
    real space projection operators read in
  non local Contribution for L=            0  read in
    real space projection operators read in
  non local Contribution for L=            1  read in
    real space projection operators read in
  non local Contribution for L=            1  read in
    real space projection operators read in
  non local Contribution for L=            2  read in
    real space projection operators read in
    PAW grid and wavefunctions read in
 
   number of l-projection  operators is LMAX  =            5
   number of lm-projection operators is LMMAX =           13
 
 POTCAR:    PAW_PBE Se 06Sep2000                  
   VRHFIN =Se: s2p4                                                                                 
   LEXCH  = PE                                                                                      
   EATOM  =   257.1286 eV,   18.8984 Ry                                                             
                                                                                                    
   TITEL  = PAW_PBE Se 06Sep2000                                                                    
   LULTRA =        F    use ultrasoft PP ?                                                          
   IUNSCR =        1    unscreen: 0-lin 1-nonlin 2-no                                               
   RPACOR =    1.900    partial core radius                                                         
   POMASS =   78.960; ZVAL   =    6.000    mass and valenz                                          
   RCORE  =    2.100    outmost cutoff radius                                                       
   RWIGS  =    2.200; RWIGS  =    1.164    wigner-seitz radius (au A)                               
   ENMAX  =  211.555; ENMIN  =  158.666 eV                                                          
   ICORE  =        3    local potential                                                             
   LCOR   =        T    correct aug charges                                                         
   LPAW   =        T    paw PP                                                                      
   EAUG   =  446.842                                                                                
   DEXC   =    0.000                                                                                
   RMAX   =    2.147    core radius for proj-oper                                                   
   RAUG   =    1.300    factor for augmentation sphere                                              
   RDEP   =    2.177    radius for radial grids                                                     
   RDEPT  =    1.928    core radius for aug-charge                                                  
                                                                                                    
   Atomic configuration                                                                             
   10 entries                                                                                       
     n  l   j            E        occ.                                                              
     1  0  0.50    -12503.4787   2.0000                                                             
     2  0  0.50     -1606.9547   2.0000                                                             
     2  1  1.50     -1413.3140   6.0000                                                             
     3  0  0.50      -213.4885   2.0000                                                             
     3  1  1.50      -152.9538   6.0000                                                             
     3  2  2.50       -53.1221  10.0000                                                             
     4  0  0.50       -17.2865   2.0000                                                             
     4  1  0.50        -6.5110   4.0000                                                             
     4  2  2.50        -6.8029   0.0000                                                             
     4  3  2.50        -6.8029   0.0000                                                             
   Description                                                                                      
     l       E           TYP  RCUT    TYP  RCUT                                                     
     0    -17.2865377     23  2.100                                                                 
     0    -15.3094411     23  2.100                                                                 
     1     -6.5110275     23  2.100                                                                 
     1     -0.0695192     23  2.100                                                                 
     2     -6.8029130     23  2.100                                                                 
     3     -1.3605826      7  2.100                                                                 
  local pseudopotential read in
  partial core-charges read in
  partial kinetic energy density read in
  atomic valenz-charges read in
  non local Contribution for L=            0  read in
    real space projection operators read in
  non local Contribution for L=            0  read in
    real space projection operators read in
  non local Contribution for L=            1  read in
    real space projection operators read in
  non local Contribution for L=            1  read in
    real space projection operators read in
  non local Contribution for L=            2  read in
    real space projection operators read in
    PAW grid and wavefunctions read in
 
   number of l-projection  operators is LMAX  =            5
   number of lm-projection operators is LMMAX =           13
 
 -----------------------------------------------------------------------------
|                                                                             |
|               ----> ADVICE to this user running VASP <----                  |
|                                                                             |
|     You have a (more or less) 'large supercell' and for larger cells it     |
|     might be more efficient to use real-space projection operators.         |
|     Therefore, try LREAL= Auto in the INCAR file.                           |
|     Mind: For very accurate calculation, you might also keep the            |
|     reciprocal projection scheme (i.e. LREAL=.FALSE.).                      |
|                                                                             |
 -----------------------------------------------------------------------------

  PAW_PBE Ge 05Jan2001                  :
 energy of atom  1       EATOM= -104.9960
 kinetic energy error for atom=    0.0002 (will be added to EATOM!!)
  PAW_PBE Se 06Sep2000                  :
 energy of atom  2       EATOM= -257.1286
 kinetic energy error for atom=    0.0007 (will be added to EATOM!!)
 
 
 POSCAR: Ge Se
  positions in cartesian coordinates
  No initial velocities read in
 exchange correlation table for  LEXCH =        8
   RHO(1)=    0.500       N(1)  =     2000
   RHO(2)=  100.500       N(2)  =     4000
 


--------------------------------------------------------------------------------------------------------


 ion  position               nearest neighbor table
   1  0.055  0.052  0.127-  45 2.52  55 2.60  54 2.84
   2  0.266  0.873  0.370-  48 2.54  67 2.61
   3  0.564  0.212  0.376-  68 2.61  56 2.65  49 2.71
   4  0.552  0.529  0.373-  69 2.49  49 2.58  50 2.65
   5  0.589  0.874  0.373-  70 2.51  44 2.59
   6  0.890  0.206  0.374-  56 2.59  55 2.67  46 2.84
   7  0.927  0.534  0.365-  71 2.52  47 2.63  46 2.81
   8  0.916  0.880  0.368-  53 2.55  44 2.76  45 2.78
   9  0.080  0.167  0.640-  57 2.54  51 2.82
  10  0.084  0.482  0.640-  58 2.55  38 2.70  43 2.73
  11  0.065  0.811  0.644-  52 2.57  59 2.60  39 2.62
  12  0.388  0.144  0.629-  51 2.50  60 2.51  40 2.84
  13  0.418  0.492  0.633-  61 2.60  41 2.64  38 2.65
  14  0.397  0.825  0.649-  62 2.51  39 2.58
  15  0.726  0.169  0.639-  63 2.46  40 2.61  37 2.82
  16  0.737  0.496  0.625-  64 2.63  41 2.73
  17  0.228  0.531  0.356-  66 2.46  50 2.74  47 2.74
  18  0.231  0.202  0.386-  54 2.63  46 2.85
  19  0.744  0.828  0.657-  65 2.40  42 2.74  52 2.81
  20  0.910  0.646  0.871-  52 2.47  64 2.54  58 2.63
  21  0.902  0.007  0.858-  37 2.40  59 2.73  65 2.82
  22  0.059  0.368  0.129-  46 2.51  71 2.69  66 2.75
  23  0.068  0.715  0.134-  53 2.55  47 2.62  67 2.67
  24  0.372  0.039  0.132-  54 2.58  48 2.66
  25  0.406  0.385  0.141-  49 2.58  66 2.58  69 2.70
  26  0.718  0.056  0.132-  68 2.58  55 2.60  44 2.67
  27  0.708  0.381  0.133-  69 2.52  56 2.56
  28  0.399  0.706  0.133-  50 2.52  67 2.60  70 2.63
  29  0.250  0.321  0.877-  38 2.60  60 2.65  57 2.66
  30  0.242  0.658  0.876-  61 2.55  39 2.58  58 2.84
  31  0.239  0.002  0.860-  51 2.59  57 2.77  59 2.81
  32  0.555  0.326  0.868-  41 2.59  60 2.69  63 2.80
  33  0.563  0.664  0.871-  42 2.50  61 2.77  62 2.82
  34  0.572  0.968  0.879-  62 2.51  65 2.62  40 2.72
  35  0.891  0.339  0.846-  43 2.49  64 2.66  63 2.66
  36  0.716  0.705  0.138-  72 2.46  70 2.76
  37  0.899  0.023  0.642-  21 2.40  15 2.82
  38  0.257  0.352  0.645-  29 2.60  13 2.65  10 2.70
  39  0.238  0.692  0.646-  14 2.58  30 2.58  11 2.62
  40  0.579  0.020  0.641-  15 2.61  34 2.72  12 2.84
  41  0.574  0.349  0.637-  32 2.59  13 2.64  16 2.73
  42  0.580  0.682  0.647-  33 2.50  19 2.74
  43  0.915  0.344  0.622-  35 2.49  10 2.73
  44  0.741  0.016  0.368-   5 2.59  26 2.67   8 2.76
  45  0.086  0.024  0.350-   1 2.52   8 2.78
  46  0.062  0.354  0.355-  22 2.51   7 2.81   6 2.84  18 2.85
  47  0.073  0.686  0.369-  23 2.62   7 2.63  17 2.74
  48  0.400  0.026  0.369-   2 2.54  24 2.66
  49  0.417  0.373  0.373-  25 2.58   4 2.58   3 2.71
  50  0.396  0.673  0.357-  28 2.52   4 2.65  17 2.74
  51  0.240  0.008  0.627-  12 2.50  31 2.59   9 2.82
  52  0.910  0.675  0.650-  20 2.47  11 2.57  19 2.81
  53  0.918  0.856  0.139-   8 2.55  23 2.55
  54  0.234  0.192  0.149-  24 2.58  18 2.63   1 2.84
  55  0.888  0.177  0.136-   1 2.60  26 2.60   6 2.67
  56  0.733  0.341  0.358-  27 2.56   6 2.59   3 2.65
  57  0.097  0.172  0.869-   9 2.54  29 2.66  31 2.77
  58  0.071  0.509  0.867-  10 2.55  20 2.63  30 2.84
  59  0.064  0.860  0.872-  11 2.60  21 2.73  31 2.81
  60  0.402  0.174  0.853-  12 2.51  29 2.65  32 2.69
  61  0.393  0.520  0.864-  30 2.55  13 2.60  33 2.77
  62  0.419  0.838  0.874-  34 2.51  14 2.51  33 2.82
  63  0.735  0.193  0.859-  15 2.46  35 2.66  32 2.80
  64  0.761  0.506  0.860-  20 2.54  16 2.63  35 2.66
  65  0.744  0.845  0.873-  19 2.40  34 2.62  21 2.82
  66  0.235  0.503  0.136-  17 2.46  25 2.58  22 2.75
  67  0.240  0.842  0.139-  28 2.60   2 2.61  23 2.67
  68  0.556  0.185  0.142-  26 2.58   3 2.61
  69  0.570  0.527  0.149-   4 2.49  27 2.52  25 2.70
  70  0.551  0.852  0.152-   5 2.51  28 2.63  36 2.76
  71  0.904  0.519  0.140-   7 2.52  22 2.69
  72  0.743  0.681  0.356-  36 2.46
 

IMPORTANT INFORMATION: All symmetrisations will be switched off!
NOSYMM: (Re-)initialisation of all symmetry stuff for point group C_1.


----------------------------------------------------------------------------------------

                                     Primitive cell                                     

  volume of cell :    1719.9493

  direct lattice vectors                    reciprocal lattice vectors
    12.415523737 -0.000008134  0.000003058     0.080544327  0.000000053 -0.000000026
    -0.000008197 12.511267557  0.000000082     0.000000052  0.079927953 -0.000000001
     0.000003511  0.000000093 11.072592083    -0.000000022 -0.000000001  0.090313090

  length of vectors
    12.415523737 12.511267557 11.072592083     0.080544327  0.079927953  0.090313090

  position of ions in fractional coordinates (direct lattice)
     0.054674010  0.052183063  0.127458599
     0.266052948  0.872945673  0.370415680
     0.563725187  0.212214602  0.375521376
     0.552450185  0.529403078  0.372813164
     0.588762861  0.874440440  0.373350743
     0.889633883  0.205517461  0.374346419
     0.926594619  0.534099102  0.365461259
     0.916198028  0.880409727  0.367543104
     0.080030685  0.167148598  0.640339902
     0.084067186  0.481953078  0.639640623
     0.064923678  0.811307616  0.643972446
     0.387781599  0.143768826  0.628768561
     0.417502489  0.491513016  0.633199961
     0.397260557  0.825066430  0.649030136
     0.725759016  0.168713292  0.638834024
     0.736884131  0.495541142  0.624548544
     0.228252578  0.530816118  0.356378331
     0.230655123  0.202096709  0.386219026
     0.744429132  0.827536526  0.657078422
     0.909685754  0.645590406  0.870680784
     0.902455371  0.006772553  0.857533089
     0.058825304  0.368360482  0.129028390
     0.067860403  0.715459375  0.134222509
     0.371966064  0.038580460  0.131797933
     0.405872001  0.385304082  0.141442484
     0.717571280  0.055725256  0.131747366
     0.708488666  0.380758842  0.133041982
     0.398910585  0.706335709  0.133117097
     0.249896175  0.320702244  0.877072071
     0.242116937  0.658123934  0.875739761
     0.239315436  0.001623023  0.860415721
     0.554507865  0.326261955  0.868487616
     0.563023688  0.664159945  0.870993605
     0.572480938  0.967591012  0.879240055
     0.891305967  0.338706059  0.845595989
     0.715982832  0.705044619  0.138220213
     0.898672093  0.023160551  0.641907068
     0.257091221  0.351944871  0.645466029
     0.238192685  0.692474424  0.646039360
     0.578924835  0.019853640  0.641271144
     0.574304707  0.349312400  0.637080902
     0.579939339  0.681611687  0.646911564
     0.914671349  0.344315843  0.621978228
     0.741356121  0.016066353  0.367621078
     0.086311974  0.024007731  0.350295010
     0.061873140  0.354036013  0.355000298
     0.073075308  0.685840077  0.368571176
     0.400291593  0.026087547  0.369245702
     0.417392566  0.372756581  0.373462084
     0.395678177  0.672933110  0.357126204
     0.240394576  0.007847351  0.626554317
     0.910227149  0.674903081  0.650008479
     0.918463158  0.855537687  0.139180208
     0.234163625  0.192100391  0.149212764
     0.887648681  0.176944137  0.135633356
     0.732912607  0.341045606  0.358284423
     0.097066513  0.172142001  0.868772372
     0.070537283  0.508659377  0.867048992
     0.064285767  0.860179009  0.871879766
     0.402140699  0.173852207  0.852556494
     0.393244913  0.520167544  0.863964080
     0.418643270  0.837727278  0.874047033
     0.735189021  0.193175834  0.858730463
     0.760589695  0.506328690  0.860144879
     0.743941363  0.845437945  0.872888755
     0.234650505  0.502521355  0.136185074
     0.240466947  0.842017474  0.139267647
     0.555681446  0.185077718  0.142033276
     0.569888658  0.527146070  0.148555846
     0.551099172  0.852149221  0.152123007
     0.904071886  0.518644793  0.139702683
     0.742769064  0.681179043  0.356290470

  ion indices of the primitive-cell ions
   primitive index   ion index
                 1           1
                 2           2
                 3           3
                 4           4
                 5           5
                 6           6
                 7           7
                 8           8
                 9           9
                10          10
                11          11
                12          12
                13          13
                14          14
                15          15
                16          16
                17          17
                18          18
                19          19
                20          20
                21          21
                22          22
                23          23
                24          24
                25          25
                26          26
                27          27
                28          28
                29          29
                30          30
                31          31
                32          32
                33          33
                34          34
                35          35
                36          36
                37          37
                38          38
                39          39
                40          40
                41          41
                42          42
                43          43
                44          44
                45          45
                46          46
                47          47
                48          48
                49          49
                50          50
                51          51
                52          52
                53          53
                54          54
                55          55
                56          56
                57          57
                58          58
                59          59
                60          60
                61          61
                62          62
                63          63
                64          64
                65          65
                66          66
                67          67
                68          68
                69          69
                70          70
                71          71
                72          72

----------------------------------------------------------------------------------------

 
 
 KPOINTS: KPOINTS created by Atomic Simulation Env

Automatic generation of k-mesh.
 Grid dimensions read from file:
 generate k-points for:    2    2    2

 Generating k-lattice:

  Cartesian coordinates                     Fractional coordinates (reciprocal lattice)
     0.040272163  0.000000026 -0.000000013     0.500000000 -0.000000000  0.000000000
     0.000000026  0.039963976 -0.000000000    -0.000000000  0.500000000  0.000000000
    -0.000000011 -0.000000000  0.045156545    -0.000000000 -0.000000000  0.500000000

  Length of vectors
     0.040272163  0.039963976  0.045156545

  Shift w.r.t. Gamma in fractional coordinates (k-lattice)
     0.000000000  0.000000000  0.000000000

 
 Subroutine IBZKPT returns following result:
 ===========================================
 
 Found      8 irreducible k-points:
 
 Following reciprocal coordinates:
            Coordinates               Weight
  0.000000  0.000000  0.000000      1.000000
  0.500000  0.000000  0.000000      1.000000
  0.000000  0.500000  0.000000      1.000000
  0.500000  0.500000  0.000000      1.000000
  0.000000  0.000000  0.500000      1.000000
  0.500000  0.000000  0.500000      1.000000
  0.000000  0.500000  0.500000      1.000000
  0.500000  0.500000  0.500000      1.000000
 
 Following cartesian coordinates:
            Coordinates               Weight
  0.000000  0.000000  0.000000      1.000000
  0.040272  0.000000 -0.000000      1.000000
  0.000000  0.039964 -0.000000      1.000000
  0.040272  0.039964 -0.000000      1.000000
 -0.000000 -0.000000  0.045157      1.000000
  0.040272  0.000000  0.045157      1.000000
  0.000000  0.039964  0.045157      1.000000
  0.040272  0.039964  0.045157      1.000000
 
 -----------------------------------------------------------------------------
|                                                                             |
|           W    W    AA    RRRRR   N    N  II  N    N   GGGG   !!!           |
|           W    W   A  A   R    R  NN   N  II  NN   N  G    G  !!!           |
|           W    W  A    A  R    R  N N  N  II  N N  N  G       !!!           |
|           W WW W  AAAAAA  RRRRR   N  N N  II  N  N N  G  GGG   !            |
|           WW  WW  A    A  R   R   N   NN  II  N   NN  G    G                |
|           W    W  A    A  R    R  N    N  II  N    N   GGGG   !!!           |
|                                                                             |
|     The number of bands has been changed from the values supplied in        |
|     the INCAR file. This is a result of running the parallel version.       |
|     The orbitals not found in the WAVECAR file will be initialized with     |
|     random numbers, which is usually adequate. For correlated               |
|     calculations, however, you should redo the groundstate calculation.     |
|     I found NBANDS = 220. Now, NBANDS = 224.                                |
|                                                                             |
 -----------------------------------------------------------------------------



--------------------------------------------------------------------------------------------------------




 Dimension of arrays:
   k-points           NKPTS =      8   k-points in BZ     NKDIM =      8   number of bands    NBANDS=    224
   number of dos      NEDOS =    301   number of ions     NIONS =     72
   non local maximal  LDIM  =      5   non local SUM 2l+1 LMDIM =     13
   total plane-waves  NPLWV = 774144
   max r-space proj   IRMAX =      1   max aug-charges    IRDMAX=  24660
   dimension x,y,z NGX =    96 NGY =   96 NGZ =   84
   dimension x,y,z NGXF=   192 NGYF=  192 NGZF=  168
   support grid    NGXF=   192 NGYF=  192 NGZF=  168
   ions per type =              36  36
   NGX,Y,Z   is equivalent  to a cutoff of  12.85, 12.76, 12.61 a.u.
   NGXF,Y,Z  is equivalent  to a cutoff of  25.71, 25.51, 25.22 a.u.

 SYSTEM =  01_AOPT                                 
 POSCAR =  Ge Se                                   

 Startparameter for this run:
   NWRITE =      2    write-flag & timer
   PREC   = accura    normal or accurate (medium, high low for compatibility)
   ISTART =      0    job   : 0-new  1-cont  2-samecut
   ICHARG =      2    charge: 1-file 2-atom 10-const
   ISPIN  =      2    spin polarized calculation?
   LNONCOLLINEAR =      F non collinear calculations
   LSORBIT =      F    spin-orbit coupling
   INIWAV =      1    electr: 0-lowe 1-rand  2-diag
   LASPH  =      T    aspherical Exc in radial PAW
 Electronic Relaxation 1
   ENCUT  =  520.0 eV  38.22 Ry    6.18 a.u.  23.08 23.26 20.59*2*pi/ulx,y,z
   ENINI  =  520.0     initial cutoff
   ENAUG  =  446.8 eV  augmentation charge cutoff
   NELM   =    100;   NELMIN=  5; NELMDL=  0     # of ELM steps 
   EDIFF  = 0.1E-05   stopping-criterion for ELM
   LREAL  =      F    real-space projection
   NLSPLINE    = F    spline interpolate recip. space projectors
   LCOMPAT=      F    compatible to vasp.4.4
   GGA_COMPAT  = T    GGA compatible to vasp.4.4-vasp.4.6
   LMAXPAW     = -100 max onsite density
   LMAXMIX     =    2 max onsite mixed and CHGCAR
   VOSKOWN=      0    Vosko Wilk Nusair interpolation
   ROPT   =    0.00000   0.00000
 Ionic relaxation
   EDIFFG = 0.1E-04   stopping-criterion for IOM
   NSW    =      0    number of steps for IOM
   NBLOCK =      1;   KBLOCK =      1    inner block; outer block 
   IBRION =     -1    ionic relax: 0-MD 1-quasi-New 2-CG
   NFREE  =      0    steps in history (QN), initial steepest desc. (CG)
   ISIF   =      2    stress and relaxation
   IWAVPR =     10    prediction:  0-non 1-charg 2-wave 3-comb
   ISYM   =     -1    0-nonsym 1-usesym 2-fastsym
   LCORR  =      T    Harris-Foulkes like correction to forces

   POTIM  = 0.5000    time-step for ionic-motion
   TEIN   =    0.0    initial temperature
   TEBEG  =    0.0;   TEEND  =   0.0 temperature during run
   SMASS  =  -3.00    Nose mass-parameter (am)
   estimated Nose-frequenzy (Omega)   =  0.10E-29 period in steps = 0.13E+47 mass=  -0.352E-26a.u.
   SCALEE = 1.0000    scale energy and forces
   NPACO  =    256;   APACO  = 10.0  distance and # of slots for P.C.
   PSTRESS=    0.0 pullay stress

  Mass of Ions in am
   POMASS =  72.61 78.96
  Ionic Valenz
   ZVAL   =   4.00  6.00
  Atomic Wigner-Seitz radii
   RWIGS  =  -1.00 -1.00
  virtual crystal weights 
   VCA    =   1.00  1.00
   NELECT =     360.0000    total number of electrons
   NUPDOWN=      -1.0000    fix difference up-down

 DOS related values:
   EMIN   =  10.00;   EMAX   =-10.00  energy-range for DOS
   EFERMI =   0.00;   METHOD = LEGACY      
   ISMEAR =     0;   SIGMA  =   0.05  broadening in eV -4-tet -1-fermi 0-gaus

 Electronic relaxation 2 (details)
   IALGO  =     38    algorithm
   LDIAG  =      T    sub-space diagonalisation (order eigenvalues)
   LSUBROT=      F    optimize rotation matrix (better conditioning)
   TURBO    =      0    0=normal 1=particle mesh
   IRESTART =      0    0=no restart 2=restart with 2 vectors
   NREBOOT  =      0    no. of reboots
   NMIN     =      0    reboot dimension
   EREF     =   0.00    reference energy to select bands
   IMIX   =      4    mixing-type and parameters
     AMIX     =   0.40;   BMIX     =  1.00
     AMIX_MAG =   1.60;   BMIX_MAG =  1.00
     AMIN     =   0.10
     WC   =   100.;   INIMIX=   1;  MIXPRE=   1;  MAXMIX= -45

 Intra band minimization:
   WEIMIN = 0.0000     energy-eigenvalue tresh-hold
   EBREAK =  0.11E-08  absolut break condition
   DEPER  =   0.30     relativ break condition  

   TIME   =   0.40     timestep for ELM

  volume/ion in A,a.u.               =      23.89       161.21
  Fermi-wavevector in a.u.,A,eV,Ry     =   0.972009  1.836831 12.854814  0.944802
  Thomas-Fermi vector in A             =   2.102273
 
 Write flags
   LWAVE        =      F    write WAVECAR
   LDOWNSAMPLE  =      F    k-point downsampling of WAVECAR
   LCHARG       =      F    write CHGCAR
   LVTOT        =      F    write LOCPOT, total local potential
   LVHAR        =      F    write LOCPOT, Hartree potential only
   LELF         =      F    write electronic localiz. function (ELF)
   LORBIT       =     11    0 simple, 1 ext, 2 COOP (PROOUT), +10 PAW based schemes


 Dipole corrections
   LMONO  =      F    monopole corrections only (constant potential shift)
   LDIPOL =      F    correct potential (dipole corrections)
   IDIPOL =      0    1-x, 2-y, 3-z, 4-all directions 
   EPSILON=  1.0000000 bulk dielectric constant

 Exchange correlation treatment:
   GGA     =    PE    GGA type
   LEXCH   =     8    internal setting for exchange type
   LIBXC   =     F    Libxc                    
   VOSKOWN =     0    Vosko Wilk Nusair interpolation
   LHFCALC =     F    Hartree Fock is set to
   LHFONE  =     F    Hartree Fock one center treatment
   AEXX    =    0.0000 exact exchange contribution

 Linear response parameters
   LEPSILON=     F    determine dielectric tensor
   LRPA    =     F    only Hartree local field effects (RPA)
   LNABLA  =     F    use nabla operator in PAW spheres
   LVEL    =     F    velocity operator in full k-point grid
   CSHIFT  =0.1000    complex shift for real part using Kramers Kronig
   OMEGAMAX=  -1.0    maximum frequency
   DEG_THRESHOLD= 0.2000000E-02 threshold for treating states as degnerate
   RTIME   =   -0.100 relaxation time in fs
  (WPLASMAI=    0.000 imaginary part of plasma frequency in eV, 0.658/RTIME)
   DFIELD  = 0.0000000 0.0000000 0.0000000 field for delta impulse in time
 
  Optional k-point grid parameters
   LKPOINTS_OPT  =     F    use optional k-point grid
   KPOINTS_OPT_MODE=     1    mode for optional k-point grid
 
 Orbital magnetization related:
   ORBITALMAG=     F  switch on orbital magnetization
   LCHIMAG   =     F  perturbation theory with respect to B field
   DQ        =  0.001000  dq finite difference perturbation B field
   LLRAUG    =     F  two centre corrections for induced B field
   LBONE     =     F  B-component reconstruction in AE one-centre
   LVGVCALC  =     T  calculate vGv susceptibility
   LVGVAPPL  =     F  apply vGv susceptibility instead of pGv for G=0

 Random number generation:
   RANDOM_GENERATOR = DEFAULT
   PCG_SEED         = not used


--------------------------------------------------------------------------------------------------------


 Static calculation
 charge density and potential will be updated during run
 spin polarized calculation
 Variant of blocked Davidson
 Davidson routine will perform the subspace rotation
 perform sub-space diagonalisation
    after iterative eigenvector-optimisation
 modified Broyden-mixing scheme, WC =      100.0
 initial mixing is a Kerker type mixing with AMIX =  0.4000 and BMIX =      1.0000
 Hartree-type preconditioning will be used
 using additional bands            44
 reciprocal scheme for non local part
 use partial core corrections
 calculate Harris-corrections to forces 
   (improved forces if not selfconsistent)
 use gradient corrections 
 use of overlap-Matrix (Vanderbilt PP)
 Gauss-broadening in eV      SIGMA  =   0.05


--------------------------------------------------------------------------------------------------------


  energy-cutoff  :      520.00
  volume of cell :     1719.95
      direct lattice vectors                 reciprocal lattice vectors
    12.415523737 -0.000008134  0.000003058     0.080544327  0.000000053 -0.000000026
    -0.000008197 12.511267557  0.000000082     0.000000052  0.079927953 -0.000000001
     0.000003511  0.000000093 11.072592083    -0.000000022 -0.000000001  0.090313090

  length of vectors
    12.415523737 12.511267557 11.072592083     0.080544327  0.079927953  0.090313090


 
 k-points in units of 2pi/SCALE and weight: KPOINTS created by Atomic Simulation Env
   0.00000000  0.00000000  0.00000000       0.125
   0.04027216  0.00000003 -0.00000001       0.125
   0.00000003  0.03996398 -0.00000000       0.125
   0.04027219  0.03996400 -0.00000001       0.125
  -0.00000001 -0.00000000  0.04515654       0.125
   0.04027215  0.00000003  0.04515653       0.125
   0.00000002  0.03996398  0.04515654       0.125
   0.04027218  0.03996400  0.04515653       0.125
 
 k-points in reciprocal lattice and weights: KPOINTS created by Atomic Simulation Env
   0.00000000  0.00000000  0.00000000       0.125
   0.50000000  0.00000000  0.00000000       0.125
   0.00000000  0.50000000  0.00000000       0.125
   0.50000000  0.50000000  0.00000000       0.125
   0.00000000  0.00000000  0.50000000       0.125
   0.50000000  0.00000000  0.50000000       0.125
   0.00000000  0.50000000  0.50000000       0.125
   0.50000000  0.50000000  0.50000000       0.125
 
 position of ions in fractional coordinates (direct lattice) 
   0.05467401  0.05218306  0.12745860
   0.26605295  0.87294567  0.37041568
   0.56372519  0.21221460  0.37552138
   0.55245018  0.52940308  0.37281316
   0.58876286  0.87444044  0.37335074
   0.88963388  0.20551746  0.37434642
   0.92659462  0.53409910  0.36546126
   0.91619803  0.88040973  0.36754310
   0.08003069  0.16714860  0.64033990
   0.08406719  0.48195308  0.63964062
   0.06492368  0.81130762  0.64397245
   0.38778160  0.14376883  0.62876856
   0.41750249  0.49151302  0.63319996
   0.39726056  0.82506643  0.64903014
   0.72575902  0.16871329  0.63883402
   0.73688413  0.49554114  0.62454854
   0.22825258  0.53081612  0.35637833
   0.23065512  0.20209671  0.38621903
   0.74442913  0.82753653  0.65707842
   0.90968575  0.64559041  0.87068078
   0.90245537  0.00677255  0.85753309
   0.05882530  0.36836048  0.12902839
   0.06786040  0.71545937  0.13422251
   0.37196606  0.03858046  0.13179793
   0.40587200  0.38530408  0.14144248
   0.71757128  0.05572526  0.13174737
   0.70848867  0.38075884  0.13304198
   0.39891058  0.70633571  0.13311710
   0.24989618  0.32070224  0.87707207
   0.24211694  0.65812393  0.87573976
   0.23931544  0.00162302  0.86041572
   0.55450787  0.32626196  0.86848762
   0.56302369  0.66415994  0.87099361
   0.57248094  0.96759101  0.87924005
   0.89130597  0.33870606  0.84559599
   0.71598283  0.70504462  0.13822021
   0.89867209  0.02316055  0.64190707
   0.25709122  0.35194487  0.64546603
   0.23819268  0.69247442  0.64603936
   0.57892483  0.01985364  0.64127114
   0.57430471  0.34931240  0.63708090
   0.57993934  0.68161169  0.64691156
   0.91467135  0.34431584  0.62197823
   0.74135612  0.01606635  0.36762108
   0.08631197  0.02400773  0.35029501
   0.06187314  0.35403601  0.35500030
   0.07307531  0.68584008  0.36857118
   0.40029159  0.02608755  0.36924570
   0.41739257  0.37275658  0.37346208
   0.39567818  0.67293311  0.35712620
   0.24039458  0.00784735  0.62655432
   0.91022715  0.67490308  0.65000848
   0.91846316  0.85553769  0.13918021
   0.23416362  0.19210039  0.14921276
   0.88764868  0.17694414  0.13563336
   0.73291261  0.34104561  0.35828442
   0.09706651  0.17214200  0.86877237
   0.07053728  0.50865938  0.86704899
   0.06428577  0.86017901  0.87187977
   0.40214070  0.17385221  0.85255649
   0.39324491  0.52016754  0.86396408
   0.41864327  0.83772728  0.87404703
   0.73518902  0.19317583  0.85873046
   0.76058970  0.50632869  0.86014488
   0.74394136  0.84543795  0.87288875
   0.23465050  0.50252136  0.13618507
   0.24046695  0.84201747  0.13926765
   0.55568145  0.18507772  0.14203328
   0.56988866  0.52714607  0.14855585
   0.55109917  0.85214922  0.15212301
   0.90407189  0.51864479  0.13970268
   0.74276906  0.68117904  0.35629047
 
 position of ions in cartesian coordinates  (Angst):
   0.67880648  0.65287583  1.41129725
   3.30318083 10.92165475  4.10146261
   6.99894302  2.65506912  4.15799676
   6.85895535  6.62349910  4.12800982
   7.30979342 10.94035355  4.13396235
  11.04527022  2.57127673  4.14498794
  11.50415439  6.68224926  4.04660632
  11.37507244 11.01503424  4.06965774
   0.99362375  2.09124024  7.09022278
   1.04373644  6.02984328  7.08248000
   0.80605708 10.15048619  7.13044447
   4.81451268  1.79872716  6.96209898
   5.18351026  6.14944752  7.01116619
   4.93219339 10.32262369  7.18644723
   9.01067916  2.11081130  7.07355079
   9.14880056  6.19984188  6.91537356
   2.83387220  6.64118065  3.94603263
   2.86370386  2.52848415  4.27644646
   9.24247308 10.35352489  7.27556368
  11.29422283  8.07714698  9.64069599
  11.20445904  0.08472596  9.49511686
   0.73034440  4.60865609  1.42867894
   0.84251706  8.95130312  1.48619136
   4.61815364  0.48268744  1.45934589
   5.03911080  4.82063918  1.56613620
   8.90902326  0.69718777  1.45878704
   8.79625519  4.76376999  1.47312180
   4.95267851  8.83715181  1.47395259
   3.10259234  4.01238963  9.71146206
   3.00600626  8.23396274  9.69670994
   2.97122948  0.02030421  9.52703303
   6.88450594  4.08194618  9.61641082
   6.99023157  8.30947827  9.64415867
   7.10764583 12.10578546  9.73546830
  11.06603058  4.23763495  9.36294221
   8.88929656  8.82099605  1.53045828
  11.15748677  0.28976060  7.10757786
   3.19192153  4.40327442  7.14698286
   2.95728353  8.66373091  7.15333109
   7.18765712  0.24838955  7.10053557
   7.13029310  4.37033629  7.05413874
   7.20024732  8.52782153  7.16298969
  11.35612321  4.30782025  6.88691403
   9.20432567  0.20100444  4.07052050
   1.07160939  0.30036648  3.87867402
   0.76818579  4.42943881  3.93077370
   0.90726389  8.58072815  4.08103856
   4.96983085  0.32638505  4.08850826
   5.18214557  4.66365396  4.13519462
   4.91254754  8.41924300  3.95431404
   2.98462670  0.09817841  6.93758110
  11.30094353  8.44388568  7.19728158
  11.40319462 10.70385345  1.54108854
   2.90726299  2.40341750  1.65217280
  11.02062229  2.21378824  1.50181555
   9.09949234  4.26690690  3.96713954
   1.20513323  2.15371393  9.61956240
   0.87575619  6.36397306  9.60048007
   0.79813748 10.76192928  9.65396926
   4.99278896  2.17510829  9.44001152
   4.88234032  6.50795220  9.56632307
   5.19767166 10.48102679  9.67796760
   9.12775818  2.41686864  9.50837439
   9.44311829  6.33480761  9.52403574
   9.23641779 10.57749437  9.66514346
   2.91330527  6.28717723  1.50792253
   2.98551667 10.53470397  1.54205465
   6.89907516  2.31555234  1.57267824
   7.07546237  6.59526091  1.64490007
   6.84217840 10.66146243  1.68439776
  11.22452220  6.48889644  1.54687363
   9.22186262  8.52240725  3.94506137
 


--------------------------------------------------------------------------------------------------------


 k-point   1 :   0.0000 0.0000 0.0000  plane waves:   46285
 k-point   2 :   0.5000 0.0000 0.0000  plane waves:   46338
 k-point   3 :   0.0000 0.5000 0.0000  plane waves:   46306
 k-point   4 :   0.5000 0.5000 0.0000  plane waves:   46396
 k-point   5 :   0.0000 0.0000 0.5000  plane waves:   46326
 k-point   6 :   0.5000 0.0000 0.5000  plane waves:   46292
 k-point   7 :   0.0000 0.5000 0.5000  plane waves:   46284
 k-point   8 :   0.5000 0.5000 0.5000  plane waves:   46296

 maximum and minimum number of plane-waves per node :      5836     5747

 maximum number of plane-waves:     46396
 maximum index in each direction: 
   IXMAX=   23   IYMAX=   23   IZMAX=   20
   IXMIN=  -23   IYMIN=  -23   IZMIN=  -21


 parallel 3D FFT for wavefunctions:
    minimum data exchange during FFTs selected (reduces bandwidth)
 parallel 3D FFT for charge:
    minimum data exchange during FFTs selected (reduces bandwidth)


 total amount of memory used by VASP MPI-rank0   110605. kBytes
=======================================================================

   base      :      30000. kBytes
   nonl-proj :      16310. kBytes
   fftplans  :       6179. kBytes
   grid      :      15593. kBytes
   one-center:        146. kBytes
   wavefun   :      42377. kBytes
 
     INWAV:  cpu time      0.0000: real time      0.0001
 Broyden mixing: mesh for mixing (old mesh)
   NGX = 47   NGY = 47   NGZ = 41
  (NGX  =192   NGY  =192   NGZ  =168)
  gives a total of  90569 points

 initial charge density was supplied:
 charge density of overlapping atoms calculated
 number of electron     360.0000000 magnetization      72.0000000
 keeping initial charge density in first step


--------------------------------------------------------------------------------------------------------


 Maximum index for augmentation-charges           820 (set IRDMAX)


--------------------------------------------------------------------------------------------------------


 First call to EWALD:  gamma=   0.148
 Maximum number of real-space cells 3x 3x 3
 Maximum number of reciprocal cells 3x 3x 3

    FEWALD:  cpu time      0.0052: real time      0.0052


--------------------------------------- Ionic step        1  -------------------------------------------




--------------------------------------- Iteration      1(   1)  ---------------------------------------


    POTLOK:  cpu time      0.1401: real time      0.1413
    SETDIJ:  cpu time      0.6005: real time      0.6020
     EDDAV:  cpu time      8.6747: real time      8.7204
       DOS:  cpu time      0.0019: real time      0.0019
    --------------------------------------------
      LOOP:  cpu time      9.4172: real time      9.4655

 eigenvalue-minimisations  :  7168
 total energy-change (2. order) : 0.1816811E+04  (-0.1419149E+05)
 number of electron     360.0000000 magnetization      72.0000000
 augmentation part      360.0000000 magnetization      72.0000000

 Free energy of the ion-electron system (eV)
  ---------------------------------------------------
  alpha Z        PSCENC =       797.98866349
  Ewald energy   TEWEN  =    -12876.41677137
  -Hartree energ DENC   =     -1106.41327997
  -exchange      EXHF   =         0.00000000
  -V(xc)+E(xc)   XCENC  =      -293.82203551
  PAW double counting   =     10738.42099860    -9719.93139476
  entropy T*S    EENTRO =        -0.02092615
  eigenvalues    EBANDS =      1240.55391140
  atomic energy  EATOM  =     13036.45147835
  Solvation  Ediel_sol  =         0.00000000
  ---------------------------------------------------
  free energy    TOTEN  =      1816.81064409 eV

  energy without entropy =     1816.83157024  energy(sigma->0) =     1816.82110716


--------------------------------------------------------------------------------------------------------




--------------------------------------- Iteration      1(   2)  ---------------------------------------


     EDDAV:  cpu time      9.7810: real time      9.8394
       DOS:  cpu time      0.0016: real time      0.0016
    --------------------------------------------
      LOOP:  cpu time      9.7827: real time      9.8410

 eigenvalue-minimisations  :  8504
 total energy-change (2. order) :-0.1880661E+04  (-0.1805498E+04)
 number of electron     360.0000000 magnetization      72.0000000
 augmentation part      360.0000000 magnetization      72.0000000

 Free energy of the ion-electron system (eV)
  ---------------------------------------------------
  alpha Z        PSCENC =       797.98866349
  Ewald energy   TEWEN  =    -12876.41677137
  -Hartree energ DENC   =     -1106.41327997
  -exchange      EXHF   =         0.00000000
  -V(xc)+E(xc)   XCENC  =      -293.82203551
  PAW double counting   =     10738.42099860    -9719.93139476
  entropy T*S    EENTRO =        -0.01656958
  eigenvalues    EBANDS =      -640.11138125
  atomic energy  EATOM  =     13036.45147835
  Solvation  Ediel_sol  =         0.00000000
  ---------------------------------------------------
  free energy    TOTEN  =       -63.85029200 eV

  energy without entropy =      -63.83372242  energy(sigma->0) =      -63.84200721


--------------------------------------------------------------------------------------------------------




--------------------------------------- Iteration      1(   3)  ---------------------------------------


     EDDAV:  cpu time      9.8505: real time      9.9031
       DOS:  cpu time      0.0012: real time      0.0012
    --------------------------------------------
      LOOP:  cpu time      9.8517: real time      9.9043

 eigenvalue-minimisations  :  8584
 total energy-change (2. order) :-0.2178412E+03  (-0.2115996E+03)
 number of electron     360.0000000 magnetization      72.0000000
 augmentation part      360.0000000 magnetization      72.0000000

 Free energy of the ion-electron system (eV)
  ---------------------------------------------------
  alpha Z        PSCENC =       797.98866349
  Ewald energy   TEWEN  =    -12876.41677137
  -Hartree energ DENC   =     -1106.41327997
  -exchange      EXHF   =         0.00000000
  -V(xc)+E(xc)   XCENC  =      -293.82203551
  PAW double counting   =     10738.42099860    -9719.93139476
  entropy T*S    EENTRO =        -0.00002348
  eigenvalues    EBANDS =      -857.96911114
  atomic energy  EATOM  =     13036.45147835
  Solvation  Ediel_sol  =         0.00000000
  ---------------------------------------------------
  free energy    TOTEN  =      -281.69147578 eV

  energy without entropy =     -281.69145231  energy(sigma->0) =     -281.69146405


--------------------------------------------------------------------------------------------------------




--------------------------------------- Iteration      1(   4)  ---------------------------------------


     EDDAV:  cpu time     10.0100: real time     10.0614
       DOS:  cpu time      0.0013: real time      0.0013
    --------------------------------------------
      LOOP:  cpu time     10.0113: real time     10.0627

 eigenvalue-minimisations  :  8728
 total energy-change (2. order) :-0.7921828E+01  (-0.7830856E+01)
 number of electron     360.0000000 magnetization      72.0000000
 augmentation part      360.0000000 magnetization      72.0000000

 Free energy of the ion-electron system (eV)
  ---------------------------------------------------
  alpha Z        PSCENC =       797.98866349
  Ewald energy   TEWEN  =    -12876.41677137
  -Hartree energ DENC   =     -1106.41327997
  -exchange      EXHF   =         0.00000000
  -V(xc)+E(xc)   XCENC  =      -293.82203551
  PAW double counting   =     10738.42099860    -9719.93139476
  entropy T*S    EENTRO =        -0.00000652
  eigenvalues    EBANDS =      -865.89095629
  atomic energy  EATOM  =     13036.45147835
  Solvation  Ediel_sol  =         0.00000000
  ---------------------------------------------------
  free energy    TOTEN  =      -289.61330398 eV

  energy without entropy =     -289.61329746  energy(sigma->0) =     -289.61330072


--------------------------------------------------------------------------------------------------------




--------------------------------------- Iteration      1(   5)  ---------------------------------------


     EDDAV:  cpu time     10.1751: real time     10.2270
       DOS:  cpu time      0.0011: real time      0.0011
    CHARGE:  cpu time      0.4232: real time      0.4250
    MIXING:  cpu time      0.0083: real time      0.0084
    --------------------------------------------
      LOOP:  cpu time     10.6077: real time     10.6615

 eigenvalue-minimisations  :  9040
 total energy-change (2. order) :-0.2940111E+00  (-0.2932058E+00)
 number of electron     359.9999992 magnetization      48.7975920
 augmentation part      -66.8931760 magnetization      49.0100709

 Broyden mixing:
  rms(total) = 0.29195E+01    rms(broyden)= 0.29195E+01
  rms(prec ) = 0.30804E+01
  weight for this iteration     100.00

 Free energy of the ion-electron system (eV)
  ---------------------------------------------------
  alpha Z        PSCENC =       797.98866349
  Ewald energy   TEWEN  =    -12876.41677137
  -Hartree energ DENC   =     -1106.41327997
  -exchange      EXHF   =         0.00000000
  -V(xc)+E(xc)   XCENC  =      -293.82203551
  PAW double counting   =     10738.42099860    -9719.93139476
  entropy T*S    EENTRO =        -0.00000897
  eigenvalues    EBANDS =      -866.18496492
  atomic energy  EATOM  =     13036.45147835
  Solvation  Ediel_sol  =         0.00000000
  ---------------------------------------------------
  free energy    TOTEN  =      -289.90731506 eV

  energy without entropy =     -289.90730608  energy(sigma->0) =     -289.90731057


--------------------------------------------------------------------------------------------------------




--------------------------------------- Iteration      1(   6)  ---------------------------------------


    POTLOK:  cpu time      0.1330: real time      0.1347
    SETDIJ:  cpu time      0.6007: real time      0.6024
     EDDAV:  cpu time      9.3332: real time      9.3810
       DOS:  cpu time      0.0012: real time      0.0012
    CHARGE:  cpu time      0.4107: real time      0.4126
    MIXING:  cpu time      0.0076: real time      0.0076
    --------------------------------------------
      LOOP:  cpu time     10.4863: real time     10.5394

 eigenvalue-minimisations  :  8000
 total energy-change (2. order) : 0.5534849E+00  (-0.2704089E+01)
 number of electron     359.9999993 magnetization      27.9008503
 augmentation part      -66.2785511 magnetization      29.0796806

 Broyden mixing:
  rms(total) = 0.17318E+01    rms(broyden)= 0.17318E+01
  rms(prec ) = 0.17681E+01
  weight for this iteration     100.00

 eigenvalues of (default mixing * dielectric matrix)
  average eigenvalue GAMMA=   1.0091
  1.0091

 Free energy of the ion-electron system (eV)
  ---------------------------------------------------
  alpha Z        PSCENC =       797.98866349
  Ewald energy   TEWEN  =    -12876.41677137
  -Hartree energ DENC   =     -1159.83180962
  -exchange      EXHF   =         0.00000000
  -V(xc)+E(xc)   XCENC  =      -287.38298357
  PAW double counting   =     13005.65161785   -11990.63502282
  entropy T*S    EENTRO =        -0.00015151
  eigenvalues    EBANDS =      -815.17885093
  atomic energy  EATOM  =     13036.45147835
  Solvation  Ediel_sol  =         0.00000000
  ---------------------------------------------------
  free energy    TOTEN  =      -289.35383013 eV

  energy without entropy =     -289.35367863  energy(sigma->0) =     -289.35375438


--------------------------------------------------------------------------------------------------------




--------------------------------------- Iteration      1(   7)  ---------------------------------------


    POTLOK:  cpu time      0.1298: real time      0.1305
    SETDIJ:  cpu time      0.6015: real time      0.6033
     EDDAV:  cpu time      9.4519: real time      9.5066
       DOS:  cpu time      0.0010: real time      0.0010
    CHARGE:  cpu time      0.4206: real time      0.4225
    MIXING:  cpu time      0.0086: real time      0.0086
    --------------------------------------------
      LOOP:  cpu time     10.6134: real time     10.6725

 eigenvalue-minimisations  :  8096
 total energy-change (2. order) :-0.7352793E+01  (-0.8888049E+00)
 number of electron     359.9999993 magnetization       9.4305637
 augmentation part      -66.2578816 magnetization      10.1049868

 Broyden mixing:
  rms(total) = 0.91103E+00    rms(broyden)= 0.91103E+00
  rms(prec ) = 0.92683E+00
  weight for this iteration     100.00

 eigenvalues of (default mixing * dielectric matrix)
  average eigenvalue GAMMA=   1.4466
  0.8620  2.0312

 Free energy of the ion-electron system (eV)
  ---------------------------------------------------
  alpha Z        PSCENC =       797.98866349
  Ewald energy   TEWEN  =    -12876.41677137
  -Hartree energ DENC   =     -1176.76074480
  -exchange      EXHF   =         0.00000000
  -V(xc)+E(xc)   XCENC  =      -290.33819195
  PAW double counting   =     15083.58881794   -14070.14955763
  entropy T*S    EENTRO =        -0.00000024
  eigenvalues    EBANDS =      -801.07031734
  atomic energy  EATOM  =     13036.45147835
  Solvation  Ediel_sol  =         0.00000000
  ---------------------------------------------------
  free energy    TOTEN  =      -296.70662356 eV

  energy without entropy =     -296.70662332  energy(sigma->0) =     -296.70662344


--------------------------------------------------------------------------------------------------------




--------------------------------------- Iteration      1(   8)  ---------------------------------------


    POTLOK:  cpu time      0.1289: real time      0.1296
    SETDIJ:  cpu time      0.6015: real time      0.6030
     EDDAV:  cpu time      9.4748: real time      9.5231
       DOS:  cpu time      0.0007: real time      0.0007
    CHARGE:  cpu time      0.4224: real time      0.4239
    MIXING:  cpu time      0.0072: real time      0.0072
    --------------------------------------------
      LOOP:  cpu time     10.6354: real time     10.6875

 eigenvalue-minimisations  :  8120
 total energy-change (2. order) :-0.3197645E+01  (-0.1676309E+00)
 number of electron     359.9999993 magnetization       4.4861577
 augmentation part      -66.2721221 magnetization       4.8001328

 Broyden mixing:
  rms(total) = 0.33992E+00    rms(broyden)= 0.33992E+00
  rms(prec ) = 0.34522E+00
  weight for this iteration     100.00

 eigenvalues of (default mixing * dielectric matrix)
  average eigenvalue GAMMA=   1.3528
  2.4884  0.9223  0.6476

 Free energy of the ion-electron system (eV)
  ---------------------------------------------------
  alpha Z        PSCENC =       797.98866349
  Ewald energy   TEWEN  =    -12876.41677137
  -Hartree energ DENC   =     -1180.76019867
  -exchange      EXHF   =         0.00000000
  -V(xc)+E(xc)   XCENC  =      -290.12800166
  PAW double counting   =     16816.80322284   -15804.25268696
  entropy T*S    EENTRO =        -0.00000000
  eigenvalues    EBANDS =      -799.58997445
  atomic energy  EATOM  =     13036.45147835
  Solvation  Ediel_sol  =         0.00000000
  ---------------------------------------------------
  free energy    TOTEN  =      -299.90426842 eV

  energy without entropy =     -299.90426842  energy(sigma->0) =     -299.90426842


--------------------------------------------------------------------------------------------------------




--------------------------------------- Iteration      1(   9)  ---------------------------------------


    POTLOK:  cpu time      0.1289: real time      0.1296
    SETDIJ:  cpu time      0.5980: real time      0.5998
     EDDAV:  cpu time     10.3316: real time     10.3876
       DOS:  cpu time      0.0011: real time      0.0011
    CHARGE:  cpu time      0.4242: real time      0.4262
    MIXING:  cpu time      0.0074: real time      0.0074
    --------------------------------------------
      LOOP:  cpu time     11.4912: real time     11.5517

 eigenvalue-minimisations  :  9056
 total energy-change (2. order) :-0.3982747E+00  (-0.4439553E-01)
 number of electron     359.9999993 magnetization       2.3083124
 augmentation part      -66.3118788 magnetization       2.4643587

 Broyden mixing:
  rms(total) = 0.15074E+00    rms(broyden)= 0.15074E+00
  rms(prec ) = 0.15249E+00
  weight for this iteration     100.00

 eigenvalues of (default mixing * dielectric matrix)
  average eigenvalue GAMMA=   1.3295
  2.6284  1.2398  0.8329  0.6167

 Free energy of the ion-electron system (eV)
  ---------------------------------------------------
  alpha Z        PSCENC =       797.98866349
  Ewald energy   TEWEN  =    -12876.41677137
  -Hartree energ DENC   =     -1179.63969423
  -exchange      EXHF   =         0.00000000
  -V(xc)+E(xc)   XCENC  =      -290.17907325
  PAW double counting   =     17112.33666685   -16100.12526064
  entropy T*S    EENTRO =        -0.00000000
  eigenvalues    EBANDS =      -800.71855236
  atomic energy  EATOM  =     13036.45147835
  Solvation  Ediel_sol  =         0.00000000
  ---------------------------------------------------
  free energy    TOTEN  =      -300.30254316 eV

  energy without entropy =     -300.30254316  energy(sigma->0) =     -300.30254316


--------------------------------------------------------------------------------------------------------




--------------------------------------- Iteration      1(  10)  ---------------------------------------


    POTLOK:  cpu time      0.1292: real time      0.1299
    SETDIJ:  cpu time      0.5975: real time      0.5993
     EDDAV:  cpu time      9.4705: real time      9.5229
       DOS:  cpu time      0.0008: real time      0.0008
    CHARGE:  cpu time      0.4160: real time      0.4176
    MIXING:  cpu time      0.0075: real time      0.0075
    --------------------------------------------
      LOOP:  cpu time     10.6214: real time     10.6779

 eigenvalue-minimisations  :  8104
 total energy-change (2. order) :-0.1124028E+00  (-0.1006899E-01)
 number of electron     359.9999993 magnetization       0.7439163
 augmentation part      -66.3153311 magnetization       0.8133547

 Broyden mixing:
  rms(total) = 0.73511E-01    rms(broyden)= 0.73511E-01
  rms(prec ) = 0.74630E-01
  weight for this iteration     100.00

 eigenvalues of (default mixing * dielectric matrix)
  average eigenvalue GAMMA=   1.3716
  2.7063  1.7291  0.9730  0.8253  0.6241

 Free energy of the ion-electron system (eV)
  ---------------------------------------------------
  alpha Z        PSCENC =       797.98866349
  Ewald energy   TEWEN  =    -12876.41677137
  -Hartree energ DENC   =     -1179.75200077
  -exchange      EXHF   =         0.00000000
  -V(xc)+E(xc)   XCENC  =      -290.17658761
  PAW double counting   =     17127.91474350   -16115.71681832
  entropy T*S    EENTRO =        -0.00000000
  eigenvalues    EBANDS =      -800.70765323
  atomic energy  EATOM  =     13036.45147835
  Solvation  Ediel_sol  =         0.00000000
  ---------------------------------------------------
  free energy    TOTEN  =      -300.41494596 eV

  energy without entropy =     -300.41494596  energy(sigma->0) =     -300.41494596


--------------------------------------------------------------------------------------------------------




--------------------------------------- Iteration      1(  11)  ---------------------------------------


    POTLOK:  cpu time      0.1287: real time      0.1297
    SETDIJ:  cpu time      0.5986: real time      0.6001
     EDDAV:  cpu time     10.2122: real time     10.2735
       DOS:  cpu time      0.0007: real time      0.0007
    CHARGE:  cpu time      0.4188: real time      0.4208
    MIXING:  cpu time      0.0084: real time      0.0084
    --------------------------------------------
      LOOP:  cpu time     11.3674: real time     11.4333

 eigenvalue-minimisations  :  8992
 total energy-change (2. order) :-0.3205388E-01  (-0.3800856E-02)
 number of electron     359.9999993 magnetization       0.1893532
 augmentation part      -66.3015308 magnetization       0.2083813

 Broyden mixing:
  rms(total) = 0.29102E-01    rms(broyden)= 0.29102E-01
  rms(prec ) = 0.29704E-01
  weight for this iteration     100.00

 eigenvalues of (default mixing * dielectric matrix)
  average eigenvalue GAMMA=   1.4047
  2.9140  2.1574  1.1796  0.8584  0.6955  0.6234

 Free energy of the ion-electron system (eV)
  ---------------------------------------------------
  alpha Z        PSCENC =       797.98866349
  Ewald energy   TEWEN  =    -12876.41677137
  -Hartree energ DENC   =     -1180.84707721
  -exchange      EXHF   =         0.00000000
  -V(xc)+E(xc)   XCENC  =      -290.13400064
  PAW double counting   =     17054.23377408   -16042.01064057
  entropy T*S    EENTRO =        -0.00000000
  eigenvalues    EBANDS =      -799.71242597
  atomic energy  EATOM  =     13036.45147835
  Solvation  Ediel_sol  =         0.00000000
  ---------------------------------------------------
  free energy    TOTEN  =      -300.44699983 eV

  energy without entropy =     -300.44699983  energy(sigma->0) =     -300.44699983


--------------------------------------------------------------------------------------------------------




--------------------------------------- Iteration      1(  12)  ---------------------------------------


    POTLOK:  cpu time      0.1289: real time      0.1306
    SETDIJ:  cpu time      0.5935: real time      0.5999
     EDDAV:  cpu time      9.8066: real time      9.8640
       DOS:  cpu time      0.0008: real time      0.0008
    CHARGE:  cpu time      0.4222: real time      0.4239
    MIXING:  cpu time      0.0076: real time      0.0076
    --------------------------------------------
      LOOP:  cpu time     10.9597: real time     11.0269

 eigenvalue-minimisations  :  8512
 total energy-change (2. order) :-0.3335025E-02  (-0.4634326E-03)
 number of electron     359.9999993 magnetization       0.0658570
 augmentation part      -66.3006067 magnetization       0.0708527

 Broyden mixing:
  rms(total) = 0.11382E-01    rms(broyden)= 0.11382E-01
  rms(prec ) = 0.12097E-01
  weight for this iteration     100.00

 eigenvalues of (default mixing * dielectric matrix)
  average eigenvalue GAMMA=   1.3626
  3.0019  2.3250  1.1955  0.8751  0.8751  0.6094  0.6560

 Free energy of the ion-electron system (eV)
  ---------------------------------------------------
  alpha Z        PSCENC =       797.98866349
  Ewald energy   TEWEN  =    -12876.41677137
  -Hartree energ DENC   =     -1180.95367118
  -exchange      EXHF   =         0.00000000
  -V(xc)+E(xc)   XCENC  =      -290.13820719
  PAW double counting   =     17016.98999794   -16004.74373901
  entropy T*S    EENTRO =        -0.00000000
  eigenvalues    EBANDS =      -799.62808588
  atomic energy  EATOM  =     13036.45147835
  Solvation  Ediel_sol  =         0.00000000
  ---------------------------------------------------
  free energy    TOTEN  =      -300.45033486 eV

  energy without entropy =     -300.45033486  energy(sigma->0) =     -300.45033486


--------------------------------------------------------------------------------------------------------




--------------------------------------- Iteration      1(  13)  ---------------------------------------


    POTLOK:  cpu time      0.1281: real time      0.1288
    SETDIJ:  cpu time      0.5988: real time      0.6012
     EDDAV:  cpu time     11.0381: real time     11.0932
       DOS:  cpu time      0.0013: real time      0.0013
    CHARGE:  cpu time      0.4259: real time      0.4276
    MIXING:  cpu time      0.0081: real time      0.0081
    --------------------------------------------
      LOOP:  cpu time     12.2003: real time     12.2602

 eigenvalue-minimisations  :  9872
 total energy-change (2. order) :-0.1227338E-03  (-0.7461695E-04)
 number of electron     359.9999993 magnetization       0.0186102
 augmentation part      -66.3017259 magnetization       0.0194991

 Broyden mixing:
  rms(total) = 0.49131E-02    rms(broyden)= 0.49131E-02
  rms(prec ) = 0.51212E-02
  weight for this iteration     100.00

 eigenvalues of (default mixing * dielectric matrix)
  average eigenvalue GAMMA=   1.3438
  3.0479  2.4285  1.0862  1.0337  1.0337  0.8606  0.6102  0.6493

 Free energy of the ion-electron system (eV)
  ---------------------------------------------------
  alpha Z        PSCENC =       797.98866349
  Ewald energy   TEWEN  =    -12876.41677137
  -Hartree energ DENC   =     -1180.86501367
  -exchange      EXHF   =         0.00000000
  -V(xc)+E(xc)   XCENC  =      -290.14892465
  PAW double counting   =     17002.31361297   -15990.05609539
  entropy T*S    EENTRO =        -0.00000000
  eigenvalues    EBANDS =      -799.71740732
  atomic energy  EATOM  =     13036.45147835
  Solvation  Ediel_sol  =         0.00000000
  ---------------------------------------------------
  free energy    TOTEN  =      -300.45045759 eV

  energy without entropy =     -300.45045759  energy(sigma->0) =     -300.45045759


--------------------------------------------------------------------------------------------------------




--------------------------------------- Iteration      1(  14)  ---------------------------------------


    POTLOK:  cpu time      0.1286: real time      0.1293
    SETDIJ:  cpu time      0.5999: real time      0.6017
     EDDAV:  cpu time      9.6659: real time      9.7172
       DOS:  cpu time      0.0007: real time      0.0007
    CHARGE:  cpu time      0.4201: real time      0.4217
    MIXING:  cpu time      0.0080: real time      0.0080
    --------------------------------------------
      LOOP:  cpu time     10.8232: real time     10.8787

 eigenvalue-minimisations  :  8320
 total energy-change (2. order) :-0.2025538E-04  (-0.1047248E-04)
 number of electron     359.9999993 magnetization       0.0059750
 augmentation part      -66.3014366 magnetization       0.0063349

 Broyden mixing:
  rms(total) = 0.19715E-02    rms(broyden)= 0.19715E-02
  rms(prec ) = 0.20753E-02
  weight for this iteration     100.00

 eigenvalues of (default mixing * dielectric matrix)
  average eigenvalue GAMMA=   1.3302
  3.0772  2.4734  1.4102  1.2285  0.8815  0.8815  0.7636  0.6152  0.6408

 Free energy of the ion-electron system (eV)
  ---------------------------------------------------
  alpha Z        PSCENC =       797.98866349
  Ewald energy   TEWEN  =    -12876.41677137
  -Hartree energ DENC   =     -1180.86963869
  -exchange      EXHF   =         0.00000000
  -V(xc)+E(xc)   XCENC  =      -290.14951557
  PAW double counting   =     16997.71090570   -15985.45055949
  entropy T*S    EENTRO =        -0.00000000
  eigenvalues    EBANDS =      -799.71504027
  atomic energy  EATOM  =     13036.45147835
  Solvation  Ediel_sol  =         0.00000000
  ---------------------------------------------------
  free energy    TOTEN  =      -300.45047785 eV

  energy without entropy =     -300.45047785  energy(sigma->0) =     -300.45047785


--------------------------------------------------------------------------------------------------------




--------------------------------------- Iteration      1(  15)  ---------------------------------------


    POTLOK:  cpu time      0.1285: real time      0.1292
    SETDIJ:  cpu time      0.6024: real time      0.6042
     EDDAV:  cpu time     10.0590: real time     10.1115
       DOS:  cpu time      0.0010: real time      0.0010
    CHARGE:  cpu time      0.4143: real time      0.4159
    MIXING:  cpu time      0.0090: real time      0.0090
    --------------------------------------------
      LOOP:  cpu time     11.2142: real time     11.2709

 eigenvalue-minimisations  :  8704
 total energy-change (2. order) :-0.3246107E-05  (-0.1877869E-05)
 number of electron     359.9999993 magnetization       0.0018536
 augmentation part      -66.3016062 magnetization       0.0020742

 Broyden mixing:
  rms(total) = 0.85267E-03    rms(broyden)= 0.85267E-03
  rms(prec ) = 0.89999E-03
  weight for this iteration     100.00

 eigenvalues of (default mixing * dielectric matrix)
  average eigenvalue GAMMA=   1.3004
  3.0913  2.4414  1.6656  1.0982  0.9709  0.9709  0.8368  0.6927  0.6181  0.6181

 Free energy of the ion-electron system (eV)
  ---------------------------------------------------
  alpha Z        PSCENC =       797.98866349
  Ewald energy   TEWEN  =    -12876.41677137
  -Hartree energ DENC   =     -1180.85220415
  -exchange      EXHF   =         0.00000000
  -V(xc)+E(xc)   XCENC  =      -290.15036993
  PAW double counting   =     16996.89484576   -15984.63345325
  entropy T*S    EENTRO =        -0.00000000
  eigenvalues    EBANDS =      -799.73267000
  atomic energy  EATOM  =     13036.45147835
  Solvation  Ediel_sol  =         0.00000000
  ---------------------------------------------------
  free energy    TOTEN  =      -300.45048109 eV

  energy without entropy =     -300.45048109  energy(sigma->0) =     -300.45048109


--------------------------------------------------------------------------------------------------------




--------------------------------------- Iteration      1(  16)  ---------------------------------------


    POTLOK:  cpu time      0.1293: real time      0.1300
    SETDIJ:  cpu time      0.5985: real time      0.6003
     EDDAV:  cpu time      6.6955: real time      6.7296
       DOS:  cpu time      0.0009: real time      0.0009
    --------------------------------------------
      LOOP:  cpu time      7.4242: real time      7.4607

 eigenvalue-minimisations  :  4872
 total energy-change (2. order) :-0.7692136E-06  (-0.1613880E-06)
 number of electron     359.9999993 magnetization       0.0018536
 augmentation part      -66.3016062 magnetization       0.0020742

 Free energy of the ion-electron system (eV)
  ---------------------------------------------------
  alpha Z        PSCENC =       797.98866349
  Ewald energy   TEWEN  =    -12876.41677137
  -Hartree energ DENC   =     -1180.84419107
  -exchange      EXHF   =         0.00000000
  -V(xc)+E(xc)   XCENC  =      -290.15071377
  PAW double counting   =     16996.85878866   -15984.59711041
  entropy T*S    EENTRO =        -0.00000000
  eigenvalues    EBANDS =      -799.74062574
  atomic energy  EATOM  =     13036.45147835
  Solvation  Ediel_sol  =         0.00000000
  ---------------------------------------------------
  free energy    TOTEN  =      -300.45048186 eV

  energy without entropy =     -300.45048186  energy(sigma->0) =     -300.45048186


--------------------------------------------------------------------------------------------------------




 average (electrostatic) potential at core
  the test charge radii are     1.1631  1.0808
  (the norm of the test charge is              1.0000)
       1 -33.2816       2 -33.5025       3 -33.5137       4 -33.4386       5 -33.4658
       6 -33.5720       7 -33.2870       8 -33.4276       9 -33.7444      10 -33.4525
      11 -33.2924      12 -33.3706      13 -33.5745      14 -33.5863      15 -33.3186
      16 -33.7466      17 -33.3405      18 -33.8352      19 -33.3723      20 -33.1833
      21 -33.3389      22 -33.3879      23 -33.3081      24 -33.5559      25 -33.5374
      26 -33.3937      27 -33.5002      28 -33.3550      29 -33.4750      30 -33.5713
      31 -33.6472      32 -33.7219      33 -33.6707      34 -33.4198      35 -33.3647
      36 -33.4248      37 -54.7325      38 -54.9073      39 -54.9165      40 -54.6111
      41 -55.0231      42 -54.8299      43 -54.8790      44 -54.7765      45 -54.6442
      46 -54.8243      47 -54.7126      48 -54.7937      49 -54.9772      50 -54.8097
      51 -55.0927      52 -54.7921      53 -54.5726      54 -54.7789      55 -54.7561
      56 -54.8362      57 -54.8686      58 -54.8020      59 -54.5972      60 -54.9710
      61 -54.9838      62 -55.1365      63 -54.7990      64 -54.9025      65 -54.8962
      66 -54.8370      67 -54.8571      68 -54.7812      69 -55.1849      70 -54.8066
      71 -54.5746      72 -54.3465
 
 
 
 E-fermi :   3.5392     XC(G=0):  -9.3849     alpha+bet : -8.8331

 Fermi energy:         3.5391617813

 spin component 1

 k-point     1 :       0.0000    0.0000    0.0000
  band No.  band energies     occupation 
      1     -10.9227      1.00000
      2     -10.6255      1.00000
      3     -10.4064      1.00000
      4     -10.3921      1.00000
      5     -10.3124      1.00000
      6     -10.2396      1.00000
      7     -10.0971      1.00000
      8     -10.0178      1.00000
      9      -9.9739      1.00000
     10      -9.9031      1.00000
     11      -9.8770      1.00000
     12      -9.8399      1.00000
     13      -9.7913      1.00000
     14      -9.7414      1.00000
     15      -9.6675      1.00000
     16      -9.6542      1.00000
     17      -9.5902      1.00000
     18      -9.5547      1.00000
     19      -9.5334      1.00000
     20      -9.4882      1.00000
     21      -9.4372      1.00000
     22      -9.3692      1.00000
     23      -9.3529      1.00000
     24      -9.3198      1.00000
     25      -9.2994      1.00000
     26      -9.2373      1.00000
     27      -9.2231      1.00000
     28      -9.1836      1.00000
     29      -9.1747      1.00000
     30      -9.1165      1.00000
     31      -9.0966      1.00000
     32      -9.0111      1.00000
     33      -8.9733      1.00000
     34      -8.9351      1.00000
     35      -8.8658      1.00000
     36      -8.7706      1.00000
     37      -5.4448      1.00000
     38      -5.3223      1.00000
     39      -5.2588      1.00000
     40      -5.2197      1.00000
     41      -5.0227      1.00000
     42      -4.9948      1.00000
     43      -4.9792      1.00000
     44      -4.8779      1.00000
     45      -4.7483      1.00000
     46      -4.7144      1.00000
     47      -4.5831      1.00000
     48      -4.5131      1.00000
     49      -4.4680      1.00000
     50      -4.4262      1.00000
     51      -4.4088      1.00000
     52      -4.3508      1.00000
     53      -4.3418      1.00000
     54      -4.3019      1.00000
     55      -4.2931      1.00000
     56      -4.2517      1.00000
     57      -4.2193      1.00000
     58      -4.1646      1.00000
     59      -4.1614      1.00000
     60      -4.1175      1.00000
     61      -4.0868      1.00000
     62      -4.0319      1.00000
     63      -3.9949      1.00000
     64      -3.9117      1.00000
     65      -3.8871      1.00000
     66      -3.7876      1.00000
     67      -3.6944      1.00000
     68      -3.6727      1.00000
     69      -3.5462      1.00000
     70      -3.5298      1.00000
     71      -2.5925      1.00000
     72      -2.4163      1.00000
     73      -1.8284      1.00000
     74      -1.6463      1.00000
     75      -1.5844      1.00000
     76      -1.5312      1.00000
     77      -1.4815      1.00000
     78      -1.4518      1.00000
     79      -1.4209      1.00000
     80      -1.3285      1.00000
     81      -1.2522      1.00000
     82      -1.2004      1.00000
     83      -1.1398      1.00000
     84      -1.0912      1.00000
     85      -1.0531      1.00000
     86      -0.8018      1.00000
     87      -0.8008      1.00000
     88      -0.7165      1.00000
     89      -0.6958      1.00000
     90      -0.5627      1.00000
     91      -0.5410      1.00000
     92      -0.4954      1.00000
     93      -0.3711      1.00000
     94      -0.2858      1.00000
     95      -0.1387      1.00000
     96      -0.0667      1.00000
     97      -0.0128      1.00000
     98       0.0183      1.00000
     99       0.0486      1.00000
    100       0.0740      1.00000
    101       0.1067      1.00000
    102       0.1522      1.00000
    103       0.2021      1.00000
    104       0.2307      1.00000
    105       0.2837      1.00000
    106       0.3099      1.00000
    107       0.3769      1.00000
    108       0.3816      1.00000
    109       0.4041      1.00000
    110       0.4434      1.00000
    111       0.4695      1.00000
    112       0.5275      1.00000
    113       0.5584      1.00000
    114       0.5950      1.00000
    115       0.6357      1.00000
    116       0.6565      1.00000
    117       0.6978      1.00000
    118       0.7374      1.00000
    119       0.7583      1.00000
    120       0.7931      1.00000
    121       0.8229      1.00000
    122       0.8638      1.00000
    123       0.8756      1.00000
    124       0.9121      1.00000
    125       0.9949      1.00000
    126       1.0255      1.00000
    127       1.0797      1.00000
    128       1.1081      1.00000
    129       1.1185      1.00000
    130       1.1992      1.00000
    131       1.2145      1.00000
    132       1.2479      1.00000
    133       1.2893      1.00000
    134       1.3635      1.00000
    135       1.3892      1.00000
    136       1.4208      1.00000
    137       1.4300      1.00000
    138       1.4801      1.00000
    139       1.4933      1.00000
    140       1.5129      1.00000
    141       1.5903      1.00000
    142       1.5932      1.00000
    143       1.6507      1.00000
    144       1.6877      1.00000
    145       1.7234      1.00000
    146       1.7696      1.00000
    147       1.8424      1.00000
    148       1.8573      1.00000
    149       1.8728      1.00000
    150       1.9307      1.00000
    151       1.9517      1.00000
[...]
   -.113E+02 0.108E+02 -.286E+02   0.135E+02 -.110E+02 0.314E+02   -.219E+01 0.771E-02 -.236E+01   0.209E-03 -.831E-05 0.186E-03
   -.136E+02 -.572E+01 0.261E+02   0.147E+02 0.498E+01 -.288E+02   -.855E+00 0.936E+00 0.270E+01   0.168E-04 -.122E-03 0.542E-04
   -.770E+01 0.106E+02 0.374E+02   0.784E+01 -.112E+02 -.399E+02   0.123E+00 0.870E+00 0.168E+01   -.379E-03 -.190E-03 0.317E-03
   0.104E+02 0.248E+01 0.284E+02   -.105E+02 -.326E+01 -.301E+02   -.430E+00 0.635E+00 0.175E+01   -.104E-03 -.168E-03 0.229E-03
   0.371E+01 0.104E+02 0.310E+02   -.367E+01 -.118E+02 -.330E+02   -.106E-01 0.927E+00 0.213E+01   -.206E-03 -.722E-04 0.127E-03
   0.964E-01 0.163E+02 0.209E+02   -.417E+00 -.172E+02 -.228E+02   -.294E-01 0.648E+00 0.228E+01   0.190E-03 -.187E-04 0.153E-03
   -.619E+01 0.673E+01 0.134E+02   0.624E+01 -.757E+01 -.150E+02   -.407E-01 0.117E+01 0.203E+01   0.220E-04 -.408E-03 -.122E-03
   -.504E+01 -.187E+01 0.385E+02   0.490E+01 0.168E+01 -.406E+02   0.222E+00 0.140E+00 0.200E+01   0.118E-03 0.540E-03 -.325E-03
   -.587E-01 0.656E+01 0.249E+02   -.694E-01 -.702E+01 -.270E+02   0.273E+00 0.604E+00 0.211E+01   0.828E-04 -.442E-04 0.387E-03
   -.486E+01 0.522E+01 -.188E+02   0.509E+01 -.451E+01 0.205E+02   -.237E+00 -.721E+00 -.220E+01   -.120E-03 0.877E-04 -.208E-04
   0.124E+02 0.595E+01 -.326E+02   -.123E+02 -.606E+01 0.341E+02   -.125E+00 -.555E-01 -.113E+01   -.205E-03 -.615E-04 -.245E-03
   -.151E+01 0.582E+01 -.281E+02   0.162E+01 -.591E+01 0.299E+02   -.141E-02 -.434E+00 -.150E+01   -.128E-03 0.286E-03 -.319E-03
   0.412E+01 -.185E+02 -.293E+02   -.386E+01 0.193E+02 0.311E+02   -.148E+00 -.118E+01 -.216E+01   -.132E-03 -.308E-03 -.232E-03
   -.205E+02 -.271E+01 -.181E+02   0.215E+02 0.324E+01 0.193E+02   -.713E+00 -.652E+00 -.184E+01   0.281E-03 0.138E-03 0.374E-03
   0.196E+02 0.163E+02 -.227E+02   -.207E+02 -.169E+02 0.244E+02   0.525E+00 -.339E+00 -.207E+01   0.225E-03 0.617E-04 -.136E-03
   -.398E+01 -.204E+02 -.417E+02   0.383E+01 0.212E+02 0.438E+02   0.698E-01 -.868E+00 -.176E+01   0.155E-03 -.250E-03 0.608E-04
   0.195E+02 0.224E+02 0.225E+02   -.203E+02 -.233E+02 -.242E+02   0.526E+00 0.612E+00 0.225E+01   0.249E-03 0.166E-03 -.475E-04
   0.786E+01 -.353E+00 0.404E+02   -.824E+01 -.447E+00 -.426E+02   0.197E+00 0.911E+00 0.166E+01   0.492E-04 0.285E-03 0.580E-03
   0.256E+02 -.329E+01 0.208E+02   -.268E+02 0.384E+01 -.226E+02   0.914E+00 -.385E+00 0.206E+01   -.919E-04 -.864E-04 -.245E-03
   0.583E-01 -.102E+02 0.201E+02   -.383E+00 0.110E+02 -.214E+02   0.437E+00 -.755E+00 0.161E+01   -.157E-03 0.106E-03 -.284E-03
   0.127E+01 -.122E+02 0.284E+02   -.118E+01 0.138E+02 -.300E+02   0.164E+00 -.104E+01 0.208E+01   -.169E-04 -.587E-04 -.157E-03
   -.120E+02 -.156E+02 -.196E+02   0.121E+02 0.171E+02 0.214E+02   -.264E+00 -.118E+01 -.174E+01   -.202E-03 -.134E-03 -.189E-03
   0.272E+02 -.398E+01 -.246E+02   -.283E+02 0.416E+01 0.265E+02   0.971E+00 -.678E-01 -.219E+01   -.283E-03 0.287E-03 0.252E-03
   -.357E+01 0.615E+01 -.238E+02   0.407E+01 -.707E+01 0.258E+02   0.248E-01 0.107E+01 -.214E+01   -.381E-03 0.124E-03 0.289E-04
   0.159E+00 0.787E+01 -.191E+02   -.884E-01 -.853E+01 0.211E+02   0.268E+00 0.821E+00 -.241E+01   -.386E-03 -.198E-03 -.209E-03
   -.183E+02 0.131E+02 -.322E+02   0.189E+02 -.141E+02 0.342E+02   -.267E+00 0.124E+01 -.144E+01   0.115E-03 -.467E-04 -.291E-03
   -.120E+02 0.889E+01 -.213E+02   0.124E+02 -.976E+01 0.230E+02   0.337E+00 0.828E+00 -.184E+01   -.223E-04 -.112E-03 0.139E-03
   0.129E+02 -.473E+01 -.193E+02   -.141E+02 0.469E+01 0.213E+02   0.734E+00 -.229E+00 -.199E+01   0.281E-03 0.292E-03 -.153E-03
   0.287E+00 0.127E+02 -.376E+02   -.283E+00 -.135E+02 0.399E+02   -.259E+00 0.114E+01 -.177E+01   0.155E-03 -.303E-03 -.280E-03
   0.253E+02 -.190E+01 -.281E+02   -.266E+02 0.179E+01 0.298E+02   0.596E+00 -.708E-01 -.194E+01   0.482E-03 0.208E-03 0.453E-03
   -.106E+02 0.547E+01 -.375E+02   0.113E+02 -.630E+01 0.401E+02   -.613E+00 0.970E+00 -.179E+01   0.236E-04 0.247E-03 -.328E-03
   0.116E+02 -.106E+02 0.293E+02   -.119E+02 0.118E+02 -.315E+02   0.184E+00 -.804E+00 0.185E+01   -.105E-03 0.560E-04 0.114E-04
   0.142E+02 -.118E+02 0.238E+02   -.146E+02 0.128E+02 -.255E+02   0.553E+00 -.624E+00 0.193E+01   -.149E-03 -.265E-03 -.226E-03
   0.390E+01 0.367E+01 0.303E+02   -.459E+01 -.331E+01 -.319E+02   0.769E+00 -.254E+00 0.185E+01   0.316E-03 0.291E-04 0.100E-03
   -.111E+02 -.126E+02 0.388E+02   0.108E+02 0.134E+02 -.409E+02   0.171E+00 -.660E+00 0.155E+01   0.955E-04 -.153E-03 0.828E-04
   -.167E+02 -.183E+02 0.169E+02   0.169E+02 0.194E+02 -.187E+02   0.300E+00 -.125E+01 0.141E+01   0.414E-03 0.493E-04 -.706E-04
   0.131E+02 -.938E+01 0.234E+02   -.135E+02 0.101E+02 -.252E+02   0.345E+00 -.988E+00 0.180E+01   0.833E-04 0.233E-04 -.154E-03
   -.979E+01 -.877E+01 -.366E+02   0.981E+01 0.862E+01 0.385E+02   -.114E+00 0.392E+00 -.158E+01   -.110E-03 0.398E-05 -.275E-04
 -----------------------------------------------------------------------------------------------
   0.709E+01 0.409E+00 -.984E+00   0.139E-12 0.817E-13 0.121E-12   -.709E+01 -.409E+00 0.984E+00   -.226E-03 0.325E-03 -.589E-03
 
 
 POSITION                                       TOTAL-FORCE (eV/Angst)
 -----------------------------------------------------------------------------------
      0.67881      0.65288      1.41130         0.035036     -0.393678     -0.129166
      3.30318     10.92165      4.10146        -0.705912      0.051412     -0.147681
      6.99894      2.65507      4.15800         0.064907      0.084073     -0.264684
      6.85896      6.62350      4.12801         0.477661      0.731588      0.460379
      7.30979     10.94035      4.13396        -0.085085     -0.151740      0.420339
     11.04527      2.57128      4.14499         0.178542      0.042564     -0.535721
     11.50415      6.68225      4.04661        -0.462514      0.421097      0.039793
     11.37507     11.01503      4.06966        -0.128165     -0.056263     -0.173737
      0.99362      2.09124      7.09022        -0.412859     -0.299965      0.111522
      1.04374      6.02984      7.08248        -0.118818      0.069157     -0.057762
      0.80606     10.15049      7.13044         0.000918      0.571993      0.060473
      4.81451      1.79873      6.96210         0.896162      0.330006     -0.423475
      5.18351      6.14945      7.01117        -0.192248      0.088919      0.116556
      4.93219     10.32262      7.18645         0.258324      0.037885     -0.438340
      9.01068      2.11081      7.07355         0.138693     -0.461697     -0.396065
      9.14880      6.19984      6.91537        -0.080699     -0.072194      0.247837
      2.83387      6.64118      3.94603        -0.017659      0.392480      0.552321
      2.86370      2.52848      4.27645        -0.249190      0.005503     -0.709569
      9.24247     10.35352      7.27556        -0.068695     -0.189856     -1.062972
     11.29422      8.07715      9.64070         0.284018      0.280195      0.597096
     11.20446      0.08473      9.49512         0.120352     -0.374415      0.895879
      0.73034      4.60866      1.42868        -0.146003      0.199299     -0.231555
      0.84252      8.95130      1.48619        -0.122888     -0.149595      0.151716
      4.61815      0.48269      1.45935         0.445772      0.191051      0.412371
      5.03911      4.82064      1.56614        -0.258607     -0.397908      0.021002
      8.90902      0.69719      1.45879         0.058578     -0.389719      0.215197
      8.79626      4.76377      1.47312         0.849602     -0.361478     -0.082304
      4.95268      8.83715      1.47395        -0.087934      0.060221     -0.092015
      3.10259      4.01239      9.71146        -0.093635     -0.175432     -0.143798
      3.00601      8.23396      9.69671        -0.623549     -0.092971     -0.136883
      2.97123      0.02030      9.52703        -0.791096     -0.221541     -0.020592
      6.88451      4.08195      9.61641         0.353700     -0.472506     -0.244778
      6.99023      8.30948      9.64416        -0.126583     -0.115813     -0.020860
      7.10765     12.10579      9.73547         0.520520      0.795827     -0.267993
     11.06603      4.23763      9.36294         0.033897     -0.171447      0.478914
      8.88930      8.82100      1.53046         0.241054      0.201948      0.016766
     11.15749      0.28976      7.10758         0.265353      0.321952     -0.818107
      3.19192      4.40327      7.14698        -0.463830     -0.148939      0.017734
      2.95728      8.66373      7.15333         0.024615     -0.453314      0.210497
      7.18766      0.24839      7.10054        -0.349447     -0.256270      0.422391
      7.13029      4.37034      7.05414         0.010985      0.326307      0.399353
      7.20025      8.52782      7.16299         0.084147     -0.040542     -0.103756
     11.35612      4.30782      6.88691         0.144692      0.139725      0.016408
      9.20433      0.20100      4.07052        -0.004026     -0.008067     -0.510648
      1.07161      0.30037      3.87867        -0.093481     -0.158703      0.440309
      0.76819      4.42944      3.93077         0.104416     -0.526772      0.364372
      0.90726      8.58073      4.08104         0.110821     -0.333574     -0.364918
      4.96983      0.32639      4.08851         0.267008     -0.122545     -0.630190
      5.18215      4.66365      4.13519        -0.484801     -0.956332     -0.289665
      4.91255      8.41924      3.95431        -0.073992     -0.015137      0.332490
      2.98463      0.09818      6.93758        -0.276960     -0.331730      0.511067
     11.30094      8.44389      7.19728        -0.183618      0.111184     -0.528541
     11.40319     10.70385      1.54109        -0.194407      0.159415      0.283523
      2.90726      2.40342      1.65217         0.112141      0.025297      0.361907
     11.02062      2.21379      1.50182         0.253622      0.504157      0.427863
      9.09949      4.26691      3.96714        -0.170337      0.292365      0.082956
      1.20513      2.15371      9.61956        -0.149261      0.113747     -0.284789
      0.87576      6.36397      9.60048         0.528805      0.158675     -0.153096
      0.79814     10.76193      9.65397         0.337942      0.161191     -0.403019
      4.99279      2.17511      9.44001         0.300570      0.310124      0.541691
      4.88234      6.50795      9.56632         0.784706     -0.037037     -0.079091
      5.19767     10.48103      9.67797        -0.389209     -0.268949     -0.021562
      9.12776      2.41687      9.50837        -0.254763      0.285762      0.498934
      9.44312      6.33481      9.52404        -0.709095     -0.183101     -0.282008
      9.23642     10.57749      9.66514         0.054709      0.144046      0.781808
      2.91331      6.28718      1.50792        -0.136509      0.341125     -0.349451
      2.98552     10.53470      1.54205         0.123209      0.375618      0.233609
      6.89908      2.31555      1.57268         0.075504      0.114261      0.186932
      7.07546      6.59526      1.64490        -0.140206      0.126234     -0.483943
      6.84218     10.66146      1.68440         0.462432     -0.127536     -0.368768
     11.22452      6.48890      1.54687        -0.067381     -0.287876     -0.027250
      9.22186      8.52241      3.94506        -0.089949      0.238234      0.366750
 -----------------------------------------------------------------------------------
    total drift:                               -0.000733      0.000083     -0.000547


--------------------------------------------------------------------------------------------------------



  FREE ENERGIE OF THE ION-ELECTRON SYSTEM (eV)
  ---------------------------------------------------
  free  energy   TOTEN  =      -300.45048186 eV

  energy  without entropy=     -300.45048186  energy(sigma->0) =     -300.45048186
 


--------------------------------------------------------------------------------------------------------


    POTLOK:  cpu time      0.7283: real time      0.7315


--------------------------------------------------------------------------------------------------------


     LOOP+:  cpu time    181.6947: real time    182.6535
    4ORBIT:  cpu time      0.0000: real time      0.0000



 total charge

# of ion       s       p       d       tot
------------------------------------------
    1        1.328   0.763   0.056   2.146
    2        1.330   0.744   0.054   2.128
    3        1.330   0.738   0.053   2.121
    4        1.321   0.789   0.067   2.177
    5        1.334   0.735   0.052   2.120
    6        1.337   0.716   0.052   2.104
    7        1.322   0.762   0.056   2.140
    8        1.332   0.720   0.048   2.101
    9        1.332   0.716   0.048   2.096
   10        1.326   0.753   0.051   2.130
   11        1.318   0.784   0.056   2.158
   12        1.317   0.800   0.062   2.179
   13        1.325   0.757   0.057   2.139
   14        1.328   0.760   0.056   2.144
   15        1.311   0.796   0.062   2.170
   16        1.345   0.684   0.047   2.076
   17        1.325   0.773   0.059   2.157
   18        1.338   0.680   0.045   2.063
   19        1.326   0.774   0.059   2.159
   20        1.315   0.816   0.066   2.197
   21        1.321   0.781   0.059   2.162
   22        1.331   0.748   0.056   2.134
   23        1.321   0.764   0.056   2.142
   24        1.332   0.727   0.051   2.109
   25        1.326   0.764   0.058   2.148
   26        1.320   0.765   0.052   2.138
   27        1.331   0.754   0.053   2.138
   28        1.311   0.805   0.064   2.179
   29        1.328   0.755   0.057   2.139
   30        1.326   0.750   0.054   2.129
   31        1.334   0.722   0.052   2.108
   32        1.328   0.727   0.048   2.103
   33        1.328   0.737   0.052   2.118
   34        1.322   0.775   0.055   2.152
   35        1.326   0.777   0.059   2.161
   36        1.327   0.746   0.052   2.125
   37        1.479   2.296   0.031   3.806
   38        1.477   2.294   0.032   3.803
   39        1.478   2.305   0.033   3.815
   40        1.478   2.272   0.025   3.775
   41        1.479   2.288   0.033   3.800
   42        1.479   2.284   0.030   3.793
   43        1.480   2.284   0.032   3.796
   44        1.477   2.285   0.029   3.791
   45        1.472   2.293   0.027   3.792
   46        1.476   2.298   0.032   3.807
   47        1.478   2.284   0.029   3.791
   48        1.480   2.287   0.031   3.797
   49        1.478   2.303   0.037   3.818
   50        1.474   2.307   0.032   3.813
   51        1.482   2.292   0.037   3.812
   52        1.476   2.315   0.034   3.826
   53        1.478   2.291   0.029   3.797
   54        1.478   2.290   0.030   3.797
   55        1.477   2.298   0.030   3.805
   56        1.473   2.312   0.032   3.817
   57        1.479   2.287   0.032   3.798
   58        1.478   2.288   0.031   3.797
   59        1.480   2.270   0.026   3.776
   60        1.476   2.307   0.034   3.818
   61        1.478   2.299   0.033   3.810
   62        1.480   2.311   0.039   3.830
   63        1.478   2.302   0.032   3.812
   64        1.475   2.306   0.033   3.814
   65        1.480   2.311   0.037   3.827
   66        1.476   2.315   0.035   3.826
   67        1.478   2.299   0.033   3.809
   68        1.478   2.284   0.029   3.792
   69        1.478   2.327   0.042   3.848
   70        1.475   2.306   0.032   3.814
   71        1.477   2.285   0.027   3.788
   72        1.476   2.286   0.024   3.787
--------------------------------------------------
tot        100.941 109.820   3.128 213.889



 magnetization (x)

# of ion       s       p       d       tot
------------------------------------------
    1       -0.000   0.000  -0.000  -0.000
    2       -0.000   0.000   0.000   0.000
    3       -0.000   0.000   0.000   0.000
    4       -0.000   0.000   0.000   0.000
    5       -0.000   0.000  -0.000   0.000
    6       -0.000  -0.000  -0.000  -0.000
    7       -0.000  -0.000  -0.000  -0.000
    8        0.000  -0.000  -0.000  -0.000
    9       -0.000   0.000   0.000   0.000
   10       -0.000   0.000   0.000   0.000
   11       -0.000  -0.000  -0.000  -0.000
   12       -0.000   0.000   0.000   0.000
   13       -0.000   0.000   0.000   0.000
   14       -0.000   0.000   0.000   0.000
   15       -0.000   0.000   0.000   0.000
   16       -0.000   0.000   0.000   0.000
   17       -0.000   0.000   0.000   0.000
   18       -0.000   0.000   0.000   0.000
   19       -0.000  -0.000  -0.000  -0.000
   20        0.000  -0.000  -0.000  -0.000
   21       -0.000   0.000  -0.000  -0.000
   22       -0.000   0.000   0.000   0.000
   23       -0.000   0.000  -0.000  -0.000
   24       -0.000   0.000   0.000   0.000
   25       -0.000   0.000   0.000   0.000
   26       -0.000  -0.000  -0.000  -0.000
   27       -0.000   0.000   0.000   0.000
   28       -0.000   0.000   0.000   0.000
   29       -0.000   0.000   0.000   0.000
   30       -0.000   0.000   0.000   0.000
   31       -0.000   0.000   0.000   0.000
   32       -0.000   0.000   0.000   0.000
   33       -0.000   0.000   0.000   0.000
   34       -0.000   0.000   0.000   0.000
   35       -0.000   0.000  -0.000   0.000
   36       -0.000  -0.000  -0.000  -0.000
   37       -0.000  -0.000  -0.000  -0.000
   38       -0.000  -0.000   0.000  -0.000
   39       -0.000  -0.000   0.000  -0.000
   40       -0.000  -0.000   0.000  -0.000
   41       -0.000  -0.000   0.000  -0.000
   42       -0.000  -0.000   0.000  -0.000
   43       -0.000  -0.000   0.000  -0.000
   44       -0.000  -0.000  -0.000  -0.000
   45       -0.000  -0.000  -0.000  -0.000
   46       -0.000  -0.000   0.000  -0.000
   47       -0.000  -0.000  -0.000  -0.000
   48       -0.000  -0.000   0.000  -0.000
   49       -0.000  -0.000   0.000  -0.000
   50       -0.000  -0.000   0.000  -0.000
   51       -0.000  -0.000   0.000  -0.000
   52       -0.000  -0.000  -0.000  -0.000
   53       -0.000  -0.000  -0.000  -0.000
   54       -0.000  -0.000   0.000  -0.000
   55       -0.000  -0.000  -0.000  -0.000
   56       -0.000  -0.000   0.000  -0.000
   57       -0.000  -0.000   0.000  -0.000
   58       -0.000  -0.000   0.000  -0.000
   59       -0.000  -0.000  -0.000  -0.000
   60       -0.000  -0.000   0.000  -0.000
   61       -0.000  -0.000   0.000  -0.000
   62       -0.000  -0.000   0.000  -0.000
   63       -0.000  -0.000   0.000  -0.000
   64       -0.000  -0.000  -0.000  -0.000
   65       -0.000  -0.000  -0.000  -0.000
   66       -0.000  -0.000   0.000  -0.000
   67       -0.000  -0.000   0.000  -0.000
   68       -0.000  -0.000   0.000  -0.000
   69       -0.000  -0.000   0.000  -0.000
   70       -0.000  -0.000   0.000  -0.000
   71       -0.000  -0.000  -0.000  -0.000
   72       -0.000  -0.000  -0.000  -0.000
--------------------------------------------------
tot         -0.000  -0.000   0.000  -0.000
 

 total amount of memory used by VASP MPI-rank0   110605. kBytes
=======================================================================

   base      :      30000. kBytes
   nonl-proj :      16310. kBytes
   fftplans  :       6179. kBytes
   grid      :      15593. kBytes
   one-center:        146. kBytes
   wavefun   :      42377. kBytes
 
  
  
 General timing and accounting informations for this job:
 ========================================================
  
                  Total CPU time used (sec):      193.405
                            User time (sec):      187.487
                          System time (sec):        5.918
                         Elapsed time (sec):      195.998
  
                   Maximum memory used (kb):      315572.
                   Average memory used (kb):          N/A
  
                          Minor page faults:       102573
                          Major page faults:           43
                 Voluntary context switches:         5636
