 vasp.6.4.2 20Jul23 (build Oct 12 2023 10:31:02) complex                         
 executed on              LinuxNV date 2024.11.01  17:45:46
 running  128 mpi-ranks, with    1 threads/rank, on    2 nodes
 distrk:  each k-point on   64 cores,    2 groups
 distr:  one band on NCORE=   8 cores,    8 groups


--------------------------------------------------------------------------------------------------------


 INCAR:
   ENCUT = 520.000000
   SIGMA = 0.050000
   EDIFF = 1.00e-06
   ALGO = N
   GGA = PE
   PREC = Accurate
   SYSTEM = 01_AOPT
   ICHARG = 0
   ISMEAR = 0
   ISPIN = 2
   ISTART = 1
   ISYM = -1
   KPAR = 2
   LORBIT = 11
   NBANDS = 220
   NELM = 100
   NELMIN = 5
   NPAR = 8
   LASPH = .TRUE.
   LCHARG = .FALSE.
   LWAVE = .FALSE.
   LREAL = .FALSE.

 POTCAR:    PAW_PBE Ge 05Jan2001                  
 POTCAR:    PAW_PBE Se 06Sep2000                  
 -----------------------------------------------------------------------------
|                                                                             |
|           W    W    AA    RRRRR   N    N  II  N    N   GGGG   !!!           |
|           W    W   A  A   R    R  NN   N  II  NN   N  G    G  !!!           |
|           W    W  A    A  R    R  N N  N  II  N N  N  G       !!!           |
|           W WW W  AAAAAA  RRRRR   N  N N  II  N  N N  G  GGG   !            |
|           WW  WW  A    A  R   R   N   NN  II  N   NN  G    G                |
|           W    W  A    A  R    R  N    N  II  N    N   GGGG   !!!           |
|                                                                             |
|     You use a magnetic or noncollinear calculation, but did not specify     |
|     the initial magnetic moment with the MAGMOM tag. Note that a            |
|     default of 1 will be used for all atoms. This ferromagnetic setup       |
|     may break the symmetry of the crystal, in particular it may rule        |
|     out finding an antiferromagnetic solution. Thence, we recommend         |
|     setting the initial magnetic moment manually or verifying carefully     |
|     that this magnetic setup is desired.                                    |
|                                                                             |
 -----------------------------------------------------------------------------

 POTCAR:    PAW_PBE Ge 05Jan2001                  
   VRHFIN =Ge: s2p2                                                                                 
   LEXCH  = PE                                                                                      
   EATOM  =   104.9960 eV,    7.7170 Ry                                                             
                                                                                                    
   TITEL  = PAW_PBE Ge 05Jan2001                                                                    
   LULTRA =        F    use ultrasoft PP ?                                                          
   IUNSCR =        1    unscreen: 0-lin 1-nonlin 2-no                                               
   RPACOR =    2.170    partial core radius                                                         
   POMASS =   72.610; ZVAL   =    4.000    mass and valenz                                          
   RCORE  =    2.300    outmost cutoff radius                                                       
   RWIGS  =    2.300; RWIGS  =    1.217    wigner-seitz radius (au A)                               
   ENMAX  =  173.807; ENMIN  =  130.355 eV                                                          
   ICORE  =        3    local potential                                                             
   LCOR   =        T    correct aug charges                                                         
   LPAW   =        T    paw PP                                                                      
   EAUG   =  385.843                                                                                
   DEXC   =    0.000                                                                                
   RMAX   =    2.342    core radius for proj-oper                                                   
   RAUG   =    1.300    factor for augmentation sphere                                              
   RDEP   =    2.318    radius for radial grids                                                     
   RDEPT  =    2.103    core radius for aug-charge                                                  
                                                                                                    
   Atomic configuration                                                                             
   10 entries                                                                                       
     n  l   j            E        occ.                                                              
     1  0  0.50    -10959.8463   2.0000                                                             
     2  0  0.50     -1371.6056   2.0000                                                             
     2  1  1.50     -1198.4791   6.0000                                                             
     3  0  0.50      -168.4733   2.0000                                                             
     3  1  1.50      -115.6019   6.0000                                                             
     3  2  2.50       -29.3106  10.0000                                                             
     4  0  0.50       -11.7309   2.0000                                                             
     4  1  0.50        -3.8952   2.0000                                                             
     4  2  1.50        -4.0817   0.0000                                                             
     4  3  2.50        -4.0817   0.0000                                                             
   Description                                                                                      
     l       E           TYP  RCUT    TYP  RCUT                                                     
     0    -11.7309493     23  2.300                                                                 
     0     -7.4578696     23  2.300                                                                 
     1     -3.8952261     23  2.300                                                                 
     1      6.1178114     23  2.300                                                                 
     2     -4.0817478     23  2.300                                                                 
     3     -1.3605826      7  2.300                                                                 
  local pseudopotential read in
  partial core-charges read in
  partial kinetic energy density read in
  atomic valenz-charges read in
  non local Contribution for L=            0  read in
    real space projection operators read in
  non local Contribution for L=            0  read in
    real space projection operators read in
  non local Contribution for L=            1  read in
    real space projection operators read in
  non local Contribution for L=            1  read in
    real space projection operators read in
  non local Contribution for L=            2  read in
    real space projection operators read in
    PAW grid and wavefunctions read in
 
   number of l-projection  operators is LMAX  =            5
   number of lm-projection operators is LMMAX =           13
 
 POTCAR:    PAW_PBE Se 06Sep2000                  
   VRHFIN =Se: s2p4                                                                                 
   LEXCH  = PE                                                                                      
   EATOM  =   257.1286 eV,   18.8984 Ry                                                             
                                                                                                    
   TITEL  = PAW_PBE Se 06Sep2000                                                                    
   LULTRA =        F    use ultrasoft PP ?                                                          
   IUNSCR =        1    unscreen: 0-lin 1-nonlin 2-no                                               
   RPACOR =    1.900    partial core radius                                                         
   POMASS =   78.960; ZVAL   =    6.000    mass and valenz                                          
   RCORE  =    2.100    outmost cutoff radius                                                       
   RWIGS  =    2.200; RWIGS  =    1.164    wigner-seitz radius (au A)                               
   ENMAX  =  211.555; ENMIN  =  158.666 eV                                                          
   ICORE  =        3    local potential                                                             
   LCOR   =        T    correct aug charges                                                         
   LPAW   =        T    paw PP                                                                      
   EAUG   =  446.842                                                                                
   DEXC   =    0.000                                                                                
   RMAX   =    2.147    core radius for proj-oper                                                   
   RAUG   =    1.300    factor for augmentation sphere                                              
   RDEP   =    2.177    radius for radial grids                                                     
   RDEPT  =    1.928    core radius for aug-charge                                                  
                                                                                                    
   Atomic configuration                                                                             
   10 entries                                                                                       
     n  l   j            E        occ.                                                              
     1  0  0.50    -12503.4787   2.0000                                                             
     2  0  0.50     -1606.9547   2.0000                                                             
     2  1  1.50     -1413.3140   6.0000                                                             
     3  0  0.50      -213.4885   2.0000                                                             
     3  1  1.50      -152.9538   6.0000                                                             
     3  2  2.50       -53.1221  10.0000                                                             
     4  0  0.50       -17.2865   2.0000                                                             
     4  1  0.50        -6.5110   4.0000                                                             
     4  2  2.50        -6.8029   0.0000                                                             
     4  3  2.50        -6.8029   0.0000                                                             
   Description                                                                                      
     l       E           TYP  RCUT    TYP  RCUT                                                     
     0    -17.2865377     23  2.100                                                                 
     0    -15.3094411     23  2.100                                                                 
     1     -6.5110275     23  2.100                                                                 
     1     -0.0695192     23  2.100                                                                 
     2     -6.8029130     23  2.100                                                                 
     3     -1.3605826      7  2.100                                                                 
  local pseudopotential read in
  partial core-charges read in
  partial kinetic energy density read in
  atomic valenz-charges read in
  non local Contribution for L=            0  read in
    real space projection operators read in
  non local Contribution for L=            0  read in
    real space projection operators read in
  non local Contribution for L=            1  read in
    real space projection operators read in
  non local Contribution for L=            1  read in
    real space projection operators read in
  non local Contribution for L=            2  read in
    real space projection operators read in
    PAW grid and wavefunctions read in
 
   number of l-projection  operators is LMAX  =            5
   number of lm-projection operators is LMMAX =           13
 
 -----------------------------------------------------------------------------
|                                                                             |
|               ----> ADVICE to this user running VASP <----                  |
|                                                                             |
|     You have a (more or less) 'large supercell' and for larger cells it     |
|     might be more efficient to use real-space projection operators.         |
|     Therefore, try LREAL= Auto in the INCAR file.                           |
|     Mind: For very accurate calculation, you might also keep the            |
|     reciprocal projection scheme (i.e. LREAL=.FALSE.).                      |
|                                                                             |
 -----------------------------------------------------------------------------

  PAW_PBE Ge 05Jan2001                  :
 energy of atom  1       EATOM= -104.9960
 kinetic energy error for atom=    0.0002 (will be added to EATOM!!)
  PAW_PBE Se 06Sep2000                  :
 energy of atom  2       EATOM= -257.1286
 kinetic energy error for atom=    0.0007 (will be added to EATOM!!)
 
 
 POSCAR: Ge Se
  positions in cartesian coordinates
  No initial velocities read in
 exchange correlation table for  LEXCH =        8
   RHO(1)=    0.500       N(1)  =     2000
   RHO(2)=  100.500       N(2)  =     4000
 


--------------------------------------------------------------------------------------------------------


 ion  position               nearest neighbor table
   1  0.070  0.042  0.110-  55 2.54  54 2.63  45 2.68
   2  0.231  0.855  0.368-  67 2.56  45 2.78  48 2.82  50 2.84
   3  0.575  0.213  0.363-  68 2.47  49 2.58  56 2.62
   4  0.546  0.558  0.360-  50 2.57  69 2.58  72 2.67
   5  0.597  0.860  0.370-  72 2.58  70 2.61  44 2.63
   6  0.886  0.221  0.375-  56 2.51  46 2.55  55 2.59
   7  0.920  0.529  0.364-  47 2.54  71 2.70  46 2.76
   8  0.914  0.873  0.378-  45 2.53  53 2.68  44 2.74
   9  0.065  0.137  0.606-  37 2.46  51 2.60  57 2.78
  10  0.067  0.486  0.632-  43 2.58  38 2.61  58 2.64
  11  0.054  0.829  0.627-  59 2.65  52 2.70  37 2.70
  12  0.394  0.169  0.622-  60 2.62  40 2.68  51 2.82
  13  0.366  0.497  0.643-  61 2.46  38 2.50  39 2.66
  14  0.429  0.807  0.619-  42 2.51  39 2.64  62 2.67
  15  0.718  0.171  0.630-  63 2.48  40 2.62  41 2.72
  16  0.746  0.477  0.615-  43 2.59  64 2.64  41 2.69
  17  0.224  0.545  0.360-  47 2.52  66 2.52  50 2.76
  18  0.242  0.184  0.367-  54 2.60  48 2.72
  19  0.731  0.818  0.635-  42 2.59  52 2.61  65 2.61
  20  0.892  0.667  0.854-  64 2.50  52 2.66  58 2.74
  21  0.884  0.013  0.865-  37 2.51  63 2.66  65 2.67
  22  0.077  0.362  0.128-  46 2.50  66 2.72  54 2.80
  23  0.081  0.687  0.137-  47 2.61  53 2.62  67 2.66
  24  0.412  0.039  0.143-  48 2.51  68 2.73
  25  0.401  0.378  0.133-  49 2.52  66 2.58  69 2.63
  26  0.739  0.025  0.138-  44 2.54  55 2.65  68 2.72
  27  0.741  0.375  0.102-  71 2.53  69 2.78  56 2.81
  28  0.403  0.714  0.124-  67 2.57  70 2.58  50 2.74
  29  0.209  0.317  0.878-  57 2.51  60 2.58  38 2.72
  30  0.212  0.671  0.870-  58 2.56  59 2.57  39 2.63
  31  0.229  0.981  0.869-  51 2.59  59 2.62  62 2.70
  32  0.538  0.338  0.876-  61 2.64  41 2.68  60 2.82
  33  0.588  0.645  0.879-  64 2.61  42 2.67  61 2.74
  34  0.558  0.985  0.873-  40 2.58  65 2.65  62 2.70
  35  0.904  0.303  0.857-  43 2.58  57 2.61  63 2.61
  36  0.751  0.723  0.146-  53 2.46  72 2.53
  37  0.925  0.002  0.643-   9 2.46  21 2.51  11 2.70
  38  0.229  0.353  0.637-  13 2.50  10 2.61  29 2.72
  39  0.260  0.682  0.640-  30 2.63  14 2.64  13 2.66
  40  0.560  0.034  0.647-  34 2.58  15 2.62  12 2.68
  41  0.580  0.340  0.640-  32 2.68  16 2.69  15 2.72
  42  0.580  0.676  0.641-  14 2.51  19 2.59  33 2.67
  43  0.910  0.351  0.631-  35 2.58  10 2.58  16 2.59
  44  0.744  0.011  0.366-  26 2.54   5 2.63   8 2.74
  45  0.067  0.003  0.347-   8 2.53   1 2.68   2 2.78
  46  0.044  0.348  0.350-  22 2.50   6 2.55   7 2.76
  47  0.066  0.671  0.371-  17 2.52   7 2.54  23 2.61
  48  0.384  0.020  0.367-  24 2.51  18 2.72   2 2.82
  49  0.415  0.343  0.356-  25 2.52   3 2.58
  50  0.389  0.691  0.369-   4 2.57  28 2.74  17 2.76   2 2.84
  51  0.231  0.014  0.638-  31 2.59   9 2.60  12 2.82
  52  0.892  0.686  0.615-  19 2.61  20 2.66  11 2.70
  53  0.921  0.822  0.144-  36 2.46  23 2.62   8 2.68
  54  0.219  0.190  0.135-  18 2.60   1 2.63  22 2.80
  55  0.906  0.156  0.155-   1 2.54   6 2.59  26 2.65
  56  0.733  0.350  0.353-   6 2.51   3 2.62  27 2.81
  57  0.069  0.175  0.853-  29 2.51  35 2.61   9 2.78
  58  0.063  0.530  0.865-  30 2.56  10 2.64  20 2.74
  59  0.083  0.831  0.864-  30 2.57  31 2.62  11 2.65
  60  0.369  0.189  0.856-  29 2.58  12 2.62  32 2.82
  61  0.416  0.510  0.857-  13 2.46  32 2.64  33 2.74
  62  0.396  0.844  0.854-  14 2.67  31 2.70  34 2.70
  63  0.742  0.171  0.852-  15 2.48  35 2.61  21 2.66
  64  0.755  0.521  0.847-  20 2.50  33 2.61  16 2.64
  65  0.732  0.864  0.865-  19 2.61  34 2.65  21 2.67
  66  0.239  0.507  0.137-  17 2.52  25 2.58  22 2.72
  67  0.235  0.833  0.139-   2 2.56  28 2.57  23 2.66
  68  0.582  0.176  0.144-   3 2.47  26 2.72  24 2.73
  69  0.566  0.509  0.136-   4 2.58  25 2.63  27 2.78
  70  0.552  0.857  0.140-  28 2.58   5 2.61
  71  0.883  0.518  0.124-  27 2.53   7 2.70
  72  0.714  0.689  0.367-  36 2.53   5 2.58   4 2.67
 

IMPORTANT INFORMATION: All symmetrisations will be switched off!
NOSYMM: (Re-)initialisation of all symmetry stuff for point group C_1.


----------------------------------------------------------------------------------------

                                     Primitive cell                                     

  volume of cell :    1730.9305

  direct lattice vectors                    reciprocal lattice vectors
    12.459204286  0.000000504  0.000001532     0.080261947 -0.000000003 -0.000000013
     0.000000507 12.522814641  0.000005555    -0.000000003  0.079854252 -0.000000046
     0.000001756  0.000006334 11.093979632    -0.000000011 -0.000000040  0.090138979

  length of vectors
    12.459204286 12.522814641 11.093979632     0.080261947  0.079854252  0.090138979

  position of ions in fractional coordinates (direct lattice)
     0.070095124  0.041910202  0.109949719
     0.231031703  0.854790137  0.368444896
     0.574998682  0.212615726  0.362662837
     0.545568632  0.557711870  0.360083787
     0.597088473  0.859839726  0.369548312
     0.885750291  0.221196201  0.374727941
     0.919511369  0.529363900  0.363591787
     0.914077365  0.873180374  0.378231714
     0.065118987  0.137107057  0.606239966
     0.067001783  0.485604938  0.632489429
     0.053700717  0.829159876  0.626960998
     0.394314099  0.169343330  0.622380048
     0.366200070  0.497329993  0.642501587
     0.429403914  0.807485657  0.619287154
     0.717645283  0.170819554  0.630291003
     0.745802532  0.476655291  0.614727701
     0.223642450  0.545348811  0.359835262
     0.242012396  0.184359802  0.367497796
     0.731167776  0.817564785  0.635483485
     0.891590999  0.667261763  0.854062603
     0.884320625  0.012993560  0.864606822
     0.076692537  0.362338155  0.127897695
     0.080582496  0.686703077  0.137482461
     0.411584229  0.039469991  0.143407295
     0.400782690  0.377956910  0.132862678
     0.738684858  0.025396483  0.137953328
     0.741296755  0.374756483  0.101546889
     0.403119828  0.714423943  0.123643358
     0.208628327  0.317379685  0.878055566
     0.212274601  0.671229634  0.870004715
     0.229134885  0.980651038  0.868569758
     0.537513545  0.337794837  0.876002702
     0.588056342  0.644529572  0.879363185
     0.558321995  0.985421751  0.873158290
     0.904129745  0.303332987  0.857159704
     0.751045868  0.722501383  0.145726425
     0.925061873  0.001999749  0.643099463
     0.228700805  0.352544307  0.637229396
     0.259999015  0.681833173  0.639608754
     0.559756997  0.033795083  0.647099986
     0.580483601  0.339819837  0.639658516
     0.579782918  0.675774539  0.641218847
     0.910311507  0.350750694  0.631385261
     0.743501511  0.010563000  0.366414013
     0.066777214  0.003384595  0.347427520
     0.044433013  0.347941610  0.349563222
     0.065940155  0.670782031  0.371130043
     0.384421636  0.019857432  0.366726617
     0.414508596  0.343163289  0.355939695
     0.388841969  0.691371496  0.368838906
     0.230753175  0.014146415  0.638485855
     0.892307592  0.685892016  0.615346305
     0.920902938  0.822287770  0.143921232
     0.218711738  0.189515956  0.135024456
     0.905580135  0.155557998  0.154682886
     0.733448975  0.350448054  0.353496181
     0.069045178  0.174848719  0.853451000
     0.063221522  0.530262225  0.864665793
     0.082629899  0.830823237  0.863702253
     0.369127335  0.188720275  0.856057608
     0.415808693  0.509566935  0.856773745
     0.395801392  0.844073322  0.853504584
     0.741704763  0.171172716  0.852419667
     0.754609783  0.521133237  0.847354434
     0.731920459  0.863539213  0.865110773
     0.239491638  0.507000601  0.137196171
     0.235482435  0.833093495  0.139086730
     0.581902278  0.176008317  0.143590591
     0.566385165  0.508738324  0.135697879
     0.552052955  0.856968705  0.139640642
     0.882550885  0.518451966  0.124253788
     0.713971441  0.689356360  0.366987509

  ion indices of the primitive-cell ions
   primitive index   ion index
                 1           1
                 2           2
                 3           3
                 4           4
                 5           5
                 6           6
                 7           7
                 8           8
                 9           9
                10          10
                11          11
                12          12
                13          13
                14          14
                15          15
                16          16
                17          17
                18          18
                19          19
                20          20
                21          21
                22          22
                23          23
                24          24
                25          25
                26          26
                27          27
                28          28
                29          29
                30          30
                31          31
                32          32
                33          33
                34          34
                35          35
                36          36
                37          37
                38          38
                39          39
                40          40
                41          41
                42          42
                43          43
                44          44
                45          45
                46          46
                47          47
                48          48
                49          49
                50          50
                51          51
                52          52
                53          53
                54          54
                55          55
                56          56
                57          57
                58          58
                59          59
                60          60
                61          61
                62          62
                63          63
                64          64
                65          65
                66          66
                67          67
                68          68
                69          69
                70          70
                71          71
                72          72

----------------------------------------------------------------------------------------

 
 
 KPOINTS: KPOINTS created by Atomic Simulation Env

Automatic generation of k-mesh.
 Grid dimensions read from file:
 generate k-points for:    2    2    2

 Generating k-lattice:

  Cartesian coordinates                     Fractional coordinates (reciprocal lattice)
     0.040130974 -0.000000002 -0.000000006     0.500000000 -0.000000000  0.000000000
    -0.000000002  0.039927126 -0.000000023    -0.000000000  0.500000000  0.000000000
    -0.000000006 -0.000000020  0.045069490    -0.000000000  0.000000000  0.500000000

  Length of vectors
     0.040130974  0.039927126  0.045069490

  Shift w.r.t. Gamma in fractional coordinates (k-lattice)
     0.000000000  0.000000000  0.000000000

 
 Subroutine IBZKPT returns following result:
 ===========================================
 
 Found      8 irreducible k-points:
 
 Following reciprocal coordinates:
            Coordinates               Weight
  0.000000  0.000000  0.000000      1.000000
  0.500000  0.000000  0.000000      1.000000
  0.000000  0.500000  0.000000      1.000000
  0.500000  0.500000  0.000000      1.000000
  0.000000  0.000000  0.500000      1.000000
  0.500000  0.000000  0.500000      1.000000
  0.000000  0.500000  0.500000      1.000000
  0.500000  0.500000  0.500000      1.000000
 
 Following cartesian coordinates:
            Coordinates               Weight
  0.000000  0.000000  0.000000      1.000000
  0.040131 -0.000000 -0.000000      1.000000
 -0.000000  0.039927 -0.000000      1.000000
  0.040131  0.039927 -0.000000      1.000000
 -0.000000 -0.000000  0.045069      1.000000
  0.040131 -0.000000  0.045069      1.000000
 -0.000000  0.039927  0.045069      1.000000
  0.040131  0.039927  0.045069      1.000000
 
 -----------------------------------------------------------------------------
|                                                                             |
|           W    W    AA    RRRRR   N    N  II  N    N   GGGG   !!!           |
|           W    W   A  A   R    R  NN   N  II  NN   N  G    G  !!!           |
|           W    W  A    A  R    R  N N  N  II  N N  N  G       !!!           |
|           W WW W  AAAAAA  RRRRR   N  N N  II  N  N N  G  GGG   !            |
|           WW  WW  A    A  R   R   N   NN  II  N   NN  G    G                |
|           W    W  A    A  R    R  N    N  II  N    N   GGGG   !!!           |
|                                                                             |
|     The number of bands has been changed from the values supplied in        |
|     the INCAR file. This is a result of running the parallel version.       |
|     The orbitals not found in the WAVECAR file will be initialized with     |
|     random numbers, which is usually adequate. For correlated               |
|     calculations, however, you should redo the groundstate calculation.     |
|     I found NBANDS = 220. Now, NBANDS = 224.                                |
|                                                                             |
 -----------------------------------------------------------------------------



--------------------------------------------------------------------------------------------------------




 Dimension of arrays:
   k-points           NKPTS =      8   k-points in BZ     NKDIM =      8   number of bands    NBANDS=    224
   number of dos      NEDOS =    301   number of ions     NIONS =     72
   non local maximal  LDIM  =      5   non local SUM 2l+1 LMDIM =     13
   total plane-waves  NPLWV = 774144
   max r-space proj   IRMAX =      1   max aug-charges    IRDMAX=  24504
   dimension x,y,z NGX =    96 NGY =   96 NGZ =   84
   dimension x,y,z NGXF=   192 NGYF=  192 NGZF=  168
   support grid    NGXF=   192 NGYF=  192 NGZF=  168
   ions per type =              36  36
   NGX,Y,Z   is equivalent  to a cutoff of  12.81, 12.74, 12.59 a.u.
   NGXF,Y,Z  is equivalent  to a cutoff of  25.62, 25.49, 25.18 a.u.

 SYSTEM =  01_AOPT                                 
 POSCAR =  Ge Se                                   

 Startparameter for this run:
   NWRITE =      2    write-flag & timer
   PREC   = accura    normal or accurate (medium, high low for compatibility)
   ISTART =      0    job   : 0-new  1-cont  2-samecut
   ICHARG =      2    charge: 1-file 2-atom 10-const
   ISPIN  =      2    spin polarized calculation?
   LNONCOLLINEAR =      F non collinear calculations
   LSORBIT =      F    spin-orbit coupling
   INIWAV =      1    electr: 0-lowe 1-rand  2-diag
   LASPH  =      T    aspherical Exc in radial PAW
 Electronic Relaxation 1
   ENCUT  =  520.0 eV  38.22 Ry    6.18 a.u.  23.17 23.28 20.63*2*pi/ulx,y,z
   ENINI  =  520.0     initial cutoff
   ENAUG  =  446.8 eV  augmentation charge cutoff
   NELM   =    100;   NELMIN=  5; NELMDL=  0     # of ELM steps 
   EDIFF  = 0.1E-05   stopping-criterion for ELM
   LREAL  =      F    real-space projection
   NLSPLINE    = F    spline interpolate recip. space projectors
   LCOMPAT=      F    compatible to vasp.4.4
   GGA_COMPAT  = T    GGA compatible to vasp.4.4-vasp.4.6
   LMAXPAW     = -100 max onsite density
   LMAXMIX     =    2 max onsite mixed and CHGCAR
   VOSKOWN=      0    Vosko Wilk Nusair interpolation
   ROPT   =    0.00000   0.00000
 Ionic relaxation
   EDIFFG = 0.1E-04   stopping-criterion for IOM
   NSW    =      0    number of steps for IOM
   NBLOCK =      1;   KBLOCK =      1    inner block; outer block 
   IBRION =     -1    ionic relax: 0-MD 1-quasi-New 2-CG
   NFREE  =      0    steps in history (QN), initial steepest desc. (CG)
   ISIF   =      2    stress and relaxation
   IWAVPR =     10    prediction:  0-non 1-charg 2-wave 3-comb
   ISYM   =     -1    0-nonsym 1-usesym 2-fastsym
   LCORR  =      T    Harris-Foulkes like correction to forces

   POTIM  = 0.5000    time-step for ionic-motion
   TEIN   =    0.0    initial temperature
   TEBEG  =    0.0;   TEEND  =   0.0 temperature during run
   SMASS  =  -3.00    Nose mass-parameter (am)
   estimated Nose-frequenzy (Omega)   =  0.10E-29 period in steps = 0.13E+47 mass=  -0.355E-26a.u.
   SCALEE = 1.0000    scale energy and forces
   NPACO  =    256;   APACO  = 10.0  distance and # of slots for P.C.
   PSTRESS=    0.0 pullay stress

  Mass of Ions in am
   POMASS =  72.61 78.96
  Ionic Valenz
   ZVAL   =   4.00  6.00
  Atomic Wigner-Seitz radii
   RWIGS  =  -1.00 -1.00
  virtual crystal weights 
   VCA    =   1.00  1.00
   NELECT =     360.0000    total number of electrons
   NUPDOWN=      -1.0000    fix difference up-down

 DOS related values:
   EMIN   =  10.00;   EMAX   =-10.00  energy-range for DOS
   EFERMI =   0.00;   METHOD = LEGACY      
   ISMEAR =     0;   SIGMA  =   0.05  broadening in eV -4-tet -1-fermi 0-gaus

 Electronic relaxation 2 (details)
   IALGO  =     38    algorithm
   LDIAG  =      T    sub-space diagonalisation (order eigenvalues)
   LSUBROT=      F    optimize rotation matrix (better conditioning)
   TURBO    =      0    0=normal 1=particle mesh
   IRESTART =      0    0=no restart 2=restart with 2 vectors
   NREBOOT  =      0    no. of reboots
   NMIN     =      0    reboot dimension
   EREF     =   0.00    reference energy to select bands
   IMIX   =      4    mixing-type and parameters
     AMIX     =   0.40;   BMIX     =  1.00
     AMIX_MAG =   1.60;   BMIX_MAG =  1.00
     AMIN     =   0.10
     WC   =   100.;   INIMIX=   1;  MIXPRE=   1;  MAXMIX= -45

 Intra band minimization:
   WEIMIN = 0.0000     energy-eigenvalue tresh-hold
   EBREAK =  0.11E-08  absolut break condition
   DEPER  =   0.30     relativ break condition  

   TIME   =   0.40     timestep for ELM

  volume/ion in A,a.u.               =      24.04       162.23
  Fermi-wavevector in a.u.,A,eV,Ry     =   0.969949  1.832939 12.800389  0.940802
  Thomas-Fermi vector in A             =   2.100044
 
 Write flags
   LWAVE        =      F    write WAVECAR
   LDOWNSAMPLE  =      F    k-point downsampling of WAVECAR
   LCHARG       =      F    write CHGCAR
   LVTOT        =      F    write LOCPOT, total local potential
   LVHAR        =      F    write LOCPOT, Hartree potential only
   LELF         =      F    write electronic localiz. function (ELF)
   LORBIT       =     11    0 simple, 1 ext, 2 COOP (PROOUT), +10 PAW based schemes


 Dipole corrections
   LMONO  =      F    monopole corrections only (constant potential shift)
   LDIPOL =      F    correct potential (dipole corrections)
   IDIPOL =      0    1-x, 2-y, 3-z, 4-all directions 
   EPSILON=  1.0000000 bulk dielectric constant

 Exchange correlation treatment:
   GGA     =    PE    GGA type
   LEXCH   =     8    internal setting for exchange type
   LIBXC   =     F    Libxc                    
   VOSKOWN =     0    Vosko Wilk Nusair interpolation
   LHFCALC =     F    Hartree Fock is set to
   LHFONE  =     F    Hartree Fock one center treatment
   AEXX    =    0.0000 exact exchange contribution

 Linear response parameters
   LEPSILON=     F    determine dielectric tensor
   LRPA    =     F    only Hartree local field effects (RPA)
   LNABLA  =     F    use nabla operator in PAW spheres
   LVEL    =     F    velocity operator in full k-point grid
   CSHIFT  =0.1000    complex shift for real part using Kramers Kronig
   OMEGAMAX=  -1.0    maximum frequency
   DEG_THRESHOLD= 0.2000000E-02 threshold for treating states as degnerate
   RTIME   =   -0.100 relaxation time in fs
  (WPLASMAI=    0.000 imaginary part of plasma frequency in eV, 0.658/RTIME)
   DFIELD  = 0.0000000 0.0000000 0.0000000 field for delta impulse in time
 
  Optional k-point grid parameters
   LKPOINTS_OPT  =     F    use optional k-point grid
   KPOINTS_OPT_MODE=     1    mode for optional k-point grid
 
 Orbital magnetization related:
   ORBITALMAG=     F  switch on orbital magnetization
   LCHIMAG   =     F  perturbation theory with respect to B field
   DQ        =  0.001000  dq finite difference perturbation B field
   LLRAUG    =     F  two centre corrections for induced B field
   LBONE     =     F  B-component reconstruction in AE one-centre
   LVGVCALC  =     T  calculate vGv susceptibility
   LVGVAPPL  =     F  apply vGv susceptibility instead of pGv for G=0

 Random number generation:
   RANDOM_GENERATOR = DEFAULT
   PCG_SEED         = not used


--------------------------------------------------------------------------------------------------------


 Static calculation
 charge density and potential will be updated during run
 spin polarized calculation
 Variant of blocked Davidson
 Davidson routine will perform the subspace rotation
 perform sub-space diagonalisation
    after iterative eigenvector-optimisation
 modified Broyden-mixing scheme, WC =      100.0
 initial mixing is a Kerker type mixing with AMIX =  0.4000 and BMIX =      1.0000
 Hartree-type preconditioning will be used
 using additional bands            44
 reciprocal scheme for non local part
 use partial core corrections
 calculate Harris-corrections to forces 
   (improved forces if not selfconsistent)
 use gradient corrections 
 use of overlap-Matrix (Vanderbilt PP)
 Gauss-broadening in eV      SIGMA  =   0.05


--------------------------------------------------------------------------------------------------------


  energy-cutoff  :      520.00
  volume of cell :     1730.93
      direct lattice vectors                 reciprocal lattice vectors
    12.459204286  0.000000504  0.000001532     0.080261947 -0.000000003 -0.000000013
     0.000000507 12.522814641  0.000005555    -0.000000003  0.079854252 -0.000000046
     0.000001756  0.000006334 11.093979632    -0.000000011 -0.000000040  0.090138979

  length of vectors
    12.459204286 12.522814641 11.093979632     0.080261947  0.079854252  0.090138979


 
 k-points in units of 2pi/SCALE and weight: KPOINTS created by Atomic Simulation Env
   0.00000000  0.00000000  0.00000000       0.125
   0.04013097 -0.00000000 -0.00000001       0.125
  -0.00000000  0.03992713 -0.00000002       0.125
   0.04013097  0.03992712 -0.00000003       0.125
  -0.00000001 -0.00000002  0.04506949       0.125
   0.04013097 -0.00000002  0.04506948       0.125
  -0.00000001  0.03992711  0.04506947       0.125
   0.04013097  0.03992710  0.04506946       0.125
 
 k-points in reciprocal lattice and weights: KPOINTS created by Atomic Simulation Env
   0.00000000  0.00000000  0.00000000       0.125
   0.50000000  0.00000000  0.00000000       0.125
   0.00000000  0.50000000  0.00000000       0.125
   0.50000000  0.50000000  0.00000000       0.125
   0.00000000  0.00000000  0.50000000       0.125
   0.50000000  0.00000000  0.50000000       0.125
   0.00000000  0.50000000  0.50000000       0.125
   0.50000000  0.50000000  0.50000000       0.125
 
 position of ions in fractional coordinates (direct lattice) 
   0.07009512  0.04191020  0.10994972
   0.23103170  0.85479014  0.36844490
   0.57499868  0.21261573  0.36266284
   0.54556863  0.55771187  0.36008379
   0.59708847  0.85983973  0.36954831
   0.88575029  0.22119620  0.37472794
   0.91951137  0.52936390  0.36359179
   0.91407737  0.87318037  0.37823171
   0.06511899  0.13710706  0.60623997
   0.06700178  0.48560494  0.63248943
   0.05370072  0.82915988  0.62696100
   0.39431410  0.16934333  0.62238005
   0.36620007  0.49732999  0.64250159
   0.42940391  0.80748566  0.61928715
   0.71764528  0.17081955  0.63029100
   0.74580253  0.47665529  0.61472770
   0.22364245  0.54534881  0.35983526
   0.24201240  0.18435980  0.36749780
   0.73116778  0.81756479  0.63548348
   0.89159100  0.66726176  0.85406260
   0.88432062  0.01299356  0.86460682
   0.07669254  0.36233815  0.12789769
   0.08058250  0.68670308  0.13748246
   0.41158423  0.03946999  0.14340729
   0.40078269  0.37795691  0.13286268
   0.73868486  0.02539648  0.13795333
   0.74129675  0.37475648  0.10154689
   0.40311983  0.71442394  0.12364336
   0.20862833  0.31737968  0.87805557
   0.21227460  0.67122963  0.87000471
   0.22913488  0.98065104  0.86856976
   0.53751355  0.33779484  0.87600270
   0.58805634  0.64452957  0.87936318
   0.55832199  0.98542175  0.87315829
   0.90412975  0.30333299  0.85715970
   0.75104587  0.72250138  0.14572642
   0.92506187  0.00199975  0.64309946
   0.22870080  0.35254431  0.63722940
   0.25999902  0.68183317  0.63960875
   0.55975700  0.03379508  0.64709999
   0.58048360  0.33981984  0.63965852
   0.57978292  0.67577454  0.64121885
   0.91031151  0.35075069  0.63138526
   0.74350151  0.01056300  0.36641401
   0.06677721  0.00338460  0.34742752
   0.04443301  0.34794161  0.34956322
   0.06594015  0.67078203  0.37113004
   0.38442164  0.01985743  0.36672662
   0.41450860  0.34316329  0.35593969
   0.38884197  0.69137150  0.36883891
   0.23075318  0.01414642  0.63848586
   0.89230759  0.68589202  0.61534631
   0.92090294  0.82228777  0.14392123
   0.21871174  0.18951596  0.13502446
   0.90558013  0.15555800  0.15468289
   0.73344898  0.35044805  0.35349618
   0.06904518  0.17484872  0.85345100
   0.06322152  0.53026222  0.86466579
   0.08262990  0.83082324  0.86370225
   0.36912733  0.18872028  0.85605761
   0.41580869  0.50956693  0.85677375
   0.39580139  0.84407332  0.85350458
   0.74170476  0.17117272  0.85241967
   0.75460978  0.52113324  0.84735443
   0.73192046  0.86353921  0.86511077
   0.23949164  0.50700060  0.13719617
   0.23548244  0.83309349  0.13908673
   0.58190228  0.17600832  0.14359059
   0.56638516  0.50873832  0.13569788
   0.55205296  0.85696871  0.13964064
   0.88255088  0.51845197  0.12425379
   0.71397144  0.68935636  0.36698751
 
 position of ions in cartesian coordinates  (Angst):
   0.87332969  0.52483442  1.21978029
   2.87847226 10.70438089  4.08752528
   7.16402679  2.66254991  4.02337619
   6.79735196  6.98412493  3.99476613
   7.43924834 10.76761615  4.09976713
  11.03574459  2.77000184  4.15722673
  11.45638090  6.62912876  4.03368423
  11.38867773 10.93467883  4.19610119
   0.81133189  1.71697013  6.72561470
   0.83479026  6.08114467  7.01682765
   0.66906972 10.38341943  6.95549723
   4.91284110  2.12065927  6.90467312
   4.56256287  6.22797558  7.12790284
   5.35003258 10.11199735  6.87036421
   8.94129038  2.13914597  6.99243760
   9.29210742  5.96907013  6.81978038
   2.78640788  6.82930447  3.99200844
   3.01528262  2.30870607  4.07701446
   9.10977022 10.23821666  7.05004650
  11.10851623  8.35600123  9.47495819
  11.01793284  0.16272186  9.59193190
   0.95552840  4.53749440  1.41889655
   1.00399437  8.59945625  1.52523156
   5.12801226  0.49427649  1.59095846
   4.99343384  4.73308537  1.47397856
   9.20342581  0.31803669  1.53045268
   9.23596807  4.69300699  1.12656234
   5.02255287  8.94659960  1.37170148
   2.59934465  3.97449263  9.74113265
   2.64477449  8.40568991  9.65181864
   2.85484036 12.28051679  9.63590100
   6.69699278  4.23014795  9.71835883
   7.32671597  8.07133023  9.75564174
   6.95624982 12.34025974  9.68680662
  11.26473886  3.79858865  9.50931537
   9.35743452  9.04775220  1.61669115
  11.52553599  0.02504702  7.13453377
   2.84943135  4.41485116  7.06941225
   3.23938231  8.53847463  7.09581068
   6.97412793  0.42321394  7.17891511
   7.23236506  4.25550517  7.09636133
   7.22363528  8.46260364  7.11367347
  11.34175832  4.39239038  7.00457857
   9.26343787  0.13228119  4.06499080
   0.83199156  0.04238690  3.85435396
   0.55360078  4.35721053  3.87804927
   0.82156285  8.40008142  4.11731296
   4.78958835  0.24867346  4.06845832
   5.16444808  4.29737272  3.94879027
   4.84466253  8.65791962  4.09189574
   2.87500208  0.17715710  7.08334951
  11.11744400  8.58930293  6.82664456
  11.47371850 10.29735870  1.59666519
   2.72497456  2.37327415  1.49795995
  11.28280824  1.94802542  1.71605104
   9.13819142  4.38859864  3.92168250
   0.86024956  2.18960354  9.46816909
   0.78769165  6.64038106  9.59258774
   1.02950473 10.40425090  9.58189994
   4.59903447  2.36331463  9.49708728
   5.18064722  6.38121791  9.50503395
   4.93137232 10.57017936  9.46876777
   9.24105275  2.14356997  9.45672852
   9.40183920  6.52606068  9.40053688
   9.11914847 10.81394735  9.59752721
   2.98387574  6.34907554  1.52205471
   2.93392443 10.43267642  1.54303034
   7.25003970  2.20412073  1.59299296
   7.05670897  6.37083688  1.50543320
   6.87814123 10.73166141  1.54917605
  10.99588225  6.49247910  1.37847323
   8.89551703  8.63268460  4.07135687
 


--------------------------------------------------------------------------------------------------------


 k-point   1 :   0.0000 0.0000 0.0000  plane waves:   46557
 k-point   2 :   0.5000 0.0000 0.0000  plane waves:   46654
 k-point   3 :   0.0000 0.5000 0.0000  plane waves:   46634
 k-point   4 :   0.5000 0.5000 0.0000  plane waves:   46632
 k-point   5 :   0.0000 0.0000 0.5000  plane waves:   46682
 k-point   6 :   0.5000 0.0000 0.5000  plane waves:   46592
 k-point   7 :   0.0000 0.5000 0.5000  plane waves:   46632
 k-point   8 :   0.5000 0.5000 0.5000  plane waves:   46576

 maximum and minimum number of plane-waves per node :      5876     5780

 maximum number of plane-waves:     46682
 maximum index in each direction: 
   IXMAX=   23   IYMAX=   23   IZMAX=   20
   IXMIN=  -23   IYMIN=  -23   IZMIN=  -21


 parallel 3D FFT for wavefunctions:
    minimum data exchange during FFTs selected (reduces bandwidth)
 parallel 3D FFT for charge:
    minimum data exchange during FFTs selected (reduces bandwidth)


 total amount of memory used by VASP MPI-rank0   111004. kBytes
=======================================================================

   base      :      30000. kBytes
   nonl-proj :      16422. kBytes
   fftplans  :       6180. kBytes
   grid      :      15593. kBytes
   one-center:        146. kBytes
   wavefun   :      42663. kBytes
 
     INWAV:  cpu time      0.0000: real time      0.0001
 Broyden mixing: mesh for mixing (old mesh)
   NGX = 47   NGY = 47   NGZ = 41
  (NGX  =192   NGY  =192   NGZ  =168)
  gives a total of  90569 points

 initial charge density was supplied:
 charge density of overlapping atoms calculated
 number of electron     360.0000000 magnetization      72.0000000
 keeping initial charge density in first step


--------------------------------------------------------------------------------------------------------


 Maximum index for augmentation-charges           867 (set IRDMAX)


--------------------------------------------------------------------------------------------------------


 First call to EWALD:  gamma=   0.148
 Maximum number of real-space cells 3x 3x 3
 Maximum number of reciprocal cells 3x 3x 3

    FEWALD:  cpu time      0.0022: real time      0.0022


--------------------------------------- Ionic step        1  -------------------------------------------




--------------------------------------- Iteration      1(   1)  ---------------------------------------


    POTLOK:  cpu time      0.1372: real time      0.1381
    SETDIJ:  cpu time      0.5928: real time      0.5949
     EDDAV:  cpu time      8.5644: real time      8.6205
       DOS:  cpu time      0.0016: real time      0.0016
    --------------------------------------------
      LOOP:  cpu time      9.2961: real time      9.3550

 eigenvalue-minimisations  :  7168
 total energy-change (2. order) : 0.1818175E+04  (-0.1414938E+05)
 number of electron     360.0000000 magnetization      72.0000000
 augmentation part      360.0000000 magnetization      72.0000000

 Free energy of the ion-electron system (eV)
  ---------------------------------------------------
  alpha Z        PSCENC =       792.92617669
  Ewald energy   TEWEN  =    -12834.26279729
  -Hartree energ DENC   =     -1122.12954692
  -exchange      EXHF   =         0.00000000
  -V(xc)+E(xc)   XCENC  =      -294.16233054
  PAW double counting   =     10738.42099860    -9719.93139476
  entropy T*S    EENTRO =        -0.02735030
  eigenvalues    EBANDS =      1220.88934753
  atomic energy  EATOM  =     13036.45147835
  Solvation  Ediel_sol  =         0.00000000
  ---------------------------------------------------
  free energy    TOTEN  =      1818.17458137 eV

  energy without entropy =     1818.20193167  energy(sigma->0) =     1818.18825652


--------------------------------------------------------------------------------------------------------




--------------------------------------- Iteration      1(   2)  ---------------------------------------


     EDDAV:  cpu time      9.6770: real time      9.7348
       DOS:  cpu time      0.0014: real time      0.0014
    --------------------------------------------
      LOOP:  cpu time      9.6785: real time      9.7362

 eigenvalue-minimisations  :  8496
 total energy-change (2. order) :-0.1881628E+04  (-0.1806271E+04)
 number of electron     360.0000000 magnetization      72.0000000
 augmentation part      360.0000000 magnetization      72.0000000

 Free energy of the ion-electron system (eV)
  ---------------------------------------------------
  alpha Z        PSCENC =       792.92617669
  Ewald energy   TEWEN  =    -12834.26279729
  -Hartree energ DENC   =     -1122.12954692
  -exchange      EXHF   =         0.00000000
  -V(xc)+E(xc)   XCENC  =      -294.16233054
  PAW double counting   =     10738.42099860    -9719.93139476
  entropy T*S    EENTRO =        -0.01642432
  eigenvalues    EBANDS =      -660.74955172
  atomic energy  EATOM  =     13036.45147835
  Solvation  Ediel_sol  =         0.00000000
  ---------------------------------------------------
  free energy    TOTEN  =       -63.45339191 eV

  energy without entropy =      -63.43696759  energy(sigma->0) =      -63.44517975


--------------------------------------------------------------------------------------------------------




--------------------------------------- Iteration      1(   3)  ---------------------------------------


     EDDAV:  cpu time      9.7976: real time      9.8541
       DOS:  cpu time      0.0012: real time      0.0012
    --------------------------------------------
      LOOP:  cpu time      9.7988: real time      9.8553

 eigenvalue-minimisations  :  8616
 total energy-change (2. order) :-0.2182227E+03  (-0.2123458E+03)
 number of electron     360.0000000 magnetization      72.0000000
 augmentation part      360.0000000 magnetization      72.0000000

 Free energy of the ion-electron system (eV)
  ---------------------------------------------------
  alpha Z        PSCENC =       792.92617669
  Ewald energy   TEWEN  =    -12834.26279729
  -Hartree energ DENC   =     -1122.12954692
  -exchange      EXHF   =         0.00000000
  -V(xc)+E(xc)   XCENC  =      -294.16233054
  PAW double counting   =     10738.42099860    -9719.93139476
  entropy T*S    EENTRO =        -0.00013241
  eigenvalues    EBANDS =      -878.98855863
  atomic energy  EATOM  =     13036.45147835
  Solvation  Ediel_sol  =         0.00000000
  ---------------------------------------------------
  free energy    TOTEN  =      -281.67610691 eV

  energy without entropy =     -281.67597450  energy(sigma->0) =     -281.67604071


--------------------------------------------------------------------------------------------------------




--------------------------------------- Iteration      1(   4)  ---------------------------------------


     EDDAV:  cpu time      9.8062: real time      9.8606
       DOS:  cpu time      0.0012: real time      0.0012
    --------------------------------------------
      LOOP:  cpu time      9.8075: real time      9.8618

 eigenvalue-minimisations  :  8632
 total energy-change (2. order) :-0.7776443E+01  (-0.7682489E+01)
 number of electron     360.0000000 magnetization      72.0000000
 augmentation part      360.0000000 magnetization      72.0000000

 Free energy of the ion-electron system (eV)
  ---------------------------------------------------
  alpha Z        PSCENC =       792.92617669
  Ewald energy   TEWEN  =    -12834.26279729
  -Hartree energ DENC   =     -1122.12954692
  -exchange      EXHF   =         0.00000000
  -V(xc)+E(xc)   XCENC  =      -294.16233054
  PAW double counting   =     10738.42099860    -9719.93139476
  entropy T*S    EENTRO =        -0.00003285
  eigenvalues    EBANDS =      -886.76510079
  atomic energy  EATOM  =     13036.45147835
  Solvation  Ediel_sol  =         0.00000000
  ---------------------------------------------------
  free energy    TOTEN  =      -289.45254952 eV

  energy without entropy =     -289.45251666  energy(sigma->0) =     -289.45253309


--------------------------------------------------------------------------------------------------------




--------------------------------------- Iteration      1(   5)  ---------------------------------------


     EDDAV:  cpu time     10.1973: real time     10.2559
       DOS:  cpu time      0.0011: real time      0.0011
    CHARGE:  cpu time      0.4171: real time      0.4193
    MIXING:  cpu time      0.0071: real time      0.0072
    --------------------------------------------
      LOOP:  cpu time     10.6226: real time     10.6834

 eigenvalue-minimisations  :  9168
 total energy-change (2. order) :-0.3186536E+00  (-0.3177741E+00)
 number of electron     360.0000001 magnetization      48.8318730
 augmentation part      -66.8434500 magnetization      49.0414715

 Broyden mixing:
  rms(total) = 0.29203E+01    rms(broyden)= 0.29203E+01
  rms(prec ) = 0.30758E+01
  weight for this iteration     100.00

 Free energy of the ion-electron system (eV)
  ---------------------------------------------------
  alpha Z        PSCENC =       792.92617669
  Ewald energy   TEWEN  =    -12834.26279729
  -Hartree energ DENC   =     -1122.12954692
  -exchange      EXHF   =         0.00000000
  -V(xc)+E(xc)   XCENC  =      -294.16233054
  PAW double counting   =     10738.42099860    -9719.93139476
  entropy T*S    EENTRO =        -0.00004794
  eigenvalues    EBANDS =      -887.08373930
  atomic energy  EATOM  =     13036.45147835
  Solvation  Ediel_sol  =         0.00000000
  ---------------------------------------------------
  free energy    TOTEN  =      -289.77120311 eV

  energy without entropy =     -289.77115517  energy(sigma->0) =     -289.77117914


--------------------------------------------------------------------------------------------------------




--------------------------------------- Iteration      1(   6)  ---------------------------------------


    POTLOK:  cpu time      0.1348: real time      0.1363
    SETDIJ:  cpu time      0.5954: real time      0.5977
     EDDAV:  cpu time      9.2126: real time      9.2650
       DOS:  cpu time      0.0017: real time      0.0017
    CHARGE:  cpu time      0.4168: real time      0.4194
    MIXING:  cpu time      0.0074: real time      0.0074
    --------------------------------------------
      LOOP:  cpu time     10.3686: real time     10.4274

 eigenvalue-minimisations  :  7936
 total energy-change (2. order) : 0.4203045E+00  (-0.2664869E+01)
 number of electron     360.0000001 magnetization      27.9587316
 augmentation part      -66.2328192 magnetization      29.1419640

 Broyden mixing:
  rms(total) = 0.17314E+01    rms(broyden)= 0.17314E+01
  rms(prec ) = 0.17681E+01
  weight for this iteration     100.00

 eigenvalues of (default mixing * dielectric matrix)
  average eigenvalue GAMMA=   1.0092
  1.0092

 Free energy of the ion-electron system (eV)
  ---------------------------------------------------
  alpha Z        PSCENC =       792.92617669
  Ewald energy   TEWEN  =    -12834.26279729
  -Hartree energ DENC   =     -1175.19354304
  -exchange      EXHF   =         0.00000000
  -V(xc)+E(xc)   XCENC  =      -287.56295599
  PAW double counting   =     13025.73494368   -12010.74438121
  entropy T*S    EENTRO =        -0.00004651
  eigenvalues    EBANDS =      -836.69977327
  atomic energy  EATOM  =     13036.45147835
  Solvation  Ediel_sol  =         0.00000000
  ---------------------------------------------------
  free energy    TOTEN  =      -289.35089860 eV

  energy without entropy =     -289.35085208  energy(sigma->0) =     -289.35087534


--------------------------------------------------------------------------------------------------------




--------------------------------------- Iteration      1(   7)  ---------------------------------------


    POTLOK:  cpu time      0.1292: real time      0.1299
    SETDIJ:  cpu time      0.5954: real time      0.5978
     EDDAV:  cpu time      9.3258: real time      9.3814
       DOS:  cpu time      0.0008: real time      0.0008
    CHARGE:  cpu time      0.4175: real time      0.4194
    MIXING:  cpu time      0.0073: real time      0.0073
    --------------------------------------------
      LOOP:  cpu time     10.4760: real time     10.5365

 eigenvalue-minimisations  :  8040
 total energy-change (2. order) :-0.7352756E+01  (-0.8590180E+00)
 number of electron     360.0000001 magnetization       9.2221057
 augmentation part      -66.2181408 magnetization       9.9017353

 Broyden mixing:
  rms(total) = 0.91034E+00    rms(broyden)= 0.91034E+00
  rms(prec ) = 0.92652E+00
  weight for this iteration     100.00

 eigenvalues of (default mixing * dielectric matrix)
  average eigenvalue GAMMA=   1.4554
  0.8632  2.0475

 Free energy of the ion-electron system (eV)
  ---------------------------------------------------
  alpha Z        PSCENC =       792.92617669
  Ewald energy   TEWEN  =    -12834.26279729
  -Hartree energ DENC   =     -1192.07370058
  -exchange      EXHF   =         0.00000000
  -V(xc)+E(xc)   XCENC  =      -290.53456706
  PAW double counting   =     15122.85996066   -14109.48200099
  entropy T*S    EENTRO =        -0.00000002
  eigenvalues    EBANDS =      -822.58820451
  atomic energy  EATOM  =     13036.45147835
  Solvation  Ediel_sol  =         0.00000000
  ---------------------------------------------------
  free energy    TOTEN  =      -296.70365476 eV

  energy without entropy =     -296.70365474  energy(sigma->0) =     -296.70365475


--------------------------------------------------------------------------------------------------------




--------------------------------------- Iteration      1(   8)  ---------------------------------------


    POTLOK:  cpu time      0.1295: real time      0.1305
    SETDIJ:  cpu time      0.5941: real time      0.5962
     EDDAV:  cpu time      9.3398: real time      9.3928
       DOS:  cpu time      0.0009: real time      0.0009
    CHARGE:  cpu time      0.4130: real time      0.4147
    MIXING:  cpu time      0.0074: real time      0.0074
    --------------------------------------------
      LOOP:  cpu time     10.4847: real time     10.5426

 eigenvalue-minimisations  :  8088
 total energy-change (2. order) :-0.3239010E+01  (-0.1747317E+00)
 number of electron     360.0000001 magnetization       4.4362952
 augmentation part      -66.2257799 magnetization       4.7461658

 Broyden mixing:
  rms(total) = 0.33244E+00    rms(broyden)= 0.33244E+00
  rms(prec ) = 0.33755E+00
  weight for this iteration     100.00

 eigenvalues of (default mixing * dielectric matrix)
  average eigenvalue GAMMA=   1.3569
  2.4965  0.9247  0.6494

 Free energy of the ion-electron system (eV)
  ---------------------------------------------------
  alpha Z        PSCENC =       792.92617669
  Ewald energy   TEWEN  =    -12834.26279729
  -Hartree energ DENC   =     -1196.78683383
  -exchange      EXHF   =         0.00000000
  -V(xc)+E(xc)   XCENC  =      -290.24789892
  PAW double counting   =     16903.25678762   -15890.80628648
  entropy T*S    EENTRO =        -0.00000000
  eigenvalues    EBANDS =      -820.47329073
  atomic energy  EATOM  =     13036.45147835
  Solvation  Ediel_sol  =         0.00000000
  ---------------------------------------------------
  free energy    TOTEN  =      -299.94266458 eV

  energy without entropy =     -299.94266458  energy(sigma->0) =     -299.94266458


--------------------------------------------------------------------------------------------------------




--------------------------------------- Iteration      1(   9)  ---------------------------------------


    POTLOK:  cpu time      0.1287: real time      0.1294
    SETDIJ:  cpu time      0.5966: real time      0.5991
     EDDAV:  cpu time     10.2612: real time     10.3185
       DOS:  cpu time      0.0009: real time      0.0009
    CHARGE:  cpu time      0.4129: real time      0.4151
    MIXING:  cpu time      0.0076: real time      0.0076
    --------------------------------------------
      LOOP:  cpu time     11.4078: real time     11.4706

 eigenvalue-minimisations  :  9112
 total energy-change (2. order) :-0.3762982E+00  (-0.4214148E-01)
 number of electron     360.0000001 magnetization       2.3272580
 augmentation part      -66.2620973 magnetization       2.4821342

 Broyden mixing:
  rms(total) = 0.14878E+00    rms(broyden)= 0.14878E+00
  rms(prec ) = 0.15045E+00
  weight for this iteration     100.00

 eigenvalues of (default mixing * dielectric matrix)
  average eigenvalue GAMMA=   1.3272
  2.6309  1.2293  0.8309  0.6176

 Free energy of the ion-electron system (eV)
  ---------------------------------------------------
  alpha Z        PSCENC =       792.92617669
  Ewald energy   TEWEN  =    -12834.26279729
  -Hartree energ DENC   =     -1195.87077692
  -exchange      EXHF   =         0.00000000
  -V(xc)+E(xc)   XCENC  =      -290.28659085
  PAW double counting   =     17187.23450446   -16175.12583989
  entropy T*S    EENTRO =        -0.00000000
  eigenvalues    EBANDS =      -821.38511734
  atomic energy  EATOM  =     13036.45147835
  Solvation  Ediel_sol  =         0.00000000
  ---------------------------------------------------
  free energy    TOTEN  =      -300.31896279 eV

  energy without entropy =     -300.31896279  energy(sigma->0) =     -300.31896279


--------------------------------------------------------------------------------------------------------




--------------------------------------- Iteration      1(  10)  ---------------------------------------


    POTLOK:  cpu time      0.1280: real time      0.1289
    SETDIJ:  cpu time      0.5956: real time      0.5980
     EDDAV:  cpu time      9.3689: real time      9.4248
       DOS:  cpu time      0.0007: real time      0.0007
    CHARGE:  cpu time      0.4151: real time      0.4173
    MIXING:  cpu time      0.0079: real time      0.0080
    --------------------------------------------
      LOOP:  cpu time     10.5162: real time     10.5776

 eigenvalue-minimisations  :  8112
 total energy-change (2. order) :-0.1080597E+00  (-0.9476216E-02)
 number of electron     360.0000001 magnetization       0.7439883
 augmentation part      -66.2639684 magnetization       0.8135571

 Broyden mixing:
  rms(total) = 0.73683E-01    rms(broyden)= 0.73683E-01
  rms(prec ) = 0.74762E-01
  weight for this iteration     100.00

 eigenvalues of (default mixing * dielectric matrix)
  average eigenvalue GAMMA=   1.3756
  2.7042  1.7600  0.9708  0.8183  0.6248

 Free energy of the ion-electron system (eV)
  ---------------------------------------------------
  alpha Z        PSCENC =       792.92617669
  Ewald energy   TEWEN  =    -12834.26279729
  -Hartree energ DENC   =     -1196.08407783
  -exchange      EXHF   =         0.00000000
  -V(xc)+E(xc)   XCENC  =      -290.28148608
  PAW double counting   =     17197.14275053   -16185.04589548
  entropy T*S    EENTRO =        -0.00000000
  eigenvalues    EBANDS =      -821.27317139
  atomic energy  EATOM  =     13036.45147835
  Solvation  Ediel_sol  =         0.00000000
  ---------------------------------------------------
  free energy    TOTEN  =      -300.42702251 eV

  energy without entropy =     -300.42702251  energy(sigma->0) =     -300.42702251


--------------------------------------------------------------------------------------------------------




--------------------------------------- Iteration      1(  11)  ---------------------------------------


    POTLOK:  cpu time      0.1286: real time      0.1293
    SETDIJ:  cpu time      0.5945: real time      0.5970
     EDDAV:  cpu time     10.0294: real time     10.0833
       DOS:  cpu time      0.0009: real time      0.0009
    CHARGE:  cpu time      0.4163: real time      0.4180
    MIXING:  cpu time      0.0077: real time      0.0077
    --------------------------------------------
      LOOP:  cpu time     11.1774: real time     11.2363

 eigenvalue-minimisations  :  8872
 total energy-change (2. order) :-0.3265747E-01  (-0.3786369E-02)
 number of electron     360.0000001 magnetization       0.1784712
 augmentation part      -66.2499152 magnetization       0.1974266

 Broyden mixing:
  rms(total) = 0.28732E-01    rms(broyden)= 0.28732E-01
  rms(prec ) = 0.29226E-01
  weight for this iteration     100.00

 eigenvalues of (default mixing * dielectric matrix)
  average eigenvalue GAMMA=   1.4074
  2.9166  2.1800  1.1711  0.8574  0.6955  0.6235

 Free energy of the ion-electron system (eV)
  ---------------------------------------------------
  alpha Z        PSCENC =       792.92617669
  Ewald energy   TEWEN  =    -12834.26279729
  -Hartree energ DENC   =     -1197.18860381
  -exchange      EXHF   =         0.00000000
  -V(xc)+E(xc)   XCENC  =      -290.23874418
  PAW double counting   =     17121.90419997   -16109.78055922
  entropy T*S    EENTRO =        -0.00000000
  eigenvalues    EBANDS =      -820.27083050
  atomic energy  EATOM  =     13036.45147835
  Solvation  Ediel_sol  =         0.00000000
  ---------------------------------------------------
  free energy    TOTEN  =      -300.45967998 eV

  energy without entropy =     -300.45967998  energy(sigma->0) =     -300.45967998


--------------------------------------------------------------------------------------------------------




--------------------------------------- Iteration      1(  12)  ---------------------------------------


    POTLOK:  cpu time      0.1283: real time      0.1307
    SETDIJ:  cpu time      0.5946: real time      0.5964
     EDDAV:  cpu time      9.8818: real time      9.9292
       DOS:  cpu time      0.0009: real time      0.0009
    CHARGE:  cpu time      0.4151: real time      0.4170
    MIXING:  cpu time      0.0080: real time      0.0080
    --------------------------------------------
      LOOP:  cpu time     11.0286: real time     11.0821

 eigenvalue-minimisations  :  8600
 total energy-change (2. order) :-0.3360491E-02  (-0.4708984E-03)
 number of electron     360.0000001 magnetization       0.0625067
 augmentation part      -66.2493756 magnetization       0.0669857

 Broyden mixing:
  rms(total) = 0.10890E-01    rms(broyden)= 0.10890E-01
  rms(prec ) = 0.11585E-01
  weight for this iteration     100.00

 eigenvalues of (default mixing * dielectric matrix)
  average eigenvalue GAMMA=   1.3655
  3.0123  2.3353  1.1982  0.8756  0.8756  0.6080  0.6536

 Free energy of the ion-electron system (eV)
  ---------------------------------------------------
  alpha Z        PSCENC =       792.92617669
  Ewald energy   TEWEN  =    -12834.26279729
  -Hartree energ DENC   =     -1197.28908279
  -exchange      EXHF   =         0.00000000
  -V(xc)+E(xc)   XCENC  =      -290.24096696
  PAW double counting   =     17085.68643305   -16073.54008821
  entropy T*S    EENTRO =        -0.00000000
  eigenvalues    EBANDS =      -820.19419331
  atomic energy  EATOM  =     13036.45147835
  Solvation  Ediel_sol  =         0.00000000
  ---------------------------------------------------
  free energy    TOTEN  =      -300.46304047 eV

  energy without entropy =     -300.46304047  energy(sigma->0) =     -300.46304047


--------------------------------------------------------------------------------------------------------




--------------------------------------- Iteration      1(  13)  ---------------------------------------


    POTLOK:  cpu time      0.1283: real time      0.1289
    SETDIJ:  cpu time      0.5958: real time      0.5974
     EDDAV:  cpu time     10.9467: real time     10.9994
       DOS:  cpu time      0.0009: real time      0.0009
    CHARGE:  cpu time      0.4119: real time      0.4138
    MIXING:  cpu time      0.0084: real time      0.0084
    --------------------------------------------
      LOOP:  cpu time     12.0921: real time     12.1489

 eigenvalue-minimisations  :  9864
 total energy-change (2. order) :-0.1048055E-03  (-0.6189720E-04)
 number of electron     360.0000001 magnetization       0.0170842
 augmentation part      -66.2507595 magnetization       0.0179630

 Broyden mixing:
  rms(total) = 0.47044E-02    rms(broyden)= 0.47044E-02
  rms(prec ) = 0.49227E-02
  weight for this iteration     100.00

 eigenvalues of (default mixing * dielectric matrix)
  average eigenvalue GAMMA=   1.3468
  3.0562  2.4303  1.0595  1.0595  1.0593  0.8528  0.6479  0.6092

 Free energy of the ion-electron system (eV)
  ---------------------------------------------------
  alpha Z        PSCENC =       792.92617669
  Ewald energy   TEWEN  =    -12834.26279729
  -Hartree energ DENC   =     -1197.18966309
  -exchange      EXHF   =         0.00000000
  -V(xc)+E(xc)   XCENC  =      -290.25126463
  PAW double counting   =     17072.11887725   -16059.96165171
  entropy T*S    EENTRO =        -0.00000000
  eigenvalues    EBANDS =      -820.29430085
  atomic energy  EATOM  =     13036.45147835
  Solvation  Ediel_sol  =         0.00000000
  ---------------------------------------------------
  free energy    TOTEN  =      -300.46314528 eV

  energy without entropy =     -300.46314528  energy(sigma->0) =     -300.46314528


--------------------------------------------------------------------------------------------------------




--------------------------------------- Iteration      1(  14)  ---------------------------------------


    POTLOK:  cpu time      0.1282: real time      0.1292
    SETDIJ:  cpu time      0.5958: real time      0.5971
     EDDAV:  cpu time      9.5969: real time      9.6449
       DOS:  cpu time      0.0011: real time      0.0012
    CHARGE:  cpu time      0.4075: real time      0.4090
    MIXING:  cpu time      0.0082: real time      0.0082
    --------------------------------------------
      LOOP:  cpu time     10.7377: real time     10.7895

 eigenvalue-minimisations  :  8296
 total energy-change (2. order) :-0.1666870E-04  (-0.1043459E-04)
 number of electron     360.0000001 magnetization       0.0052216
 augmentation part      -66.2504406 magnetization       0.0055635

 Broyden mixing:
  rms(total) = 0.17675E-02    rms(broyden)= 0.17675E-02
  rms(prec ) = 0.18751E-02
  weight for this iteration     100.00

 eigenvalues of (default mixing * dielectric matrix)
  average eigenvalue GAMMA=   1.3350
  3.0840  2.4611  1.4613  1.2043  0.8846  0.8846  0.7816  0.6133  0.6400

 Free energy of the ion-electron system (eV)
  ---------------------------------------------------
  alpha Z        PSCENC =       792.92617669
  Ewald energy   TEWEN  =    -12834.26279729
  -Hartree energ DENC   =     -1197.19157246
  -exchange      EXHF   =         0.00000000
  -V(xc)+E(xc)   XCENC  =      -290.25197191
  PAW double counting   =     17067.59108874   -16055.43091059
  entropy T*S    EENTRO =        -0.00000000
  eigenvalues    EBANDS =      -820.29465348
  atomic energy  EATOM  =     13036.45147835
  Solvation  Ediel_sol  =         0.00000000
  ---------------------------------------------------
  free energy    TOTEN  =      -300.46316195 eV

  energy without entropy =     -300.46316195  energy(sigma->0) =     -300.46316195


--------------------------------------------------------------------------------------------------------




--------------------------------------- Iteration      1(  15)  ---------------------------------------


    POTLOK:  cpu time      0.1282: real time      0.1288
    SETDIJ:  cpu time      0.5955: real time      0.5971
     EDDAV:  cpu time      9.8342: real time      9.8811
       DOS:  cpu time      0.0009: real time      0.0009
    CHARGE:  cpu time      0.4158: real time      0.4174
    MIXING:  cpu time      0.0090: real time      0.0090
    --------------------------------------------
      LOOP:  cpu time     10.9835: real time     11.0342

 eigenvalue-minimisations  :  8592
 total energy-change (2. order) :-0.3456332E-05  (-0.1851929E-05)
 number of electron     360.0000001 magnetization       0.0018113
 augmentation part      -66.2506328 magnetization       0.0020193

 Broyden mixing:
  rms(total) = 0.77174E-03    rms(broyden)= 0.77174E-03
  rms(prec ) = 0.81955E-03
  weight for this iteration     100.00

 eigenvalues of (default mixing * dielectric matrix)
  average eigenvalue GAMMA=   1.3001
  3.0964  2.4344  1.6681  1.0932  0.9709  0.9709  0.8278  0.7015  0.6187  0.6187

 Free energy of the ion-electron system (eV)
  ---------------------------------------------------
  alpha Z        PSCENC =       792.92617669
  Ewald energy   TEWEN  =    -12834.26279729
  -Hartree energ DENC   =     -1197.17611011
  -exchange      EXHF   =         0.00000000
  -V(xc)+E(xc)   XCENC  =      -290.25260855
  PAW double counting   =     17066.97516799   -16054.81405760
  entropy T*S    EENTRO =        -0.00000000
  eigenvalues    EBANDS =      -820.31041488
  atomic energy  EATOM  =     13036.45147835
  Solvation  Ediel_sol  =         0.00000000
  ---------------------------------------------------
  free energy    TOTEN  =      -300.46316541 eV

  energy without entropy =     -300.46316541  energy(sigma->0) =     -300.46316541


--------------------------------------------------------------------------------------------------------




--------------------------------------- Iteration      1(  16)  ---------------------------------------


    POTLOK:  cpu time      0.1362: real time      0.1369
    SETDIJ:  cpu time      0.5874: real time      0.5895
     EDDAV:  cpu time      6.5885: real time      6.6275
       DOS:  cpu time      0.0007: real time      0.0007
    --------------------------------------------
      LOOP:  cpu time      7.3128: real time      7.3546

 eigenvalue-minimisations  :  4856
 total energy-change (2. order) :-0.5765694E-06  (-0.1500417E-06)
 number of electron     360.0000001 magnetization       0.0018113
 augmentation part      -66.2506328 magnetization       0.0020193

 Free energy of the ion-electron system (eV)
  ---------------------------------------------------
  alpha Z        PSCENC =       792.92617669
  Ewald energy   TEWEN  =    -12834.26279729
  -Hartree energ DENC   =     -1197.16996135
  -exchange      EXHF   =         0.00000000
  -V(xc)+E(xc)   XCENC  =      -290.25292728
  PAW double counting   =     17066.87878595   -16054.71739181
  entropy T*S    EENTRO =        -0.00000000
  eigenvalues    EBANDS =      -820.31652924
  atomic energy  EATOM  =     13036.45147835
  Solvation  Ediel_sol  =         0.00000000
  ---------------------------------------------------
  free energy    TOTEN  =      -300.46316598 eV

  energy without entropy =     -300.46316598  energy(sigma->0) =     -300.46316598


--------------------------------------------------------------------------------------------------------




 average (electrostatic) potential at core
  the test charge radii are     1.1631  1.0808
  (the norm of the test charge is              1.0000)
       1 -33.5700       2 -33.5974       3 -33.2437       4 -33.4465       5 -33.4670
       6 -33.2787       7 -33.6879       8 -33.5837       9 -33.5077      10 -33.5078
      11 -33.6483      12 -33.5901      13 -33.1524      14 -33.3742      15 -33.3899
      16 -33.5725      17 -33.4931      18 -33.7342      19 -33.4210      20 -33.4771
      21 -33.5792      22 -33.6010      23 -33.6634      24 -33.5367      25 -33.3665
      26 -33.5283      27 -33.7440      28 -33.5463      29 -33.4507      30 -33.2853
      31 -33.4185      32 -33.6361      33 -33.6414      34 -33.4183      35 -33.4867
      36 -33.4447      37 -55.0181      38 -54.9232      39 -54.7624      40 -54.7331
      41 -54.7563      42 -54.9269      43 -55.0694      44 -54.9434      45 -54.8105
      46 -54.9643      47 -55.2864      48 -54.7812      49 -54.7758      50 -54.9843
      51 -54.7064      52 -54.9617      53 -54.9164      54 -54.9415      55 -54.7971
      56 -54.8394      57 -54.9959      58 -54.8049      59 -54.8843      60 -54.7628
      61 -54.8174      62 -54.6904      63 -55.0090      64 -54.9734      65 -54.9411
      66 -55.0609      67 -54.9466      68 -54.8365      69 -54.8055      70 -54.8809
      71 -54.7612      72 -54.9708
 
 
 
 E-fermi :   3.4360     XC(G=0):  -9.3484     alpha+bet : -8.7770

 Fermi energy:         3.4359762255

 spin component 1

 k-point     1 :       0.0000    0.0000    0.0000
  band No.  band energies     occupation 
      1     -10.9452      1.00000
      2     -10.6213      1.00000
      3     -10.4256      1.00000
      4     -10.3736      1.00000
      5     -10.3687      1.00000
      6     -10.2952      1.00000
      7     -10.1307      1.00000
      8     -10.0632      1.00000
      9     -10.0065      1.00000
     10     -10.0037      1.00000
     11      -9.9515      1.00000
     12      -9.9109      1.00000
     13      -9.8449      1.00000
     14      -9.8125      1.00000
     15      -9.7819      1.00000
     16      -9.6971      1.00000
     17      -9.6721      1.00000
     18      -9.6339      1.00000
     19      -9.6214      1.00000
     20      -9.5664      1.00000
     21      -9.5213      1.00000
     22      -9.4533      1.00000
     23      -9.3946      1.00000
     24      -9.3597      1.00000
     25      -9.3281      1.00000
     26      -9.2923      1.00000
     27      -9.2624      1.00000
     28      -9.2571      1.00000
     29      -9.2271      1.00000
     30      -9.1970      1.00000
     31      -9.1744      1.00000
     32      -9.1123      1.00000
     33      -9.0957      1.00000
     34      -9.0413      1.00000
     35      -9.0077      1.00000
     36      -8.9504      1.00000
     37      -5.4353      1.00000
     38      -5.3675      1.00000
     39      -5.3190      1.00000
     40      -5.2613      1.00000
     41      -5.1101      1.00000
     42      -5.0950      1.00000
     43      -5.0468      1.00000
     44      -4.9781      1.00000
     45      -4.8691      1.00000
     46      -4.8272      1.00000
     47      -4.6886      1.00000
     48      -4.5806      1.00000
     49      -4.5174      1.00000
     50      -4.4786      1.00000
     51      -4.4620      1.00000
     52      -4.4137      1.00000
     53      -4.3891      1.00000
     54      -4.3766      1.00000
     55      -4.3573      1.00000
     56      -4.3116      1.00000
     57      -4.2984      1.00000
     58      -4.2409      1.00000
     59      -4.2200      1.00000
     60      -4.1884      1.00000
     61      -4.1343      1.00000
     62      -4.1032      1.00000
     63      -4.0806      1.00000
     64      -4.0080      1.00000
     65      -3.9184      1.00000
     66      -3.8422      1.00000
     67      -3.7796      1.00000
     68      -3.7358      1.00000
     69      -3.5714      1.00000
     70      -3.5070      1.00000
     71      -2.5519      1.00000
     72      -2.4431      1.00000
     73      -1.9243      1.00000
     74      -1.6269      1.00000
     75      -1.5764      1.00000
     76      -1.5487      1.00000
     77      -1.4445      1.00000
     78      -1.4003      1.00000
     79      -1.3395      1.00000
     80      -1.2762      1.00000
     81      -1.1850      1.00000
     82      -1.1406      1.00000
     83      -1.1220      1.00000
     84      -1.0890      1.00000
     85      -1.0394      1.00000
     86      -0.8430      1.00000
     87      -0.8156      1.00000
     88      -0.7881      1.00000
     89      -0.7136      1.00000
     90      -0.6565      1.00000
     91      -0.6413      1.00000
     92      -0.4969      1.00000
     93      -0.4630      1.00000
     94      -0.3749      1.00000
     95      -0.3382      1.00000
     96      -0.2886      1.00000
     97      -0.1815      1.00000
     98      -0.1588      1.00000
     99      -0.0473      1.00000
    100      -0.0173      1.00000
    101       0.0806      1.00000
    102       0.1178      1.00000
    103       0.1535      1.00000
    104       0.1682      1.00000
    105       0.2121      1.00000
    106       0.2314      1.00000
    107       0.2633      1.00000
    108       0.3455      1.00000
    109       0.3672      1.00000
    110       0.4365      1.00000
    111       0.4689      1.00000
    112       0.4860      1.00000
    113       0.5215      1.00000
    114       0.5613      1.00000
    115       0.5651      1.00000
    116       0.5919      1.00000
    117       0.6143      1.00000
    118       0.6725      1.00000
    119       0.6955      1.00000
    120       0.7277      1.00000
    121       0.7598      1.00000
    122       0.7932      1.00000
    123       0.8234      1.00000
    124       0.8872      1.00000
    125       0.9180      1.00000
    126       0.9787      1.00000
    127       0.9845      1.00000
    128       1.0442      1.00000
    129       1.0720      1.00000
    130       1.0994      1.00000
    131       1.1336      1.00000
    132       1.1724      1.00000
    133       1.1845      1.00000
    134       1.2063      1.00000
    135       1.2342      1.00000
    136       1.2831      1.00000
    137       1.3419      1.00000
    138       1.3821      1.00000
    139       1.4570      1.00000
    140       1.4661      1.00000
    141       1.4992      1.00000
    142       1.5384      1.00000
    143       1.5723      1.00000
    144       1.6287      1.00000
    145       1.6592      1.00000
    146       1.6803      1.00000
    147       1.7122      1.00000
    148       1.7661      1.00000
[...]
   0.474E+01 -.139E+02 -.275E+02   -.477E+01 0.167E+02 0.306E+02   -.271E-02 -.256E+01 -.273E+01   0.793E-04 -.439E-03 -.224E-03
   0.156E+02 0.769E+01 0.273E+02   -.177E+02 -.924E+01 -.303E+02   0.154E+01 0.610E+00 0.257E+01   -.237E-05 0.266E-03 0.383E-04
   0.282E+02 -.102E+01 0.203E+02   -.300E+02 0.686E+00 -.222E+02   0.109E+01 -.234E+00 0.159E+01   -.433E-03 0.109E-03 -.865E-04
   -.376E+01 0.154E+02 0.315E+02   0.366E+01 -.167E+02 -.328E+02   -.574E+00 0.115E+01 0.186E+01   0.213E-03 0.602E-03 0.137E-04
   0.123E+02 -.434E+00 0.182E+02   -.135E+02 0.695E+00 -.199E+02   0.678E+00 -.643E+00 0.189E+01   0.627E-04 -.512E-03 0.318E-03
   0.289E+01 0.136E+02 0.241E+02   -.306E+01 -.150E+02 -.260E+02   -.607E-02 0.126E+01 0.193E+01   0.468E-03 -.231E-03 -.119E-03
   0.178E+02 -.912E+01 0.159E+02   -.188E+02 0.956E+01 -.175E+02   0.130E+01 -.533E+00 0.204E+01   -.302E-03 -.975E-04 -.219E-03
   0.491E+01 0.221E+02 0.121E+02   -.452E+01 -.240E+02 -.133E+02   -.935E-01 0.154E+01 0.169E+01   -.255E-03 0.324E-03 -.778E-04
   -.885E-01 0.146E+02 0.148E+02   0.410E+00 -.160E+02 -.165E+02   -.366E+00 0.106E+01 0.184E+01   0.366E-03 -.652E-03 0.170E-03
   0.966E+01 -.140E+02 -.320E+02   -.962E+01 0.150E+02 0.338E+02   0.873E-01 -.153E+01 -.203E+01   -.293E-03 0.499E-04 0.289E-03
   -.819E+01 -.186E+02 -.156E+02   0.857E+01 0.196E+02 0.165E+02   0.927E-01 -.994E+00 -.960E+00   -.346E-03 0.111E-03 0.243E-03
   -.252E+02 0.372E+01 -.242E+02   0.266E+02 -.392E+01 0.261E+02   -.107E+01 0.815E+00 -.162E+01   0.226E-03 -.113E-03 -.855E-05
   0.309E+01 -.886E+01 -.279E+02   -.347E+01 0.102E+02 0.297E+02   0.551E+00 -.853E+00 -.213E+01   0.316E-03 -.230E-03 0.213E-03
   -.196E+02 0.213E+01 -.250E+02   0.207E+02 -.257E+01 0.270E+02   -.144E+01 0.364E+00 -.206E+01   0.549E-03 0.123E-03 0.422E-04
   0.119E+02 -.853E+01 -.322E+02   -.125E+02 0.955E+01 0.345E+02   0.678E-01 -.123E+01 -.214E+01   -.204E-04 0.982E-04 0.658E-04
   -.929E+01 -.144E+01 -.161E+02   0.904E+01 0.220E+01 0.173E+02   0.220E+00 -.108E+01 -.191E+01   0.241E-04 -.380E-03 0.275E-03
   -.201E+02 0.106E+02 0.220E+02   0.210E+02 -.119E+02 -.237E+02   -.573E+00 0.141E+01 0.167E+01   -.123E-03 -.924E-04 0.147E-03
   -.344E+01 0.137E+02 0.164E+02   0.368E+01 -.148E+02 -.179E+02   -.104E+00 0.118E+01 0.242E+01   0.116E-03 0.510E-03 0.170E-03
   0.457E+01 -.184E+02 0.326E+02   -.434E+01 0.201E+02 -.342E+02   -.152E+00 -.726E+00 0.195E+01   -.497E-03 0.211E-03 -.129E-03
   -.228E+02 -.686E+00 0.150E+02   0.238E+02 0.763E+00 -.167E+02   -.101E+01 -.146E+00 0.196E+01   0.109E-03 0.398E-03 -.275E-03
   0.101E+02 -.168E+02 0.283E+02   -.106E+02 0.182E+02 -.297E+02   -.457E-01 -.661E+00 0.853E+00   -.203E-03 0.124E-03 -.185E-04
   0.134E+02 -.213E+02 -.999E+01   -.139E+02 0.230E+02 0.106E+02   0.256E+00 -.146E+01 -.137E+01   -.101E-03 -.701E-03 0.308E-03
   0.370E+01 0.837E+01 -.173E+02   -.375E+01 -.977E+01 0.181E+02   -.343E+00 0.118E+01 -.121E+01   -.238E-03 0.327E-03 -.134E-04
   0.235E+01 0.201E+02 -.216E+02   -.267E+01 -.213E+02 0.234E+02   -.763E-01 0.107E+01 -.237E+01   0.700E-03 -.153E-03 -.800E-04
   0.220E+02 -.958E+01 -.216E+02   -.235E+02 0.101E+02 0.232E+02   0.114E+01 -.242E+00 -.212E+01   0.482E-04 -.185E-03 -.264E-03
   -.251E+02 0.138E+02 -.293E+02   0.258E+02 -.151E+02 0.308E+02   0.248E+00 0.156E+01 -.172E+01   0.603E-04 0.235E-03 0.232E-03
   0.636E+01 -.439E+01 -.256E+02   -.743E+01 0.492E+01 0.280E+02   0.137E+01 -.662E+00 -.167E+01   -.640E-03 0.447E-04 -.419E-03
   -.122E+02 0.327E+01 -.206E+02   0.125E+02 -.442E+01 0.218E+02   0.320E+00 0.154E+01 -.126E+01   0.153E-03 -.941E-04 -.247E-03
   0.258E+02 -.881E+01 -.358E+02   -.271E+02 0.920E+01 0.377E+02   0.177E+01 -.394E+00 -.154E+01   0.121E-03 -.184E-04 -.201E-03
   0.109E+02 0.232E+02 -.233E+02   -.108E+02 -.248E+02 0.247E+02   -.738E+00 0.104E+01 -.141E+01   0.307E-04 0.115E-05 0.126E-03
   0.301E+01 0.927E+01 -.278E+02   -.287E+01 -.102E+02 0.297E+02   -.127E+00 0.676E+00 -.220E+01   -.652E-05 0.967E-04 -.174E-03
   -.725E+01 -.599E+00 0.275E+02   0.703E+01 0.169E+01 -.297E+02   -.135E+00 -.968E+00 0.208E+01   -.854E-05 -.266E-03 -.165E-03
   -.508E+01 -.249E+02 0.266E+02   0.467E+01 0.265E+02 -.283E+02   0.667E-01 -.132E+01 0.171E+01   0.118E-03 -.103E-03 -.251E-03
   0.623E+01 -.796E+01 0.405E+02   -.634E+01 0.904E+01 -.427E+02   -.103E+00 -.150E+01 0.174E+01   -.177E-03 -.153E-03 0.335E-03
   -.952E+01 -.907E+01 0.216E+02   0.969E+01 0.101E+02 -.233E+02   -.162E+00 -.902E+00 0.142E+01   -.539E-03 0.340E-05 0.134E-04
   -.671E+01 -.534E+01 0.271E+02   0.745E+01 0.569E+01 -.291E+02   -.665E+00 -.411E-01 0.215E+01   0.396E-03 0.110E-03 0.869E-04
   -.156E+01 -.547E+00 0.191E+02   0.247E+01 0.121E+01 -.208E+02   -.563E+00 -.263E+00 0.232E+01   0.342E-03 -.318E-04 -.669E-04
   -.102E+02 0.183E+02 -.148E+02   0.114E+02 -.190E+02 0.165E+02   -.848E+00 0.625E+00 -.190E+01   -.229E-03 0.480E-03 0.263E-05
 -----------------------------------------------------------------------------------------------
   0.140E+01 -.771E+00 0.301E+00   0.302E-13 0.355E-13 -.853E-13   -.140E+01 0.772E+00 -.300E+00   -.356E-03 -.346E-03 0.367E-03
 
 
 POSITION                                       TOTAL-FORCE (eV/Angst)
 -----------------------------------------------------------------------------------
      0.87333      0.52483      1.21978         0.092861     -0.125823      0.364825
      2.87847     10.70438      4.08753         0.063839      0.830540     -0.081991
      7.16403      2.66255      4.02338         0.038778     -0.108481      0.461285
      6.79735      6.98412      3.99477         0.359293     -0.481987      0.263273
      7.43925     10.76762      4.09977        -0.368041      0.266222      0.090126
     11.03574      2.77000      4.15723         0.157912     -0.655368      0.373742
     11.45638      6.62913      4.03368        -0.508476     -0.582351     -0.498981
     11.38868     10.93468      4.19610        -0.263644      0.104160     -0.450121
      0.81133      1.71697      6.72561         0.652381      0.378792      0.272321
      0.83479      6.08114      7.01683         0.079303      0.358336      0.256626
      0.66907     10.38342      6.95550         0.032273     -0.005145      0.430079
      4.91284      2.12066      6.90467        -0.130614     -0.481073      0.558668
      4.56256      6.22798      7.12790         0.728287      0.456235     -0.956944
      5.35003     10.11200      6.87036        -0.595474      0.421137      0.278805
      8.94129      2.13915      6.99244        -0.500491      0.103811     -0.352221
      9.29211      5.96907      6.81978        -0.340015      0.128442      0.150469
      2.78641      6.82930      3.99201         0.821362     -0.517708      0.620011
      3.01528      2.30871      4.07701         0.492795      0.115809     -0.257926
      9.10977     10.23822      7.05005        -0.093004      0.255488     -0.155911
     11.10852      8.35600      9.47496         0.539146      0.073527     -0.263468
     11.01793      0.16272      9.59193        -0.202679     -0.193622      0.357591
      0.95553      4.53749      1.41890         0.070178      0.028059     -0.289347
      1.00399      8.59946      1.52523         0.043635      0.165092      0.030578
      5.12801      0.49428      1.59096         0.356684     -0.121403     -0.144168
      4.99343      4.73309      1.47398         0.399252     -0.239689     -0.121604
      9.20343      0.31804      1.53045         0.018351      0.336827      0.165285
      9.23597      4.69301      1.12656        -0.348288      0.237083      0.712712
      5.02255      8.94660      1.37170         0.031949     -0.178128      0.288763
      2.59934      3.97449      9.74113         0.420838      0.355628     -0.448443
      2.64477      8.40569      9.65182         0.406709     -0.014991     -0.199855
      2.85484     12.28052      9.63590         0.328488     -0.094497     -0.195445
      6.69699      4.23015      9.71836        -0.482593     -0.148731     -0.493646
      7.32672      8.07133      9.75564        -0.353493     -0.059584     -0.330467
      6.95625     12.34026      9.68681        -0.315874     -0.001529     -0.049805
     11.26474      3.79859      9.50932        -0.024288      0.311013      0.354539
      9.35743      9.04775      1.61669        -0.498359     -0.945096     -0.452703
     11.52554      0.02505      7.13453        -0.675707     -0.573110     -0.328258
      2.84943      4.41485      7.06941        -0.669266     -0.165252      0.583557
      3.23938      8.53847      7.09581        -0.452019     -0.381983      0.201042
      6.97413      0.42321      7.17892        -0.166114     -0.139798     -0.047928
      7.23237      4.25551      7.09636         0.249628     -0.094664      0.426597
      7.22364      8.46260      7.11367         0.299391     -0.321796      0.513382
     11.34176      4.39239      7.00458        -0.043419     -0.393471      0.154434
      9.26344      0.13228      4.06499         0.126026     -0.513063     -0.148065
      0.83199      0.04239      3.85435         0.477897      0.002939     -0.027111
      0.55360      4.35721      3.87805         0.374167      0.610466      0.280937
      0.82156      8.40008      4.11731         0.176662      0.455632     -0.396952
      4.78959      0.24867      4.06846        -0.343459     -0.076184     -0.048408
      5.16445      4.29737      3.94879        -0.492630     -0.207831      0.139188
      4.84466      8.65792      4.09190        -0.036823     -0.317886     -0.678936
      2.87500      0.17716      7.08335         0.261105      0.049109     -0.044809
     11.11744      8.58930      6.82664         0.132465      0.122002      0.836997
     11.47372     10.29736      1.59667         0.080421      0.931345      0.348426
      2.72497      2.37327      1.49796         0.003621     -0.068061      0.326263
     11.28281      1.94803      1.71605        -0.524227      0.684799     -0.602069
      9.13819      4.38860      3.92168        -0.234705      0.249572     -0.711446
      0.86025      2.18960      9.46817        -0.393066     -0.212494     -0.399975
      0.78769      6.64038      9.59259        -0.393928     -0.201889     -0.583559
      1.02950     10.40425      9.58190        -0.348179      0.291219     -0.535787
      4.59903      2.36331      9.49709         0.931563      0.216197     -0.195213
      5.18065      6.38122      9.50503         0.301039     -0.132198      0.764623
      4.93137     10.57018      9.46877         0.584185      0.399909     -0.060497
      9.24105      2.14357      9.45673         0.461783     -0.001758      0.348481
      9.40184      6.52606      9.40054        -0.629999     -0.622403     -0.051279
      9.11915     10.81395      9.59753         0.004130     -0.297952     -0.236026
      2.98388      6.34908      1.52205        -0.354565      0.119438     -0.129825
      2.93392     10.43268      1.54303        -0.345149      0.264036      0.045072
      7.25004      2.20412      1.59299        -0.210243     -0.425191     -0.449541
      7.05671      6.37084      1.50543         0.005610      0.133635     -0.228216
      6.87814     10.73166      1.54918         0.077558      0.307264      0.143537
     10.99588      6.49248      1.37847         0.338985      0.400820      0.644996
      8.89552      8.63268      4.07136         0.318279     -0.062391     -0.140283
 -----------------------------------------------------------------------------------
    total drift:                                0.000166      0.000713      0.000545


--------------------------------------------------------------------------------------------------------



  FREE ENERGIE OF THE ION-ELECTRON SYSTEM (eV)
  ---------------------------------------------------
  free  energy   TOTEN  =      -300.46316598 eV

  energy  without entropy=     -300.46316598  energy(sigma->0) =     -300.46316598
 


--------------------------------------------------------------------------------------------------------


    POTLOK:  cpu time      0.7277: real time      0.7300


--------------------------------------------------------------------------------------------------------


     LOOP+:  cpu time    179.9996: real time    180.9714
    4ORBIT:  cpu time      0.0000: real time      0.0000



 total charge

# of ion       s       p       d       tot
------------------------------------------
    1        1.324   0.753   0.056   2.133
    2        1.333   0.727   0.054   2.115
    3        1.303   0.824   0.062   2.189
    4        1.330   0.765   0.054   2.149
    5        1.317   0.779   0.056   2.152
    6        1.312   0.820   0.064   2.196
    7        1.329   0.742   0.051   2.122
    8        1.320   0.763   0.054   2.137
    9        1.320   0.775   0.059   2.154
   10        1.316   0.779   0.054   2.148
   11        1.331   0.727   0.051   2.109
   12        1.328   0.720   0.049   2.097
   13        1.308   0.841   0.063   2.212
   14        1.325   0.771   0.057   2.152
   15        1.315   0.787   0.058   2.161
   16        1.331   0.741   0.053   2.125
   17        1.322   0.793   0.057   2.172
   18        1.333   0.706   0.046   2.085
   19        1.315   0.791   0.055   2.161
   20        1.329   0.762   0.057   2.147
   21        1.322   0.774   0.057   2.153
   22        1.329   0.745   0.054   2.127
   23        1.329   0.757   0.059   2.145
   24        1.329   0.737   0.049   2.115
   25        1.305   0.810   0.059   2.175
   26        1.319   0.766   0.054   2.139
   27        1.332   0.707   0.048   2.087
   28        1.330   0.747   0.055   2.132
   29        1.315   0.788   0.059   2.162
   30        1.314   0.799   0.060   2.173
   31        1.320   0.763   0.055   2.138
   32        1.325   0.723   0.044   2.092
   33        1.336   0.717   0.048   2.101
   34        1.319   0.762   0.050   2.131
   35        1.319   0.786   0.054   2.159
   36        1.322   0.788   0.058   2.168
   37        1.472   2.336   0.036   3.845
   38        1.481   2.300   0.033   3.813
   39        1.477   2.289   0.030   3.797
   40        1.475   2.296   0.029   3.800
   41        1.478   2.272   0.026   3.776
   42        1.476   2.312   0.034   3.822
   43        1.477   2.312   0.035   3.823
   44        1.482   2.281   0.032   3.795
   45        1.473   2.302   0.029   3.804
   46        1.476   2.311   0.034   3.822
   47        1.483   2.311   0.042   3.835
   48        1.479   2.279   0.028   3.786
   49        1.479   2.286   0.030   3.794
   50        1.480   2.285   0.034   3.799
   51        1.474   2.293   0.028   3.795
   52        1.483   2.275   0.032   3.790
   53        1.477   2.316   0.033   3.826
   54        1.478   2.287   0.030   3.796
   55        1.469   2.324   0.031   3.824
   56        1.476   2.300   0.030   3.806
   57        1.475   2.311   0.035   3.820
   58        1.480   2.284   0.030   3.794
   59        1.477   2.301   0.033   3.811
   60        1.477   2.282   0.028   3.787
   61        1.476   2.307   0.032   3.815
   62        1.475   2.282   0.026   3.783
   63        1.479   2.307   0.035   3.822
   64        1.474   2.316   0.034   3.825
   65        1.479   2.285   0.030   3.793
   66        1.480   2.299   0.035   3.814
   67        1.476   2.310   0.033   3.819
   68        1.477   2.297   0.030   3.804
   69        1.475   2.291   0.028   3.793
   70        1.478   2.287   0.031   3.797
   71        1.478   2.277   0.027   3.782
   72        1.481   2.300   0.035   3.816
--------------------------------------------------
tot        100.788 110.236   3.112 214.137



 magnetization (x)

# of ion       s       p       d       tot
------------------------------------------
    1       -0.000   0.000   0.000   0.000
    2       -0.000   0.000  -0.000   0.000
    3       -0.000   0.000  -0.000  -0.000
    4       -0.000   0.000  -0.000   0.000
    5       -0.000  -0.000  -0.000  -0.000
    6       -0.000   0.000   0.000   0.000
    7       -0.000   0.000   0.000   0.000
    8       -0.000   0.000   0.000   0.000
    9       -0.000   0.000   0.000   0.000
   10       -0.000   0.000   0.000   0.000
   11       -0.000   0.000   0.000   0.000
   12       -0.000  -0.000  -0.000  -0.000
   13       -0.000  -0.000  -0.000  -0.000
   14       -0.000  -0.000  -0.000  -0.000
   15       -0.000   0.000  -0.000   0.000
   16       -0.000   0.000   0.000   0.000
   17       -0.000   0.000  -0.000   0.000
   18       -0.000  -0.000  -0.000  -0.000
   19       -0.000   0.000   0.000   0.000
   20       -0.000   0.000   0.000   0.000
   21       -0.000   0.000   0.000   0.000
   22       -0.000   0.000   0.000   0.000
   23       -0.000   0.000   0.000   0.000
   24       -0.000  -0.000  -0.000  -0.000
   25       -0.000   0.000  -0.000  -0.000
   26       -0.000   0.000   0.000   0.000
   27       -0.000   0.000   0.000   0.000
   28       -0.000   0.000  -0.000  -0.000
   29       -0.000   0.000   0.000   0.000
   30       -0.000   0.000   0.000   0.000
   31       -0.000   0.000  -0.000   0.000
   32       -0.000   0.000  -0.000  -0.000
   33       -0.000   0.000   0.000   0.000
   34       -0.000  -0.000  -0.000  -0.000
   35       -0.000   0.000   0.000   0.000
   36       -0.000   0.000   0.000   0.000
   37       -0.000  -0.000   0.000  -0.000
   38       -0.000  -0.000  -0.000  -0.000
   39       -0.000  -0.000  -0.000  -0.000
   40       -0.000  -0.000  -0.000  -0.000
   41       -0.000  -0.000  -0.000  -0.000
   42       -0.000  -0.000  -0.000  -0.000
   43       -0.000  -0.000   0.000  -0.000
   44       -0.000  -0.000   0.000  -0.000
   45       -0.000  -0.000   0.000  -0.000
   46       -0.000  -0.000   0.000  -0.000
   47       -0.000  -0.000   0.000  -0.000
   48       -0.000  -0.000  -0.000  -0.000
   49       -0.000  -0.000  -0.000  -0.000
   50       -0.000  -0.000  -0.000  -0.000
   51       -0.000  -0.000  -0.000  -0.000
   52       -0.000  -0.000   0.000  -0.000
   53       -0.000  -0.000   0.000  -0.000
   54       -0.000  -0.000   0.000  -0.000
   55       -0.000  -0.000   0.000  -0.000
   56       -0.000  -0.000   0.000  -0.000
   57       -0.000  -0.000   0.000  -0.000
   58       -0.000  -0.000   0.000  -0.000
   59       -0.000  -0.000   0.000  -0.000
   60       -0.000  -0.000  -0.000  -0.000
   61       -0.000  -0.000  -0.000  -0.000
   62       -0.000  -0.000  -0.000  -0.000
   63       -0.000  -0.000   0.000  -0.000
   64       -0.000  -0.000   0.000  -0.000
   65       -0.000  -0.000   0.000  -0.000
   66       -0.000  -0.000   0.000  -0.000
   67       -0.000  -0.000   0.000  -0.000
   68       -0.000  -0.000  -0.000  -0.000
   69       -0.000  -0.000   0.000  -0.000
   70       -0.000  -0.000  -0.000  -0.000
   71       -0.000  -0.000   0.000  -0.000
   72       -0.000  -0.000   0.000  -0.000
--------------------------------------------------
tot         -0.000  -0.000   0.000  -0.000
 

 total amount of memory used by VASP MPI-rank0   111004. kBytes
=======================================================================

   base      :      30000. kBytes
   nonl-proj :      16422. kBytes
   fftplans  :       6180. kBytes
   grid      :      15593. kBytes
   one-center:        146. kBytes
   wavefun   :      42663. kBytes
 
  
  
 General timing and accounting informations for this job:
 ========================================================
  
                  Total CPU time used (sec):      191.822
                            User time (sec):      185.869
                          System time (sec):        5.953
                         Elapsed time (sec):      194.108
  
                   Maximum memory used (kb):      318544.
                   Average memory used (kb):          N/A
  
                          Minor page faults:        93941
                          Major page faults:           62
                 Voluntary context switches:         4340
