 vasp.6.4.2 20Jul23 (build Oct 12 2023 10:31:02) complex                         
 executed on              LinuxNV date 2025.05.18  22:31:09
 running  160 mpi-ranks, with    1 threads/rank, on   10 nodes
 distrk:  each k-point on   80 cores,    2 groups
 distr:  one band on NCORE=   5 cores,   16 groups


--------------------------------------------------------------------------------------------------------


 INCAR:
   ENCUT = 520.000000
   SIGMA = 0.050000
   EDIFF = 1.00e-06
   ALGO = Normal
   GGA = PE
   PREC = Normal
   SYSTEM = ./
   ICHARG = 2
   ISMEAR = 0
   ISPIN = 1
   ISTART = 0
   ISYM = 0
   KPAR = 2
   LMAXMIX = 4
   NELM = 100
   NPAR = 16
   LASPH = .TRUE.
   LCHARG = .FALSE.
   LWAVE = .FALSE.

 POTCAR:    PAW_PBE Ge 05Jan2001                  
 POTCAR:    PAW_PBE Se 06Sep2000                  
 POTCAR:    PAW_PBE Ge 05Jan2001                  
   VRHFIN =Ge: s2p2                                                                                 
   LEXCH  = PE                                                                                      
   EATOM  =   104.9960 eV,    7.7170 Ry                                                             
                                                                                                    
   TITEL  = PAW_PBE Ge 05Jan2001                                                                    
   LULTRA =        F    use ultrasoft PP ?                                                          
   IUNSCR =        1    unscreen: 0-lin 1-nonlin 2-no                                               
   RPACOR =    2.170    partial core radius                                                         
   POMASS =   72.610; ZVAL   =    4.000    mass and valenz                                          
   RCORE  =    2.300    outmost cutoff radius                                                       
   RWIGS  =    2.300; RWIGS  =    1.217    wigner-seitz radius (au A)                               
   ENMAX  =  173.807; ENMIN  =  130.355 eV                                                          
   ICORE  =        3    local potential                                                             
   LCOR   =        T    correct aug charges                                                         
   LPAW   =        T    paw PP                                                                      
   EAUG   =  385.843                                                                                
   DEXC   =    0.000                                                                                
   RMAX   =    2.342    core radius for proj-oper                                                   
   RAUG   =    1.300    factor for augmentation sphere                                              
   RDEP   =    2.318    radius for radial grids                                                     
   RDEPT  =    2.103    core radius for aug-charge                                                  
                                                                                                    
   Atomic configuration                                                                             
   10 entries                                                                                       
     n  l   j            E        occ.                                                              
     1  0  0.50    -10959.8463   2.0000                                                             
     2  0  0.50     -1371.6056   2.0000                                                             
     2  1  1.50     -1198.4791   6.0000                                                             
     3  0  0.50      -168.4733   2.0000                                                             
     3  1  1.50      -115.6019   6.0000                                                             
     3  2  2.50       -29.3106  10.0000                                                             
     4  0  0.50       -11.7309   2.0000                                                             
     4  1  0.50        -3.8952   2.0000                                                             
     4  2  1.50        -4.0817   0.0000                                                             
     4  3  2.50        -4.0817   0.0000                                                             
   Description                                                                                      
     l       E           TYP  RCUT    TYP  RCUT                                                     
     0    -11.7309493     23  2.300                                                                 
     0     -7.4578696     23  2.300                                                                 
     1     -3.8952261     23  2.300                                                                 
     1      6.1178114     23  2.300                                                                 
     2     -4.0817478     23  2.300                                                                 
     3     -1.3605826      7  2.300                                                                 
  local pseudopotential read in
  partial core-charges read in
  partial kinetic energy density read in
  atomic valenz-charges read in
  non local Contribution for L=            0  read in
    real space projection operators read in
  non local Contribution for L=            0  read in
    real space projection operators read in
  non local Contribution for L=            1  read in
    real space projection operators read in
  non local Contribution for L=            1  read in
    real space projection operators read in
  non local Contribution for L=            2  read in
    real space projection operators read in
    PAW grid and wavefunctions read in
 
   number of l-projection  operators is LMAX  =            5
   number of lm-projection operators is LMMAX =           13
 
 POTCAR:    PAW_PBE Se 06Sep2000                  
   VRHFIN =Se: s2p4                                                                                 
   LEXCH  = PE                                                                                      
   EATOM  =   257.1286 eV,   18.8984 Ry                                                             
                                                                                                    
   TITEL  = PAW_PBE Se 06Sep2000                                                                    
   LULTRA =        F    use ultrasoft PP ?                                                          
   IUNSCR =        1    unscreen: 0-lin 1-nonlin 2-no                                               
   RPACOR =    1.900    partial core radius                                                         
   POMASS =   78.960; ZVAL   =    6.000    mass and valenz                                          
   RCORE  =    2.100    outmost cutoff radius                                                       
   RWIGS  =    2.200; RWIGS  =    1.164    wigner-seitz radius (au A)                               
   ENMAX  =  211.555; ENMIN  =  158.666 eV                                                          
   ICORE  =        3    local potential                                                             
   LCOR   =        T    correct aug charges                                                         
   LPAW   =        T    paw PP                                                                      
   EAUG   =  446.842                                                                                
   DEXC   =    0.000                                                                                
   RMAX   =    2.147    core radius for proj-oper                                                   
   RAUG   =    1.300    factor for augmentation sphere                                              
   RDEP   =    2.177    radius for radial grids                                                     
   RDEPT  =    1.928    core radius for aug-charge                                                  
                                                                                                    
   Atomic configuration                                                                             
   10 entries                                                                                       
     n  l   j            E        occ.                                                              
     1  0  0.50    -12503.4787   2.0000                                                             
     2  0  0.50     -1606.9547   2.0000                                                             
     2  1  1.50     -1413.3140   6.0000                                                             
     3  0  0.50      -213.4885   2.0000                                                             
     3  1  1.50      -152.9538   6.0000                                                             
     3  2  2.50       -53.1221  10.0000                                                             
     4  0  0.50       -17.2865   2.0000                                                             
     4  1  0.50        -6.5110   4.0000                                                             
     4  2  2.50        -6.8029   0.0000                                                             
     4  3  2.50        -6.8029   0.0000                                                             
   Description                                                                                      
     l       E           TYP  RCUT    TYP  RCUT                                                     
     0    -17.2865377     23  2.100                                                                 
     0    -15.3094411     23  2.100                                                                 
     1     -6.5110275     23  2.100                                                                 
     1     -0.0695192     23  2.100                                                                 
     2     -6.8029130     23  2.100                                                                 
     3     -1.3605826      7  2.100                                                                 
  local pseudopotential read in
  partial core-charges read in
  partial kinetic energy density read in
  atomic valenz-charges read in
  non local Contribution for L=            0  read in
    real space projection operators read in
  non local Contribution for L=            0  read in
    real space projection operators read in
  non local Contribution for L=            1  read in
    real space projection operators read in
  non local Contribution for L=            1  read in
    real space projection operators read in
  non local Contribution for L=            2  read in
    real space projection operators read in
    PAW grid and wavefunctions read in
 
   number of l-projection  operators is LMAX  =            5
   number of lm-projection operators is LMMAX =           13
 
  PAW_PBE Ge 05Jan2001                  :
 energy of atom  1       EATOM= -104.9960
 kinetic energy error for atom=    0.0002 (will be added to EATOM!!)
  PAW_PBE Se 06Sep2000                  :
 energy of atom  2       EATOM= -257.1286
 kinetic energy error for atom=    0.0007 (will be added to EATOM!!)
 
 
 POSCAR: Ge Se
  positions in cartesian coordinates
  No initial velocities read in
 exchange correlation table for  LEXCH =        8
   RHO(1)=    0.500       N(1)  =     2000
   RHO(2)=  100.500       N(2)  =     4000
 


--------------------------------------------------------------------------------------------------------


 ion  position               nearest neighbor table
   1  0.236  0.404  0.123-   6 2.60   6 2.60   5 2.60
   2  0.736  0.904  0.377-   5 2.60   5 2.60   6 2.60
   3  0.750  0.886  0.877-   8 2.60   8 2.60   7 2.60
   4  0.250  0.386  0.623-   7 2.60   7 2.60   8 2.60
   5  0.236  0.283  0.352-   2 2.60   2 2.60   1 2.60
   6  0.736  0.783  0.148-   1 2.60   1 2.60   2 2.60
   7  0.750  0.007  0.648-   4 2.60   4 2.60   3 2.60
   8  0.250  0.507  0.852-   3 2.60   3 2.60   4 2.60
 

IMPORTANT INFORMATION: All symmetrisations will be switched off!
NOSYMM: (Re-)initialisation of all symmetry stuff for point group C_1.


----------------------------------------------------------------------------------------

                                     Primitive cell                                     

  volume of cell :     193.5913

  direct lattice vectors                    reciprocal lattice vectors
     3.858100176  0.000000000  0.000000000     0.259194929  0.000000000  0.000000000
     0.000000000  4.526575088  0.000000000     0.000000000  0.220917577  0.000000000
     0.000000000  0.000000000 11.085176468     0.000000000  0.000000000  0.090210562

  length of vectors
     3.858100176  4.526575088 11.085176468     0.259194929  0.220917577  0.090210562

  position of ions in fractional coordinates (direct lattice)
     0.235507246  0.403975507  0.122982664
     0.735507246  0.903975507  0.377017336
     0.750000000  0.885879566  0.877017336
     0.250000000  0.385879566  0.622982664
     0.235507246  0.283164961  0.352381810
     0.735507246  0.783164961  0.147618190
     0.750000000  0.006690111  0.647618190
     0.250000000  0.506690111  0.852381810

  ion indices of the primitive-cell ions
   primitive index   ion index
                 1           1
                 2           2
                 3           3
                 4           4
                 5           5
                 6           6
                 7           7
                 8           8

----------------------------------------------------------------------------------------

 
 
 KPOINTS: KPOINTS created by Atomic Simulation Env

Automatic generation of k-mesh.
 Grid dimensions read from file:
 generate k-points for:    6    6    2

 Generating k-lattice:

  Cartesian coordinates                     Fractional coordinates (reciprocal lattice)
     0.043199155  0.000000000  0.000000000     0.166666667  0.000000000  0.000000000
     0.000000000  0.036819596  0.000000000     0.000000000  0.166666667  0.000000000
     0.000000000  0.000000000  0.045105281     0.000000000  0.000000000  0.500000000

  Length of vectors
     0.043199155  0.036819596  0.045105281

  Shift w.r.t. Gamma in fractional coordinates (k-lattice)
     0.000000000  0.000000000  0.000000000

 
 Subroutine IBZKPT returns following result:
 ===========================================
 
 Found     40 irreducible k-points:
 
 Following reciprocal coordinates:
            Coordinates               Weight
  0.000000  0.000000  0.000000      1.000000
  0.166667  0.000000  0.000000      2.000000
  0.333333  0.000000  0.000000      2.000000
  0.500000  0.000000  0.000000      1.000000
  0.000000  0.166667  0.000000      2.000000
  0.166667  0.166667  0.000000      2.000000
  0.166667 -0.166667  0.000000      2.000000
  0.333333  0.166667  0.000000      2.000000
  0.333333 -0.166667  0.000000      2.000000
  0.500000  0.166667  0.000000      2.000000
  0.000000  0.333333  0.000000      2.000000
  0.166667  0.333333  0.000000      2.000000
  0.166667 -0.333333  0.000000      2.000000
  0.333333  0.333333  0.000000      2.000000
  0.333333 -0.333333  0.000000      2.000000
  0.500000  0.333333  0.000000      2.000000
  0.000000  0.500000  0.000000      1.000000
  0.166667  0.500000  0.000000      2.000000
  0.333333  0.500000  0.000000      2.000000
  0.500000  0.500000  0.000000      1.000000
  0.000000  0.000000  0.500000      1.000000
  0.166667  0.000000  0.500000      2.000000
  0.333333  0.000000  0.500000      2.000000
  0.500000  0.000000  0.500000      1.000000
  0.000000  0.166667  0.500000      2.000000
  0.166667  0.166667  0.500000      2.000000
  0.166667 -0.166667  0.500000      2.000000
  0.333333  0.166667  0.500000      2.000000
  0.333333 -0.166667  0.500000      2.000000
  0.500000  0.166667  0.500000      2.000000
  0.000000  0.333333  0.500000      2.000000
  0.166667  0.333333  0.500000      2.000000
  0.166667 -0.333333  0.500000      2.000000
  0.333333  0.333333  0.500000      2.000000
  0.333333 -0.333333  0.500000      2.000000
  0.500000  0.333333  0.500000      2.000000
  0.000000  0.500000  0.500000      1.000000
  0.166667  0.500000  0.500000      2.000000
  0.333333  0.500000  0.500000      2.000000
  0.500000  0.500000  0.500000      1.000000
 
 Following cartesian coordinates:
            Coordinates               Weight
  0.000000  0.000000  0.000000      1.000000
  0.043199  0.000000  0.000000      2.000000
  0.086398  0.000000  0.000000      2.000000
  0.129597  0.000000  0.000000      1.000000
  0.000000  0.036820  0.000000      2.000000
  0.043199  0.036820  0.000000      2.000000
  0.043199 -0.036820  0.000000      2.000000
  0.086398  0.036820  0.000000      2.000000
  0.086398 -0.036820  0.000000      2.000000
  0.129597  0.036820  0.000000      2.000000
  0.000000  0.073639  0.000000      2.000000
  0.043199  0.073639  0.000000      2.000000
  0.043199 -0.073639  0.000000      2.000000
  0.086398  0.073639  0.000000      2.000000
  0.086398 -0.073639  0.000000      2.000000
  0.129597  0.073639  0.000000      2.000000
  0.000000  0.110459  0.000000      1.000000
  0.043199  0.110459  0.000000      2.000000
  0.086398  0.110459  0.000000      2.000000
  0.129597  0.110459  0.000000      1.000000
  0.000000  0.000000  0.045105      1.000000
  0.043199  0.000000  0.045105      2.000000
  0.086398  0.000000  0.045105      2.000000
  0.129597  0.000000  0.045105      1.000000
  0.000000  0.036820  0.045105      2.000000
  0.043199  0.036820  0.045105      2.000000
  0.043199 -0.036820  0.045105      2.000000
  0.086398  0.036820  0.045105      2.000000
  0.086398 -0.036820  0.045105      2.000000
  0.129597  0.036820  0.045105      2.000000
  0.000000  0.073639  0.045105      2.000000
  0.043199  0.073639  0.045105      2.000000
  0.043199 -0.073639  0.045105      2.000000
  0.086398  0.073639  0.045105      2.000000
  0.086398 -0.073639  0.045105      2.000000
  0.129597  0.073639  0.045105      2.000000
  0.000000  0.110459  0.045105      1.000000
  0.043199  0.110459  0.045105      2.000000
  0.086398  0.110459  0.045105      2.000000
  0.129597  0.110459  0.045105      1.000000
 


--------------------------------------------------------------------------------------------------------




 Dimension of arrays:
   k-points           NKPTS =     40   k-points in BZ     NKDIM =     40   number of bands    NBANDS=     32
   number of dos      NEDOS =    301   number of ions     NIONS =      8
   non local maximal  LDIM  =      5   non local SUM 2l+1 LMDIM =     13
   total plane-waves  NPLWV =  43008
   max r-space proj   IRMAX =      1   max aug-charges    IRDMAX=  12272
   dimension x,y,z NGX =    24 NGY =   28 NGZ =   64
   dimension x,y,z NGXF=    48 NGYF=   56 NGZF=  128
   support grid    NGXF=    48 NGYF=   56 NGZF=  128
   ions per type =               4   4
   NGX,Y,Z   is equivalent  to a cutoff of  10.34, 10.28,  9.60 a.u.
   NGXF,Y,Z  is equivalent  to a cutoff of  20.68, 20.57, 19.20 a.u.

 SYSTEM =  ./                                      
 POSCAR =  Ge Se                                   

 Startparameter for this run:
   NWRITE =      2    write-flag & timer
   PREC   = normal    normal or accurate (medium, high low for compatibility)
   ISTART =      0    job   : 0-new  1-cont  2-samecut
   ICHARG =      2    charge: 1-file 2-atom 10-const
   ISPIN  =      1    spin polarized calculation?
   LNONCOLLINEAR =      F non collinear calculations
   LSORBIT =      F    spin-orbit coupling
   INIWAV =      1    electr: 0-lowe 1-rand  2-diag
   LASPH  =      T    aspherical Exc in radial PAW
 Electronic Relaxation 1
   ENCUT  =  520.0 eV  38.22 Ry    6.18 a.u.   7.17  8.42 20.61*2*pi/ulx,y,z
   ENINI  =  520.0     initial cutoff
   ENAUG  =  446.8 eV  augmentation charge cutoff
   NELM   =    100;   NELMIN=  2; NELMDL= -5     # of ELM steps 
   EDIFF  = 0.1E-05   stopping-criterion for ELM
   LREAL  =      F    real-space projection
   NLSPLINE    = F    spline interpolate recip. space projectors
   LCOMPAT=      F    compatible to vasp.4.4
   GGA_COMPAT  = T    GGA compatible to vasp.4.4-vasp.4.6
   LMAXPAW     = -100 max onsite density
   LMAXMIX     =    4 max onsite mixed and CHGCAR
   VOSKOWN=      0    Vosko Wilk Nusair interpolation
   ROPT   =    0.00000   0.00000
 Ionic relaxation
   EDIFFG = 0.1E-04   stopping-criterion for IOM
   NSW    =      0    number of steps for IOM
   NBLOCK =      1;   KBLOCK =      1    inner block; outer block 
   IBRION =     -1    ionic relax: 0-MD 1-quasi-New 2-CG
   NFREE  =      0    steps in history (QN), initial steepest desc. (CG)
   ISIF   =      2    stress and relaxation
   IWAVPR =     10    prediction:  0-non 1-charg 2-wave 3-comb
   ISYM   =      0    0-nonsym 1-usesym 2-fastsym
   LCORR  =      T    Harris-Foulkes like correction to forces

   POTIM  = 0.5000    time-step for ionic-motion
   TEIN   =    0.0    initial temperature
   TEBEG  =    0.0;   TEEND  =   0.0 temperature during run
   SMASS  =  -3.00    Nose mass-parameter (am)
   estimated Nose-frequenzy (Omega)   =  0.10E-29 period in steps = 0.13E+47 mass=  -0.340E-27a.u.
   SCALEE = 1.0000    scale energy and forces
   NPACO  =    256;   APACO  = 10.0  distance and # of slots for P.C.
   PSTRESS=    0.0 pullay stress

  Mass of Ions in am
   POMASS =  72.61 78.96
  Ionic Valenz
   ZVAL   =   4.00  6.00
  Atomic Wigner-Seitz radii
   RWIGS  =  -1.00 -1.00
  virtual crystal weights 
   VCA    =   1.00  1.00
   NELECT =      40.0000    total number of electrons
   NUPDOWN=      -1.0000    fix difference up-down

 DOS related values:
   EMIN   =  10.00;   EMAX   =-10.00  energy-range for DOS
   EFERMI =   0.00;   METHOD = LEGACY      
   ISMEAR =     0;   SIGMA  =   0.05  broadening in eV -4-tet -1-fermi 0-gaus

 Electronic relaxation 2 (details)
   IALGO  =     38    algorithm
   LDIAG  =      T    sub-space diagonalisation (order eigenvalues)
   LSUBROT=      F    optimize rotation matrix (better conditioning)
   TURBO    =      0    0=normal 1=particle mesh
   IRESTART =      0    0=no restart 2=restart with 2 vectors
   NREBOOT  =      0    no. of reboots
   NMIN     =      0    reboot dimension
   EREF     =   0.00    reference energy to select bands
   IMIX   =      4    mixing-type and parameters
     AMIX     =   0.40;   BMIX     =  1.00
     AMIX_MAG =   1.60;   BMIX_MAG =  1.00
     AMIN     =   0.10
     WC   =   100.;   INIMIX=   1;  MIXPRE=   1;  MAXMIX= -45

 Intra band minimization:
   WEIMIN = 0.0000     energy-eigenvalue tresh-hold
   EBREAK =  0.78E-08  absolut break condition
   DEPER  =   0.30     relativ break condition  

   TIME   =   0.40     timestep for ELM

  volume/ion in A,a.u.               =      24.20       163.30
  Fermi-wavevector in a.u.,A,eV,Ry     =   0.967831  1.828935 12.744535  0.936697
  Thomas-Fermi vector in A             =   2.097750
 
 Write flags
   LWAVE        =      F    write WAVECAR
   LDOWNSAMPLE  =      F    k-point downsampling of WAVECAR
   LCHARG       =      F    write CHGCAR
   LVTOT        =      F    write LOCPOT, total local potential
   LVHAR        =      F    write LOCPOT, Hartree potential only
   LELF         =      F    write electronic localiz. function (ELF)
   LORBIT       =      0    0 simple, 1 ext, 2 COOP (PROOUT), +10 PAW based schemes


 Dipole corrections
   LMONO  =      F    monopole corrections only (constant potential shift)
   LDIPOL =      F    correct potential (dipole corrections)
   IDIPOL =      0    1-x, 2-y, 3-z, 4-all directions 
   EPSILON=  1.0000000 bulk dielectric constant

 Exchange correlation treatment:
   GGA     =    PE    GGA type
   LEXCH   =     8    internal setting for exchange type
   LIBXC   =     F    Libxc                    
   VOSKOWN =     0    Vosko Wilk Nusair interpolation
   LHFCALC =     F    Hartree Fock is set to
   LHFONE  =     F    Hartree Fock one center treatment
   AEXX    =    0.0000 exact exchange contribution

 Linear response parameters
   LEPSILON=     F    determine dielectric tensor
   LRPA    =     F    only Hartree local field effects (RPA)
   LNABLA  =     F    use nabla operator in PAW spheres
   LVEL    =     F    velocity operator in full k-point grid
   CSHIFT  =0.1000    complex shift for real part using Kramers Kronig
   OMEGAMAX=  -1.0    maximum frequency
   DEG_THRESHOLD= 0.2000000E-02 threshold for treating states as degnerate
   RTIME   =   -0.100 relaxation time in fs
  (WPLASMAI=    0.000 imaginary part of plasma frequency in eV, 0.658/RTIME)
   DFIELD  = 0.0000000 0.0000000 0.0000000 field for delta impulse in time
 
  Optional k-point grid parameters
   LKPOINTS_OPT  =     F    use optional k-point grid
   KPOINTS_OPT_MODE=     1    mode for optional k-point grid
 
 Orbital magnetization related:
   ORBITALMAG=     F  switch on orbital magnetization
   LCHIMAG   =     F  perturbation theory with respect to B field
   DQ        =  0.001000  dq finite difference perturbation B field
   LLRAUG    =     F  two centre corrections for induced B field
   LBONE     =     F  B-component reconstruction in AE one-centre
   LVGVCALC  =     T  calculate vGv susceptibility
   LVGVAPPL  =     F  apply vGv susceptibility instead of pGv for G=0

 Random number generation:
   RANDOM_GENERATOR = DEFAULT
   PCG_SEED         = not used


--------------------------------------------------------------------------------------------------------


 Static calculation
 charge density and potential will be updated during run
 non-spin polarized calculation
 Variant of blocked Davidson
 Davidson routine will perform the subspace rotation
 perform sub-space diagonalisation
    after iterative eigenvector-optimisation
 modified Broyden-mixing scheme, WC =      100.0
 initial mixing is a Kerker type mixing with AMIX =  0.4000 and BMIX =      1.0000
 Hartree-type preconditioning will be used
 using additional bands            12
 reciprocal scheme for non local part
 use partial core corrections
 calculate Harris-corrections to forces 
   (improved forces if not selfconsistent)
 use gradient corrections 
 use of overlap-Matrix (Vanderbilt PP)
 Gauss-broadening in eV      SIGMA  =   0.05


--------------------------------------------------------------------------------------------------------


  energy-cutoff  :      520.00
  volume of cell :      193.59
      direct lattice vectors                 reciprocal lattice vectors
     3.858100176  0.000000000  0.000000000     0.259194929  0.000000000  0.000000000
     0.000000000  4.526575088  0.000000000     0.000000000  0.220917577  0.000000000
     0.000000000  0.000000000 11.085176468     0.000000000  0.000000000  0.090210562

  length of vectors
     3.858100176  4.526575088 11.085176468     0.259194929  0.220917577  0.090210562


 
 k-points in units of 2pi/SCALE and weight: KPOINTS created by Atomic Simulation Env
   0.00000000  0.00000000  0.00000000       0.014
   0.04319915  0.00000000  0.00000000       0.028
   0.08639831  0.00000000  0.00000000       0.028
   0.12959746  0.00000000  0.00000000       0.014
   0.00000000  0.03681960  0.00000000       0.028
   0.04319915  0.03681960  0.00000000       0.028
   0.04319915 -0.03681960  0.00000000       0.028
   0.08639831  0.03681960  0.00000000       0.028
   0.08639831 -0.03681960  0.00000000       0.028
   0.12959746  0.03681960  0.00000000       0.028
   0.00000000  0.07363919  0.00000000       0.028
   0.04319915  0.07363919  0.00000000       0.028
   0.04319915 -0.07363919  0.00000000       0.028
   0.08639831  0.07363919  0.00000000       0.028
   0.08639831 -0.07363919  0.00000000       0.028
   0.12959746  0.07363919  0.00000000       0.028
   0.00000000  0.11045879  0.00000000       0.014
   0.04319915  0.11045879  0.00000000       0.028
   0.08639831  0.11045879  0.00000000       0.028
   0.12959746  0.11045879  0.00000000       0.014
   0.00000000  0.00000000  0.04510528       0.014
   0.04319915  0.00000000  0.04510528       0.028
   0.08639831  0.00000000  0.04510528       0.028
   0.12959746  0.00000000  0.04510528       0.014
   0.00000000  0.03681960  0.04510528       0.028
   0.04319915  0.03681960  0.04510528       0.028
   0.04319915 -0.03681960  0.04510528       0.028
   0.08639831  0.03681960  0.04510528       0.028
   0.08639831 -0.03681960  0.04510528       0.028
   0.12959746  0.03681960  0.04510528       0.028
   0.00000000  0.07363919  0.04510528       0.028
   0.04319915  0.07363919  0.04510528       0.028
   0.04319915 -0.07363919  0.04510528       0.028
   0.08639831  0.07363919  0.04510528       0.028
   0.08639831 -0.07363919  0.04510528       0.028
   0.12959746  0.07363919  0.04510528       0.028
   0.00000000  0.11045879  0.04510528       0.014
   0.04319915  0.11045879  0.04510528       0.028
   0.08639831  0.11045879  0.04510528       0.028
   0.12959746  0.11045879  0.04510528       0.014
 
 k-points in reciprocal lattice and weights: KPOINTS created by Atomic Simulation Env
   0.00000000  0.00000000  0.00000000       0.014
   0.16666667  0.00000000  0.00000000       0.028
   0.33333333  0.00000000  0.00000000       0.028
   0.50000000  0.00000000  0.00000000       0.014
   0.00000000  0.16666667  0.00000000       0.028
   0.16666667  0.16666667  0.00000000       0.028
   0.16666667 -0.16666667  0.00000000       0.028
   0.33333333  0.16666667  0.00000000       0.028
   0.33333333 -0.16666667  0.00000000       0.028
   0.50000000  0.16666667  0.00000000       0.028
   0.00000000  0.33333333  0.00000000       0.028
   0.16666667  0.33333333  0.00000000       0.028
   0.16666667 -0.33333333  0.00000000       0.028
   0.33333333  0.33333333  0.00000000       0.028
   0.33333333 -0.33333333  0.00000000       0.028
   0.50000000  0.33333333  0.00000000       0.028
   0.00000000  0.50000000  0.00000000       0.014
   0.16666667  0.50000000  0.00000000       0.028
   0.33333333  0.50000000  0.00000000       0.028
   0.50000000  0.50000000  0.00000000       0.014
   0.00000000  0.00000000  0.50000000       0.014
   0.16666667  0.00000000  0.50000000       0.028
   0.33333333  0.00000000  0.50000000       0.028
   0.50000000  0.00000000  0.50000000       0.014
   0.00000000  0.16666667  0.50000000       0.028
   0.16666667  0.16666667  0.50000000       0.028
   0.16666667 -0.16666667  0.50000000       0.028
   0.33333333  0.16666667  0.50000000       0.028
   0.33333333 -0.16666667  0.50000000       0.028
   0.50000000  0.16666667  0.50000000       0.028
   0.00000000  0.33333333  0.50000000       0.028
   0.16666667  0.33333333  0.50000000       0.028
   0.16666667 -0.33333333  0.50000000       0.028
   0.33333333  0.33333333  0.50000000       0.028
   0.33333333 -0.33333333  0.50000000       0.028
   0.50000000  0.33333333  0.50000000       0.028
   0.00000000  0.50000000  0.50000000       0.014
   0.16666667  0.50000000  0.50000000       0.028
   0.33333333  0.50000000  0.50000000       0.028
   0.50000000  0.50000000  0.50000000       0.014
 
 position of ions in fractional coordinates (direct lattice) 
   0.23550725  0.40397551  0.12298266
   0.73550725  0.90397551  0.37701734
   0.75000000  0.88587957  0.87701734
   0.25000000  0.38587957  0.62298266
   0.23550725  0.28316496  0.35238181
   0.73550725  0.78316496  0.14761819
   0.75000000  0.00669011  0.64761819
   0.25000000  0.50669011  0.85238181
 
 position of ions in cartesian coordinates  (Angst):
   0.90861055  1.82862547  1.36328454
   2.83766064  4.09191301  4.17930370
   2.89357513  4.01000037  9.72189193
   0.96452504  1.74671283  6.90587277
   0.90861055  1.28176746  3.90621455
   2.83766064  3.54505500  1.63637368
   2.89357513  0.03028329  7.17896192
   0.96452504  2.29357083  9.44880278
 


--------------------------------------------------------------------------------------------------------


 k-point   1 :   0.0000 0.0000 0.0000  plane waves:    5211
 k-point   2 :   0.1667 0.0000 0.0000  plane waves:    5225
 k-point   3 :   0.3333 0.0000 0.0000  plane waves:    5224
 k-point   4 :   0.5000 0.0000 0.0000  plane waves:    5258
 k-point   5 :   0.0000 0.1667 0.0000  plane waves:    5209
 k-point   6 :   0.1667 0.1667 0.0000  plane waves:    5201
 k-point   7 :   0.1667-0.1667 0.0000  plane waves:    5201
 k-point   8 :   0.3333 0.1667 0.0000  plane waves:    5230
 k-point   9 :   0.3333-0.1667 0.0000  plane waves:    5230
 k-point  10 :   0.5000 0.1667 0.0000  plane waves:    5236
 k-point  11 :   0.0000 0.3333 0.0000  plane waves:    5213
 k-point  12 :   0.1667 0.3333 0.0000  plane waves:    5199
 k-point  13 :   0.1667-0.3333 0.0000  plane waves:    5199
 k-point  14 :   0.3333 0.3333 0.0000  plane waves:    5211
 k-point  15 :   0.3333-0.3333 0.0000  plane waves:    5211
 k-point  16 :   0.5000 0.3333 0.0000  plane waves:    5230
 k-point  17 :   0.0000 0.5000 0.0000  plane waves:    5220
 k-point  18 :   0.1667 0.5000 0.0000  plane waves:    5208
 k-point  19 :   0.3333 0.5000 0.0000  plane waves:    5230
 k-point  20 :   0.5000 0.5000 0.0000  plane waves:    5180
 k-point  21 :   0.0000 0.0000 0.5000  plane waves:    5210
 k-point  22 :   0.1667 0.0000 0.5000  plane waves:    5178
 k-point  23 :   0.3333 0.0000 0.5000  plane waves:    5214
 k-point  24 :   0.5000 0.0000 0.5000  plane waves:    5232
 k-point  25 :   0.0000 0.1667 0.5000  plane waves:    5224
 k-point  26 :   0.1667 0.1667 0.5000  plane waves:    5210
 k-point  27 :   0.1667-0.1667 0.5000  plane waves:    5210
 k-point  28 :   0.3333 0.1667 0.5000  plane waves:    5196
 k-point  29 :   0.3333-0.1667 0.5000  plane waves:    5196
 k-point  30 :   0.5000 0.1667 0.5000  plane waves:    5224
 k-point  31 :   0.0000 0.3333 0.5000  plane waves:    5202
 k-point  32 :   0.1667 0.3333 0.5000  plane waves:    5214
 k-point  33 :   0.1667-0.3333 0.5000  plane waves:    5214
 k-point  34 :   0.3333 0.3333 0.5000  plane waves:    5216
 k-point  35 :   0.3333-0.3333 0.5000  plane waves:    5216
 k-point  36 :   0.5000 0.3333 0.5000  plane waves:    5216
 k-point  37 :   0.0000 0.5000 0.5000  plane waves:    5212
 k-point  38 :   0.1667 0.5000 0.5000  plane waves:    5192
 k-point  39 :   0.3333 0.5000 0.5000  plane waves:    5208
 k-point  40 :   0.5000 0.5000 0.5000  plane waves:    5208

 maximum and minimum number of plane-waves per node :      1076     1017

 maximum number of plane-waves:      5258
 maximum index in each direction: 
   IXMAX=    7   IYMAX=    8   IZMAX=   20
   IXMIN=   -7   IYMIN=   -8   IZMIN=  -21


 parallel 3D FFT for wavefunctions:
    minimum data exchange during FFTs selected (reduces bandwidth)
 parallel 3D FFT for charge:
    minimum data exchange during FFTs selected (reduces bandwidth)


 total amount of memory used by VASP MPI-rank0    41770. kBytes
=======================================================================

   base      :      30000. kBytes
   nonl-proj :       9056. kBytes
   fftplans  :        519. kBytes
   grid      :        766. kBytes
   one-center:         16. kBytes
   wavefun   :       1413. kBytes
 
     INWAV:  cpu time      0.0000: real time      0.0001
 Broyden mixing: mesh for mixing (old mesh)
   NGX = 15   NGY = 17   NGZ = 41
  (NGX  = 48   NGY  = 56   NGZ  =128)
  gives a total of  10455 points

 initial charge density was supplied:
 charge density of overlapping atoms calculated
 number of electron      40.0000000 magnetization 
 keeping initial charge density in first step


--------------------------------------------------------------------------------------------------------


 Maximum index for augmentation-charges           238 (set IRDMAX)


--------------------------------------------------------------------------------------------------------


 First call to EWALD:  gamma=   0.306
 Maximum number of real-space cells 4x 3x 2
 Maximum number of reciprocal cells 2x 2x 5

    FEWALD:  cpu time      0.0011: real time      0.0011


--------------------------------------- Ionic step        1  -------------------------------------------




--------------------------------------- Iteration      1(   1)  ---------------------------------------


    POTLOK:  cpu time      0.0108: real time      0.0109
    SETDIJ:  cpu time      0.2177: real time      0.2182
     EDDAV:  cpu time      0.3456: real time      0.3473
       DOS:  cpu time      0.0011: real time      0.0011
    --------------------------------------------
      LOOP:  cpu time      0.5752: real time      0.5776

 eigenvalue-minimisations  :  2560
 total energy-change (2. order) : 0.1640151E+03  (-0.1590235E+04)
 number of electron      40.0000000 magnetization 
 augmentation part       40.0000000 magnetization 

 Free energy of the ion-electron system (eV)
  ---------------------------------------------------
  alpha Z        PSCENC =        87.52689448
  Ewald energy   TEWEN  =     -1412.10636004
  -Hartree energ DENC   =      -133.81439255
  -exchange      EXHF   =         0.00000000
  -V(xc)+E(xc)   XCENC  =       -33.21836224
  PAW double counting   =      1193.78262552    -1080.73714043
  entropy T*S    EENTRO =        -0.00492614
  eigenvalues    EBANDS =        94.09219942
  atomic energy  EATOM  =      1448.49460871
  Solvation  Ediel_sol  =         0.00000000
  ---------------------------------------------------
  free energy    TOTEN  =       164.01514673 eV

  energy without entropy =      164.02007287  energy(sigma->0) =      164.01760980


--------------------------------------------------------------------------------------------------------




--------------------------------------- Iteration      1(   2)  ---------------------------------------


     EDDAV:  cpu time      0.4722: real time      0.4755
       DOS:  cpu time      0.0005: real time      0.0005
    --------------------------------------------
      LOOP:  cpu time      0.4728: real time      0.4761

 eigenvalue-minimisations  :  3632
 total energy-change (2. order) :-0.1861458E+03  (-0.1805917E+03)
 number of electron      40.0000000 magnetization 
 augmentation part       40.0000000 magnetization 

 Free energy of the ion-electron system (eV)
  ---------------------------------------------------
  alpha Z        PSCENC =        87.52689448
  Ewald energy   TEWEN  =     -1412.10636004
  -Hartree energ DENC   =      -133.81439255
  -exchange      EXHF   =         0.00000000
  -V(xc)+E(xc)   XCENC  =       -33.21836224
  PAW double counting   =      1193.78262552    -1080.73714043
  entropy T*S    EENTRO =        -0.00000000
  eigenvalues    EBANDS =       -92.05854107
  atomic energy  EATOM  =      1448.49460871
  Solvation  Ediel_sol  =         0.00000000
  ---------------------------------------------------
  free energy    TOTEN  =       -22.13066761 eV

  energy without entropy =      -22.13066761  energy(sigma->0) =      -22.13066761


--------------------------------------------------------------------------------------------------------




--------------------------------------- Iteration      1(   3)  ---------------------------------------


     EDDAV:  cpu time      0.5272: real time      0.5294
       DOS:  cpu time      0.0005: real time      0.0005
    --------------------------------------------
      LOOP:  cpu time      0.5277: real time      0.5300

 eigenvalue-minimisations  :  3440
 total energy-change (2. order) :-0.1162842E+02  (-0.1159416E+02)
 number of electron      40.0000000 magnetization 
 augmentation part       40.0000000 magnetization 

 Free energy of the ion-electron system (eV)
  ---------------------------------------------------
  alpha Z        PSCENC =        87.52689448
  Ewald energy   TEWEN  =     -1412.10636004
  -Hartree energ DENC   =      -133.81439255
  -exchange      EXHF   =         0.00000000
  -V(xc)+E(xc)   XCENC  =       -33.21836224
  PAW double counting   =      1193.78262552    -1080.73714043
  entropy T*S    EENTRO =        -0.00000000
  eigenvalues    EBANDS =      -103.68696066
  atomic energy  EATOM  =      1448.49460871
  Solvation  Ediel_sol  =         0.00000000
  ---------------------------------------------------
  free energy    TOTEN  =       -33.75908721 eV

  energy without entropy =      -33.75908721  energy(sigma->0) =      -33.75908721


--------------------------------------------------------------------------------------------------------




--------------------------------------- Iteration      1(   4)  ---------------------------------------


     EDDAV:  cpu time      0.4136: real time      0.4156
       DOS:  cpu time      0.0005: real time      0.0005
    --------------------------------------------
      LOOP:  cpu time      0.4141: real time      0.4162

 eigenvalue-minimisations  :  3152
 total energy-change (2. order) :-0.9033412E-01  (-0.9032210E-01)
 number of electron      40.0000000 magnetization 
 augmentation part       40.0000000 magnetization 

 Free energy of the ion-electron system (eV)
  ---------------------------------------------------
  alpha Z        PSCENC =        87.52689448
  Ewald energy   TEWEN  =     -1412.10636004
  -Hartree energ DENC   =      -133.81439255
  -exchange      EXHF   =         0.00000000
  -V(xc)+E(xc)   XCENC  =       -33.21836224
  PAW double counting   =      1193.78262552    -1080.73714043
  entropy T*S    EENTRO =        -0.00000000
  eigenvalues    EBANDS =      -103.77729478
  atomic energy  EATOM  =      1448.49460871
  Solvation  Ediel_sol  =         0.00000000
  ---------------------------------------------------
  free energy    TOTEN  =       -33.84942133 eV

  energy without entropy =      -33.84942133  energy(sigma->0) =      -33.84942133


--------------------------------------------------------------------------------------------------------




--------------------------------------- Iteration      1(   5)  ---------------------------------------


     EDDAV:  cpu time      0.4516: real time      0.4540
       DOS:  cpu time      0.0032: real time      0.0032
    CHARGE:  cpu time      0.0154: real time      0.0154
    MIXING:  cpu time      0.0008: real time      0.0008
    --------------------------------------------
      LOOP:  cpu time      0.4710: real time      0.4734

 eigenvalue-minimisations  :  3424
 total energy-change (2. order) :-0.6030311E-03  (-0.6030224E-03)
 number of electron      39.9999998 magnetization 
 augmentation part       -7.4563727 magnetization 

 Broyden mixing:
  rms(total) = 0.65755E+00    rms(broyden)= 0.65755E+00
  rms(prec ) = 0.74073E+00
  weight for this iteration     100.00

 Free energy of the ion-electron system (eV)
  ---------------------------------------------------
  alpha Z        PSCENC =        87.52689448
  Ewald energy   TEWEN  =     -1412.10636004
  -Hartree energ DENC   =      -133.81439255
  -exchange      EXHF   =         0.00000000
  -V(xc)+E(xc)   XCENC  =       -33.21836224
  PAW double counting   =      1193.78262552    -1080.73714043
  entropy T*S    EENTRO =        -0.00000000
  eigenvalues    EBANDS =      -103.77789781
  atomic energy  EATOM  =      1448.49460871
  Solvation  Ediel_sol  =         0.00000000
  ---------------------------------------------------
  free energy    TOTEN  =       -33.85002436 eV

  energy without entropy =      -33.85002436  energy(sigma->0) =      -33.85002436


--------------------------------------------------------------------------------------------------------




--------------------------------------- Iteration      1(   6)  ---------------------------------------


    POTLOK:  cpu time      0.0103: real time      0.0105
    SETDIJ:  cpu time      0.2183: real time      0.2191
     EDDAV:  cpu time      0.4399: real time      0.4423
       DOS:  cpu time      0.0005: real time      0.0005
    CHARGE:  cpu time      0.0085: real time      0.0086
    MIXING:  cpu time      0.0006: real time      0.0006
    --------------------------------------------
      LOOP:  cpu time      0.6782: real time      0.6815

 eigenvalue-minimisations  :  3072
 total energy-change (2. order) : 0.3993324E+00  (-0.7831989E-01)
 number of electron      39.9999998 magnetization 
 augmentation part       -7.3958790 magnetization 

 Broyden mixing:
  rms(total) = 0.41036E+00    rms(broyden)= 0.41036E+00
  rms(prec ) = 0.43113E+00
  weight for this iteration     100.00

 eigenvalues of (default mixing * dielectric matrix)
  average eigenvalue GAMMA=   2.2064
  2.2064

 Free energy of the ion-electron system (eV)
  ---------------------------------------------------
  alpha Z        PSCENC =        87.52689448
  Ewald energy   TEWEN  =     -1412.10636004
  -Hartree energ DENC   =      -140.12426951
  -exchange      EXHF   =         0.00000000
  -V(xc)+E(xc)   XCENC  =       -32.60641975
  PAW double counting   =      1463.58441137    -1350.87050290
  entropy T*S    EENTRO =        -0.00000000
  eigenvalues    EBANDS =       -97.34905433
  atomic energy  EATOM  =      1448.49460871
  Solvation  Ediel_sol  =         0.00000000
  ---------------------------------------------------
  free energy    TOTEN  =       -33.45069197 eV

  energy without entropy =      -33.45069197  energy(sigma->0) =      -33.45069197


--------------------------------------------------------------------------------------------------------




--------------------------------------- Iteration      1(   7)  ---------------------------------------


    POTLOK:  cpu time      0.0099: real time      0.0101
    SETDIJ:  cpu time      0.2167: real time      0.2171
     EDDAV:  cpu time      0.4441: real time      0.4464
       DOS:  cpu time      0.0006: real time      0.0006
    CHARGE:  cpu time      0.0088: real time      0.0089
    MIXING:  cpu time      0.0007: real time      0.0007
    --------------------------------------------
      LOOP:  cpu time      0.6807: real time      0.6837

 eigenvalue-minimisations  :  3184
 total energy-change (2. order) : 0.7160208E-02  (-0.2563671E-01)
 number of electron      39.9999998 magnetization 
 augmentation part       -7.3746286 magnetization 

 Broyden mixing:
  rms(total) = 0.12988E+00    rms(broyden)= 0.12988E+00
  rms(prec ) = 0.13882E+00
  weight for this iteration     100.00

 eigenvalues of (default mixing * dielectric matrix)
  average eigenvalue GAMMA=   1.8406
  1.2611  2.4200

 Free energy of the ion-electron system (eV)
  ---------------------------------------------------
  alpha Z        PSCENC =        87.52689448
  Ewald energy   TEWEN  =     -1412.10636004
  -Hartree energ DENC   =      -143.32747803
  -exchange      EXHF   =         0.00000000
  -V(xc)+E(xc)   XCENC  =       -32.11408892
  PAW double counting   =      1806.98190790    -1694.52736261
  entropy T*S    EENTRO =        -0.00000000
  eigenvalues    EBANDS =       -94.37165324
  atomic energy  EATOM  =      1448.49460871
  Solvation  Ediel_sol  =         0.00000000
  ---------------------------------------------------
  free energy    TOTEN  =       -33.44353176 eV

  energy without entropy =      -33.44353176  energy(sigma->0) =      -33.44353176


--------------------------------------------------------------------------------------------------------




--------------------------------------- Iteration      1(   8)  ---------------------------------------


    POTLOK:  cpu time      0.0101: real time      0.0103
    SETDIJ:  cpu time      0.2172: real time      0.2178
     EDDAV:  cpu time      0.3859: real time      0.3879
       DOS:  cpu time      0.0006: real time      0.0006
    CHARGE:  cpu time      0.0086: real time      0.0086
    MIXING:  cpu time      0.0008: real time      0.0008
    --------------------------------------------
      LOOP:  cpu time      0.6232: real time      0.6259

 eigenvalue-minimisations  :  2784
 total energy-change (2. order) : 0.1430079E-02  (-0.2981232E-02)
 number of electron      39.9999998 magnetization 
 augmentation part       -7.3856302 magnetization 

 Broyden mixing:
  rms(total) = 0.16663E-01    rms(broyden)= 0.16663E-01
  rms(prec ) = 0.21118E-01
  weight for this iteration     100.00

 eigenvalues of (default mixing * dielectric matrix)
  average eigenvalue GAMMA=   1.7080
  2.4887  1.3177  1.3177

 Free energy of the ion-electron system (eV)
  ---------------------------------------------------
  alpha Z        PSCENC =        87.52689448
  Ewald energy   TEWEN  =     -1412.10636004
  -Hartree energ DENC   =      -143.28552933
  -exchange      EXHF   =         0.00000000
  -V(xc)+E(xc)   XCENC  =       -31.99121926
  PAW double counting   =      1947.46718211    -1835.06922471
  entropy T*S    EENTRO =        -0.00000000
  eigenvalues    EBANDS =       -94.47845364
  atomic energy  EATOM  =      1448.49460871
  Solvation  Ediel_sol  =         0.00000000
  ---------------------------------------------------
  free energy    TOTEN  =       -33.44210168 eV

  energy without entropy =      -33.44210168  energy(sigma->0) =      -33.44210168


--------------------------------------------------------------------------------------------------------




--------------------------------------- Iteration      1(   9)  ---------------------------------------


    POTLOK:  cpu time      0.0101: real time      0.0103
    SETDIJ:  cpu time      0.2167: real time      0.2171
     EDDAV:  cpu time      0.4092: real time      0.4119
       DOS:  cpu time      0.0005: real time      0.0005
    CHARGE:  cpu time      0.0086: real time      0.0086
    MIXING:  cpu time      0.0007: real time      0.0007
    --------------------------------------------
      LOOP:  cpu time      0.6458: real time      0.6492

 eigenvalue-minimisations  :  3120
 total energy-change (2. order) :-0.3083721E-03  (-0.3812096E-03)
 number of electron      39.9999998 magnetization 
 augmentation part       -7.3830343 magnetization 

 Broyden mixing:
  rms(total) = 0.63388E-02    rms(broyden)= 0.63388E-02
  rms(prec ) = 0.74656E-02
  weight for this iteration     100.00

 eigenvalues of (default mixing * dielectric matrix)
  average eigenvalue GAMMA=   1.7285
  2.2657  2.2657  1.1914  1.1914

 Free energy of the ion-electron system (eV)
  ---------------------------------------------------
  alpha Z        PSCENC =        87.52689448
  Ewald energy   TEWEN  =     -1412.10636004
  -Hartree energ DENC   =      -143.71169270
  -exchange      EXHF   =         0.00000000
  -V(xc)+E(xc)   XCENC  =       -31.95209667
  PAW double counting   =      1956.21020848    -1843.82113506
  entropy T*S    EENTRO =        -0.00000000
  eigenvalues    EBANDS =       -94.08283725
  atomic energy  EATOM  =      1448.49460871
  Solvation  Ediel_sol  =         0.00000000
  ---------------------------------------------------
  free energy    TOTEN  =       -33.44241006 eV

  energy without entropy =      -33.44241006  energy(sigma->0) =      -33.44241006


--------------------------------------------------------------------------------------------------------




--------------------------------------- Iteration      1(  10)  ---------------------------------------


    POTLOK:  cpu time      0.0099: real time      0.0100
    SETDIJ:  cpu time      0.2165: real time      0.2169
     EDDAV:  cpu time      0.4203: real time      0.4227
       DOS:  cpu time      0.0005: real time      0.0005
    CHARGE:  cpu time      0.0082: real time      0.0082
    MIXING:  cpu time      0.0006: real time      0.0006
    --------------------------------------------
      LOOP:  cpu time      0.6560: real time      0.6590

 eigenvalue-minimisations  :  3072
 total energy-change (2. order) :-0.1701370E-03  (-0.3402008E-04)
 number of electron      39.9999998 magnetization 
 augmentation part       -7.3829643 magnetization 

 Broyden mixing:
  rms(total) = 0.23577E-02    rms(broyden)= 0.23577E-02
  rms(prec ) = 0.29096E-02
  weight for this iteration     100.00

 eigenvalues of (default mixing * dielectric matrix)
  average eigenvalue GAMMA=   1.7734
  2.6460  2.6460  1.1299  1.2226  1.2226

 Free energy of the ion-electron system (eV)
  ---------------------------------------------------
  alpha Z        PSCENC =        87.52689448
  Ewald energy   TEWEN  =     -1412.10636004
  -Hartree energ DENC   =      -143.76219914
  -exchange      EXHF   =         0.00000000
  -V(xc)+E(xc)   XCENC  =       -31.94599711
  PAW double counting   =      1951.20053633    -1838.80685026
  entropy T*S    EENTRO =        -0.00000000
  eigenvalues    EBANDS =       -94.04321316
  atomic energy  EATOM  =      1448.49460871
  Solvation  Ediel_sol  =         0.00000000
  ---------------------------------------------------
  free energy    TOTEN  =       -33.44258019 eV

  energy without entropy =      -33.44258019  energy(sigma->0) =      -33.44258019


--------------------------------------------------------------------------------------------------------




--------------------------------------- Iteration      1(  11)  ---------------------------------------


    POTLOK:  cpu time      0.0098: real time      0.0101
    SETDIJ:  cpu time      0.2167: real time      0.2175
     EDDAV:  cpu time      0.4631: real time      0.4652
       DOS:  cpu time      0.0005: real time      0.0005
    CHARGE:  cpu time      0.0087: real time      0.0089
    MIXING:  cpu time      0.0008: real time      0.0008
    --------------------------------------------
      LOOP:  cpu time      0.6998: real time      0.7031

 eigenvalue-minimisations  :  3056
 total energy-change (2. order) :-0.4594225E-04  (-0.5432376E-05)
 number of electron      39.9999998 magnetization 
 augmentation part       -7.3831075 magnetization 

 Broyden mixing:
  rms(total) = 0.11641E-02    rms(broyden)= 0.11641E-02
  rms(prec ) = 0.13642E-02
  weight for this iteration     100.00

 eigenvalues of (default mixing * dielectric matrix)
  average eigenvalue GAMMA=   1.7825
  2.5735  2.5735  2.2199  0.9621  1.1830  1.1830

 Free energy of the ion-electron system (eV)
  ---------------------------------------------------
  alpha Z        PSCENC =        87.52689448
  Ewald energy   TEWEN  =     -1412.10636004
  -Hartree energ DENC   =      -143.79609491
  -exchange      EXHF   =         0.00000000
  -V(xc)+E(xc)   XCENC  =       -31.93989708
  PAW double counting   =      1951.69858167    -1839.30443933
  entropy T*S    EENTRO =        -0.00000000
  eigenvalues    EBANDS =       -94.01591963
  atomic energy  EATOM  =      1448.49460871
  Solvation  Ediel_sol  =         0.00000000
  ---------------------------------------------------
  free energy    TOTEN  =       -33.44262613 eV

  energy without entropy =      -33.44262613  energy(sigma->0) =      -33.44262613


--------------------------------------------------------------------------------------------------------




--------------------------------------- Iteration      1(  12)  ---------------------------------------


    POTLOK:  cpu time      0.0101: real time      0.0102
    SETDIJ:  cpu time      0.2178: real time      0.2183
     EDDAV:  cpu time      0.4482: real time      0.4504
       DOS:  cpu time      0.0005: real time      0.0005
    CHARGE:  cpu time      0.0086: real time      0.0086
    MIXING:  cpu time      0.0008: real time      0.0008
    --------------------------------------------
      LOOP:  cpu time      0.6860: real time      0.6888

 eigenvalue-minimisations  :  3408
 total energy-change (2. order) :-0.3130767E-05  (-0.9640059E-06)
 number of electron      39.9999998 magnetization 
 augmentation part       -7.3830185 magnetization 

 Broyden mixing:
  rms(total) = 0.24494E-03    rms(broyden)= 0.24494E-03
  rms(prec ) = 0.31745E-03
  weight for this iteration     100.00

 eigenvalues of (default mixing * dielectric matrix)
  average eigenvalue GAMMA=   1.7253
  3.0089  2.3773  2.1194  1.2487  1.0565  1.1330  1.1330

 Free energy of the ion-electron system (eV)
  ---------------------------------------------------
  alpha Z        PSCENC =        87.52689448
  Ewald energy   TEWEN  =     -1412.10636004
  -Hartree energ DENC   =      -143.81251570
  -exchange      EXHF   =         0.00000000
  -V(xc)+E(xc)   XCENC  =       -31.93821272
  PAW double counting   =      1951.44630011    -1839.05221041
  entropy T*S    EENTRO =        -0.00000000
  eigenvalues    EBANDS =       -94.00113369
  atomic energy  EATOM  =      1448.49460871
  Solvation  Ediel_sol  =         0.00000000
  ---------------------------------------------------
  free energy    TOTEN  =       -33.44262927 eV

  energy without entropy =      -33.44262927  energy(sigma->0) =      -33.44262927


--------------------------------------------------------------------------------------------------------




--------------------------------------- Iteration      1(  13)  ---------------------------------------


    POTLOK:  cpu time      0.0100: real time      0.0102
    SETDIJ:  cpu time      0.2167: real time      0.2172
     EDDAV:  cpu time      0.3589: real time      0.3610
       DOS:  cpu time      0.0005: real time      0.0005
    --------------------------------------------
      LOOP:  cpu time      0.5862: real time      0.5889

 eigenvalue-minimisations  :  2176
 total energy-change (2. order) :-0.6535593E-06  (-0.1388809E-06)
 number of electron      39.9999998 magnetization 
 augmentation part       -7.3830185 magnetization 

 Free energy of the ion-electron system (eV)
  ---------------------------------------------------
  alpha Z        PSCENC =        87.52689448
  Ewald energy   TEWEN  =     -1412.10636004
  -Hartree energ DENC   =      -143.81578014
  -exchange      EXHF   =         0.00000000
  -V(xc)+E(xc)   XCENC  =       -31.93774428
  PAW double counting   =      1951.51955675    -1839.12540682
  entropy T*S    EENTRO =        -0.00000000
  eigenvalues    EBANDS =       -93.99839857
  atomic energy  EATOM  =      1448.49460871
  Solvation  Ediel_sol  =         0.00000000
  ---------------------------------------------------
  free energy    TOTEN  =       -33.44262992 eV

  energy without entropy =      -33.44262992  energy(sigma->0) =      -33.44262992


--------------------------------------------------------------------------------------------------------




 average (electrostatic) potential at core
  the test charge radii are     1.1631  1.0808
  (the norm of the test charge is              1.0000)
       1 -33.4156       2 -33.4156       3 -33.4156       4 -33.4156       5 -54.9402
       6 -54.9402       7 -54.9402       8 -54.9402
 
 
 
 E-fermi :   3.6859     XC(G=0):  -9.2604     alpha+bet : -8.7197

 Fermi energy:         3.6858623752

 k-point     1 :       0.0000    0.0000    0.0000
  band No.  band energies     occupation 
      1     -11.0106      2.00000
      2     -10.6071      2.00000
      3      -9.7967      2.00000
      4      -9.2043      2.00000
      5      -4.5536      2.00000
      6      -4.2582      2.00000
      7      -2.9403      2.00000
      8      -2.3498      2.00000
      9      -1.7391      2.00000
     10      -0.5598      2.00000
     11       0.1192      2.00000
     12       0.1998      2.00000
     13       0.3237      2.00000
     14       0.5720      2.00000
     15       0.9951      2.00000
     16       1.2941      2.00000
     17       1.8581      2.00000
     18       1.9589      2.00000
     19       2.5493      2.00000
     20       2.8894      2.00000
     21       4.7651      0.00000
     22       5.5672      0.00000
     23       6.0383      0.00000
     24       6.1430      0.00000
     25       6.2380      0.00000
     26       7.0818      0.00000
     27       7.1736      0.00000
     28       7.2756      0.00000
     29       7.5304      0.00000
     30       8.4120      0.00000
     31       8.7675      0.00000
     32       9.6098      0.00000

 k-point     2 :       0.1667    0.0000    0.0000
  band No.  band energies     occupation 
      1     -10.8204      2.00000
      2     -10.4343      2.00000
      3      -9.6739      2.00000
      4      -9.1583      2.00000
      5      -4.7958      2.00000
      6      -4.4610      2.00000
      7      -3.4014      2.00000
      8      -2.4585      2.00000
      9      -1.9274      2.00000
     10      -0.3546      2.00000
     11      -0.2855      2.00000
     12       0.2982      2.00000
     13       0.4490      2.00000
     14       0.4646      2.00000
     15       1.0511      2.00000
     16       1.1119      2.00000
     17       1.7061      2.00000
     18       1.8353      2.00000
     19       2.7900      2.00000
     20       3.0640      2.00000
     21       4.6418      0.00000
     22       5.5314      0.00000
     23       5.7669      0.00000
     24       6.4442      0.00000
     25       6.5704      0.00000
     26       6.6369      0.00000
     27       6.9115      0.00000
     28       7.3590      0.00000
     29       7.6823      0.00000
     30       7.7423      0.00000
     31       7.8225      0.00000
     32       9.1879      0.00000

 k-point     3 :       0.3333    0.0000    0.0000
  band No.  band energies     occupation 
      1     -10.2978      2.00000
      2      -9.9824      2.00000
      3      -9.4447      2.00000
      4      -9.1964      2.00000
      5      -5.2998      2.00000
      6      -4.7939      2.00000
      7      -4.4649      2.00000
      8      -3.5210      2.00000
      9      -1.4175      2.00000
     10      -0.3211      2.00000
     11       0.1090      2.00000
     12       0.3948      2.00000
     13       0.5195      2.00000
     14       0.6791      2.00000
     15       1.1223      2.00000
     16       1.1564      2.00000
     17       1.5715      2.00000
     18       1.9761      2.00000
     19       2.9545      2.00000
     20       3.3199      2.00000
     21       4.3130      0.00000
     22       4.4390      0.00000
     23       4.4630      0.00000
     24       5.3205      0.00000
     25       5.5655      0.00000
     26       6.0256      0.00000
     27       6.1275      0.00000
     28       6.4654      0.00000
     29       6.5899      0.00000
     30       7.2311      0.00000
     31       8.3344      0.00000
     32       9.2784      0.00000

 k-point     4 :       0.5000    0.0000    0.0000
  band No.  band energies     occupation 
      1      -9.6312      2.00000
      2      -9.6312      2.00000
      3      -9.5147      2.00000
      4      -9.5147      2.00000
      5      -5.3038      2.00000
      6      -5.3038      2.00000
      7      -4.5165      2.00000
      8      -4.5165      2.00000
      9      -0.5946      2.00000
     10      -0.5946      2.00000
     11       0.5924      2.00000
     12       0.5924      2.00000
     13       0.6312      2.00000
     14       0.6312      2.00000
     15       1.0057      2.00000
     16       1.0057      2.00000
     17       1.9703      2.00000
     18       1.9703      2.00000
     19       3.0002      2.00000
     20       3.0002      2.00000
     21       4.1738      0.00000
     22       4.1738      0.00000
     23       4.5692      0.00000
     24       4.5692      0.00000
     25       5.1323      0.00000
     26       5.1323      0.00000
     27       5.7243      0.00000
     28       5.7243      0.00000
     29       6.1922      0.00000
     30       6.1922      0.00000
     31       9.0624      0.00000
     32       9.0624      0.00000

 k-point     5 :       0.0000    0.1667    0.0000
  band No.  band energies     occupation 
      1     -10.8995      2.00000
      2     -10.4989      2.00000
      3      -9.8090      2.00000
      4      -9.2611      2.00000
      5      -4.8822      2.00000
      6      -4.3557      2.00000
      7      -3.5349      2.00000
      8      -2.5432      2.00000
      9      -1.8934      2.00000
     10      -0.1117      2.00000
     11       0.2526      2.00000
     12       0.4659      2.00000
     13       0.7039      2.00000
     14       0.8235      2.00000
     15       1.3244      2.00000
     16       1.5308      2.00000
     17       1.5430      2.00000
     18       1.9548      2.00000
     19       2.8876      2.00000
     20       3.1947      2.00000
     21       4.4842      0.00000
     22       5.4462      0.00000
     23       5.6935      0.00000
     24       5.8274      0.00000
     25       6.1445      0.00000
     26       6.4802      0.00000
     27       6.9455      0.00000
     28       7.1296      0.00000
     29       7.7126      0.00000
     30       7.9107      0.00000
     31       8.3196      0.00000
     32       9.6806      0.00000

 k-point     6 :       0.1667    0.1667    0.0000
  band No.  band energies     occupation 
      1     -10.7142      2.00000
      2     -10.3325      2.00000
      3      -9.6871      2.00000
      4      -9.2083      2.00000
      5      -4.9779      2.00000
      6      -4.4604      2.00000
      7      -3.7511      2.00000
      8      -2.7647      2.00000
      9      -1.7912      2.00000
     10      -0.8703      2.00000
     11      -0.3116      2.00000
     12       0.4035      2.00000
     13       0.6949      2.00000
     14       0.8041      2.00000
     15       0.8851      2.00000
     16       1.4696      2.00000
     17       1.8313      2.00000
     18       1.9667      2.00000
     19       3.0205      2.00000
     20       3.3200      2.00000
     21       4.4584      0.00000
     22       4.9690      0.00000
     23       5.6839      0.00000
     24       5.6840      0.00000
     25       6.5394      0.00000
     26       6.9425      0.00000
     27       6.9785      0.00000
     28       7.1036      0.00000
     29       7.5185      0.00000
     30       7.7715      0.00000
     31       8.0134      0.00000
     32       9.0682      0.00000

 k-point     7 :       0.1667   -0.1667    0.0000
  band No.  band energies     occupation 
      1     -10.7145      2.00000
      2     -10.3322      2.00000
      3      -9.6870      2.00000
      4      -9.2088      2.00000
      5      -4.9680      2.00000
      6      -4.4706      2.00000
      7      -3.7478      2.00000
      8      -2.7673      2.00000
      9      -1.7962      2.00000
     10      -0.8745      2.00000
     11      -0.3188      2.00000
     12       0.4257      2.00000
     13       0.6789      2.00000
     14       0.7981      2.00000
     15       0.9267      2.00000
     16       1.4564      2.00000
     17       1.8129      2.00000
     18       1.9720      2.00000
     19       3.0288      2.00000
     20       3.2990      2.00000
     21       4.4709      0.00000
     22       4.9798      0.00000
     23       5.6960      0.00000
     24       5.6979      0.00000
     25       6.5353      0.00000
     26       6.9231      0.00000
     27       6.9760      0.00000
     28       7.0804      0.00000
     29       7.4663      0.00000
     30       7.8366      0.00000
     31       8.0030      0.00000
     32       9.0668      0.00000

 k-point     8 :       0.3333    0.1667    0.0000
  band No.  band energies     occupation 
      1     -10.2108      2.00000
      2      -9.9038      2.00000
      3      -9.4531      2.00000
      4      -9.2120      2.00000
      5      -5.2574      2.00000
      6      -4.6891      2.00000
      7      -4.4976      2.00000
      8      -3.5850      2.00000
      9      -1.3354      2.00000
     10      -1.1508      2.00000
     11      -0.5130      2.00000
     12       0.1601      2.00000
     13       0.4285      2.00000
     14       0.6586      2.00000
     15       0.8611      2.00000
     16       1.2248      2.00000
     17       1.4718      2.00000
     18       1.9723      2.00000
     19       2.7638      2.00000
     20       3.4102      2.00000
     21       4.2395      0.00000
     22       4.7743      0.00000
     23       5.0156      0.00000
     24       5.2537      0.00000
     25       5.8283      0.00000
     26       6.4719      0.00000
     27       6.6014      0.00000
     28       6.9533      0.00000
     29       7.5917      0.00000
     30       7.8291      0.00000
     31       8.3884      0.00000
     32       9.0667      0.00000

 k-point     9 :       0.3333   -0.1667    0.0000
  band No.  band energies     occupation 
      1     -10.2115      2.00000
      2      -9.9030      2.00000
      3      -9.4517      2.00000
      4      -9.2141      2.00000
      5      -5.2444      2.00000
      6      -4.7029      2.00000
      7      -4.4971      2.00000
      8      -3.5856      2.00000
      9      -1.3392      2.00000
     10      -1.1479      2.00000
     11      -0.5294      2.00000
     12       0.1691      2.00000
     13       0.4548      2.00000
     14       0.6565      2.00000
     15       0.8703      2.00000
     16       1.2224      2.00000
     17       1.4392      2.00000
     18       1.9748      2.00000
     19       2.7945      2.00000
     20       3.3609      2.00000
     21       4.2664      0.00000
     22       4.8007      0.00000
     23       5.0121      0.00000
     24       5.2667      0.00000
     25       5.8099      0.00000
     26       6.4582      0.00000
     27       6.5651      0.00000
     28       6.9800      0.00000
     29       7.5878      0.00000
     30       7.8684      0.00000
     31       8.3463      0.00000
     32       9.0802      0.00000

 k-point    10 :       0.5000    0.1667    0.0000
  band No.  band energies     occupation 
      1      -9.5929      2.00000
      2      -9.5888      2.00000
      3      -9.4820      2.00000
      4      -9.4775      2.00000
      5      -5.2195      2.00000
      6      -5.2135      2.00000
      7      -4.4570      2.00000
      8      -4.4505      2.00000
      9      -0.7173      2.00000
     10      -0.7104      2.00000
     11      -0.2123      2.00000
     12      -0.2006      2.00000
     13       0.1020      2.00000
     14       0.1025      2.00000
     15       1.0195      2.00000
     16       1.0260      2.00000
     17       1.4156      2.00000
     18       1.4289      2.00000
     19       3.0930      2.00000
     20       3.1330      2.00000
     21       4.3565      0.00000
     22       4.3755      0.00000
     23       5.2996      0.00000
     24       5.3312      0.00000
     25       5.7893      0.00000
     26       5.8022      0.00000
     27       6.3479      0.00000
     28       6.3766      0.00000
     29       7.2275      0.00000
     30       7.2489      0.00000
     31       8.8743      0.00000
     32       8.8807      0.00000

 k-point    11 :       0.0000    0.3333    0.0000
  band No.  band energies     occupation 
      1     -10.5973      2.00000
      2     -10.2032      2.00000
      3      -9.9163      2.00000
      4      -9.4627      2.00000
      5      -5.2550      2.00000
      6      -4.4737      2.00000
      7      -4.4570      2.00000
      8      -3.4437      2.00000
      9      -1.4543      2.00000
     10       0.0526      2.00000
     11       0.6115      2.00000
     12       1.0007      2.00000
     13       1.0623      2.00000
     14       1.3071      2.00000
     15       1.4929      2.00000
     16       1.8489      2.00000
     17       1.8925      2.00000
     18       2.6180      2.00000
     19       3.2089      2.00000
     20       3.4468      2.00000
     21       4.3008      0.00000
     22       4.4883      0.00000
     23       5.0885      0.00000
     24       5.4328      0.00000
     25       5.8099      0.00000
     26       6.1162      0.00000
     27       6.3568      0.00000
     28       6.5331      0.00000
     29       6.5814      0.00000
     30       7.3876      0.00000
     31       8.6618      0.00000
     32       9.8188      0.00000

 k-point    12 :       0.1667    0.3333    0.0000
  band No.  band energies     occupation 
      1     -10.4276      2.00000
      2     -10.0565      2.00000
      3      -9.7900      2.00000
      4      -9.3857      2.00000
      5      -5.1881      2.00000
      6      -4.4597      2.00000
      7      -4.4221      2.00000
      8      -3.4752      2.00000
      9      -1.3406      2.00000
     10      -0.8325      2.00000
     11      -0.3638      2.00000
     12       0.1459      2.00000
     13       0.3437      2.00000
     14       0.6936      2.00000
     15       1.4028      2.00000
     16       1.6463      2.00000
     17       2.0964      2.00000
     18       2.5071      2.00000
     19       3.0724      2.00000
     20       3.4541      2.00000
     21       4.4530      0.00000
     22       4.9509      0.00000
     23       5.3976      0.00000
     24       5.6714      0.00000
     25       6.0027      0.00000
     26       6.5705      0.00000
     27       6.7946      0.00000
     28       7.0059      0.00000
     29       7.5496      0.00000
     30       7.7722      0.00000
     31       8.6191      0.00000
     32       9.2835      0.00000

 k-point    13 :       0.1667   -0.3333    0.0000
  band No.  band energies     occupation 
      1     -10.4280      2.00000
      2     -10.0560      2.00000
      3      -9.7896      2.00000
      4      -9.3865      2.00000
      5      -5.1821      2.00000
      6      -4.4575      2.00000
      7      -4.4274      2.00000
      8      -3.4792      2.00000
      9      -1.3398      2.00000
     10      -0.8438      2.00000
     11      -0.3763      2.00000
     12       0.1562      2.00000
     13       0.3869      2.00000
     14       0.6817      2.00000
     15       1.4081      2.00000
     16       1.6261      2.00000
     17       2.0706      2.00000
     18       2.5113      2.00000
     19       3.1034      2.00000
     20       3.4276      2.00000
     21       4.4677      0.00000
     22       4.9832      0.00000
     23       5.4134      0.00000
     24       5.6860      0.00000
     25       5.9697      0.00000
     26       6.5376      0.00000
     27       6.7470      0.00000
     28       7.0382      0.00000
     29       7.5147      0.00000
     30       7.8511      0.00000
     31       8.6109      0.00000
     32       9.2409      0.00000

 k-point    14 :       0.3333    0.3333    0.0000
  band No.  band energies     occupation 
      1      -9.9831      2.00000
      2      -9.7000      2.00000
      3      -9.5218      2.00000
      4      -9.2871      2.00000
      5      -5.1232      2.00000
      6      -4.6432      2.00000
      7      -4.4373      2.00000
      8      -3.8022      2.00000
      9      -1.7071      2.00000
     10      -1.2249      2.00000
     11      -1.0006      2.00000
     12      -0.5393      2.00000
     13      -0.0933      2.00000
     14       0.0906      2.00000
     15       0.4014      2.00000
     16       0.9188      2.00000
     17       1.1455      2.00000
     18       1.6987      2.00000
     19       2.7690      2.00000
     20       3.3181      2.00000
     21       4.5160      0.00000
     22       5.6053      0.00000
     23       5.6463      0.00000
     24       6.2988      0.00000
     25       6.8115      0.00000
     26       7.1680      0.00000
     27       7.7238      0.00000
     28       7.8531      0.00000
     29       7.9451      0.00000
     30       8.5344      0.00000
     31       9.0658      0.00000
     32       9.0883      0.00000

 k-point    15 :       0.3333   -0.3333    0.0000
  band No.  band energies     occupation 
      1      -9.9847      2.00000
      2      -9.6981      2.00000
      3      -9.5192      2.00000
      4      -9.2906      2.00000
      5      -5.1077      2.00000
      6      -4.6449      2.00000
      7      -4.4537      2.00000
      8      -3.8018      2.00000
      9      -1.7090      2.00000
     10      -1.2191      2.00000
     11      -1.0108      2.00000
     12      -0.5398      2.00000
     13      -0.0976      2.00000
     14       0.1188      2.00000
     15       0.4181      2.00000
     16       0.8792      2.00000
     17       1.1352      2.00000
     18       1.7169      2.00000
     19       2.8119      2.00000
     20       3.2427      2.00000
     21       4.5629      0.00000
     22       5.5910      0.00000
     23       5.6671      0.00000
     24       6.2991      0.00000
     25       6.8167      0.00000
     26       7.1527      0.00000
     27       7.7670      0.00000
     28       7.8210      0.00000
     29       7.9455      0.00000
     30       8.4655      0.00000
     31       9.0284      0.00000
     32       9.0871      0.00000

 k-point    16 :       0.5000    0.3333    0.0000
  band No.  band energies     occupation 
      1      -9.5104      2.00000
      2      -9.5018      2.00000
      3      -9.4126      2.00000
      4      -9.4031      2.00000
      5      -5.0290      2.00000
      6      -5.0155      2.00000
      7      -4.3294      2.00000
      8      -4.3145      2.00000
      9      -1.3231      2.00000
     10      -1.3211      2.00000
     11      -0.7266      2.00000
     12      -0.7209      2.00000
     13      -0.5387      2.00000
     14      -0.5314      2.00000
     15       0.5257      2.00000
     16       0.5572      2.00000
     17       0.5870      2.00000
     18       0.5935      2.00000
     19       2.9919      2.00000
     20       3.0625      2.00000
     21       4.9872      0.00000
     22       5.0419      0.00000
     23       6.6143      0.00000
     24       6.6282      0.00000
     25       7.0759      0.00000
     26       7.0907      0.00000
     27       7.8283      0.00000
     28       7.8299      0.00000
     29       8.3499      0.00000
     30       8.3523      0.00000
     31       8.6812      0.00000
     32       8.7279      0.00000

 k-point    17 :       0.0000    0.5000    0.0000
  band No.  band energies     occupation 
      1     -10.2105      2.00000
      2     -10.2105      2.00000
      3      -9.8116      2.00000
      4      -9.8116      2.00000
      5      -5.1342      2.00000
      6      -5.1342      2.00000
      7      -4.1669      2.00000
      8      -4.1669      2.00000
      9      -0.7441      2.00000
     10      -0.7441      2.00000
     11       1.0466      2.00000
     12       1.0466      2.00000
     13       1.5160      2.00000
     14       1.5160      2.00000
     15       1.8477      2.00000
     16       1.8477      2.00000
     17       2.6530      2.00000
     18       2.6530      2.00000
     19       3.0489      2.00000
     20       3.0489      2.00000
     21       4.4196      0.00000
     22       4.4196      0.00000
     23       5.2805      0.00000
     24       5.2805      0.00000
     25       5.5496      0.00000
     26       5.5496      0.00000
     27       5.8259      0.00000
     28       5.8259      0.00000
     29       6.6616      0.00000
     30       6.6616      0.00000
     31       9.3904      0.00000
     32       9.3904      0.00000

 k-point    18 :       0.1667    0.5000    0.0000
  band No.  band energies     occupation 
      1     -10.0650      2.00000
      2     -10.0644      2.00000
      3      -9.6981      2.00000
      4      -9.6972      2.00000
      5      -5.0324      2.00000
      6      -5.0310      2.00000
      7      -4.1098      2.00000
      8      -4.1098      2.00000
      9      -0.7428      2.00000
     10      -0.7282      2.00000
     11      -0.2834      2.00000
     12      -0.2820      2.00000
     13       0.2569      2.00000
     14       0.2841      2.00000
     15       1.6229      2.00000
     16       1.6503      2.00000
     17       2.3614      2.00000
     18       2.3983      2.00000
     19       3.2476      2.00000
     20       3.2841      2.00000
     21       4.8218      0.00000
     22       4.8354      0.00000
     23       5.5182      0.00000
     24       5.5376      0.00000
     25       6.2439      0.00000
     26       6.2777      0.00000
     27       6.9401      0.00000
     28       6.9628      0.00000
     29       7.4167      0.00000
     30       7.4717      0.00000
     31       9.1954      0.00000
     32       9.2435      0.00000

[...]
     32       8.2121      0.00000

 k-point    32 :       0.1667    0.3333    0.5000
  band No.  band energies     occupation 
      1     -10.2952      2.00000
      2     -10.2952      2.00000
      3      -9.5352      2.00000
      4      -9.5352      2.00000
      5      -4.8946      2.00000
      6      -4.8946      2.00000
      7      -3.9932      2.00000
      8      -3.9932      2.00000
      9      -0.7219      2.00000
     10      -0.7219      2.00000
     11      -0.1964      2.00000
     12      -0.1964      2.00000
     13       0.5863      2.00000
     14       0.5863      2.00000
     15       1.3309      2.00000
     16       1.3309      2.00000
     17       2.1389      2.00000
     18       2.1389      2.00000
     19       2.8395      2.00000
     20       2.8395      2.00000
     21       5.1450      0.00000
     22       5.1450      0.00000
     23       6.0803      0.00000
     24       6.0803      0.00000
     25       6.4909      0.00000
     26       6.4909      0.00000
     27       6.7433      0.00000
     28       6.7433      0.00000
     29       7.7548      0.00000
     30       7.7548      0.00000
     31       8.1854      0.00000
     32       8.1854      0.00000

 k-point    33 :       0.1667   -0.3333    0.5000
  band No.  band energies     occupation 
      1     -10.2953      2.00000
      2     -10.2953      2.00000
      3      -9.5352      2.00000
      4      -9.5352      2.00000
      5      -4.8923      2.00000
      6      -4.8923      2.00000
      7      -3.9956      2.00000
      8      -3.9956      2.00000
      9      -0.7121      2.00000
     10      -0.7121      2.00000
     11      -0.2094      2.00000
     12      -0.2094      2.00000
     13       0.5635      2.00000
     14       0.5635      2.00000
     15       1.3624      2.00000
     16       1.3624      2.00000
     17       2.1357      2.00000
     18       2.1357      2.00000
     19       2.8434      2.00000
     20       2.8434      2.00000
     21       5.1644      0.00000
     22       5.1644      0.00000
     23       6.0397      0.00000
     24       6.0397      0.00000
     25       6.4920      0.00000
     26       6.4920      0.00000
     27       6.7526      0.00000
     28       6.7526      0.00000
     29       7.7604      0.00000
     30       7.7604      0.00000
     31       8.1548      0.00000
     32       8.1548      0.00000

 k-point    34 :       0.3333    0.3333    0.5000
  band No.  band energies     occupation 
      1      -9.8780      2.00000
      2      -9.8780      2.00000
      3      -9.3690      2.00000
      4      -9.3690      2.00000
      5      -4.8464      2.00000
      6      -4.8464      2.00000
      7      -4.2413      2.00000
      8      -4.2413      2.00000
      9      -1.4552      2.00000
     10      -1.4552      2.00000
     11      -0.6327      2.00000
     12      -0.6327      2.00000
     13       0.0670      2.00000
     14       0.0670      2.00000
     15       0.8716      2.00000
     16       0.8716      2.00000
     17       1.2665      2.00000
     18       1.2665      2.00000
     19       2.3213      2.00000
     20       2.3213      2.00000
     21       5.6315      0.00000
     22       5.6315      0.00000
     23       6.4602      0.00000
     24       6.4602      0.00000
     25       7.0419      0.00000
     26       7.0419      0.00000
     27       7.5927      0.00000
     28       7.5927      0.00000
     29       7.9754      0.00000
     30       7.9754      0.00000
     31       8.9233      0.00000
     32       8.9233      0.00000

 k-point    35 :       0.3333   -0.3333    0.5000
  band No.  band energies     occupation 
      1      -9.8782      2.00000
      2      -9.8782      2.00000
      3      -9.3688      2.00000
      4      -9.3688      2.00000
      5      -4.8419      2.00000
      6      -4.8419      2.00000
      7      -4.2461      2.00000
      8      -4.2461      2.00000
      9      -1.4507      2.00000
     10      -1.4507      2.00000
     11      -0.6416      2.00000
     12      -0.6416      2.00000
     13       0.0635      2.00000
     14       0.0635      2.00000
     15       0.8731      2.00000
     16       0.8731      2.00000
     17       1.2723      2.00000
     18       1.2723      2.00000
     19       2.3287      2.00000
     20       2.3287      2.00000
     21       5.6317      0.00000
     22       5.6317      0.00000
     23       6.4452      0.00000
     24       6.4452      0.00000
     25       7.0456      0.00000
     26       7.0456      0.00000
     27       7.5840      0.00000
     28       7.5840      0.00000
     29       7.9675      0.00000
     30       7.9675      0.00000
     31       8.9473      0.00000
     32       8.9473      0.00000

 k-point    36 :       0.5000    0.3333    0.5000
  band No.  band energies     occupation 
      1      -9.4644      2.00000
      2      -9.4644      2.00000
      3      -9.4522      2.00000
      4      -9.4522      2.00000
      5      -4.7212      2.00000
      6      -4.7212      2.00000
      7      -4.6904      2.00000
      8      -4.6904      2.00000
      9      -1.0565      2.00000
     10      -1.0565      2.00000
     11      -1.0284      2.00000
     12      -1.0284      2.00000
     13      -0.1037      2.00000
     14      -0.1037      2.00000
     15      -0.0574      2.00000
     16      -0.0574      2.00000
     17       1.6603      2.00000
     18       1.6603      2.00000
     19       1.7036      2.00000
     20       1.7036      2.00000
     21       6.2691      0.00000
     22       6.2691      0.00000
     23       6.3503      0.00000
     24       6.3503      0.00000
     25       7.2174      0.00000
     26       7.2174      0.00000
     27       7.2833      0.00000
     28       7.2833      0.00000
     29       8.5223      0.00000
     30       8.5223      0.00000
     31       8.5627      0.00000
     32       8.5627      0.00000

 k-point    37 :       0.0000    0.5000    0.5000
  band No.  band energies     occupation 
      1     -10.2054      2.00000
      2     -10.2054      2.00000
      3      -9.8194      2.00000
      4      -9.8194      2.00000
      5      -4.8823      2.00000
      6      -4.8823      2.00000
      7      -4.5428      2.00000
      8      -4.5428      2.00000
      9       0.1296      2.00000
     10       0.1296      2.00000
     11       0.7072      2.00000
     12       0.7072      2.00000
     13       1.0511      2.00000
     14       1.0511      2.00000
     15       1.5097      2.00000
     16       1.5097      2.00000
     17       2.7343      2.00000
     18       2.7343      2.00000
     19       2.8778      2.00000
     20       2.8778      2.00000
     21       4.6041      0.00000
     22       4.6041      0.00000
     23       5.2228      0.00000
     24       5.2228      0.00000
     25       5.9173      0.00000
     26       5.9173      0.00000
     27       6.5347      0.00000
     28       6.5347      0.00000
     29       7.0376      0.00000
     30       7.0376      0.00000
     31       7.7706      0.00000
     32       7.7706      0.00000

 k-point    38 :       0.1667    0.5000    0.5000
  band No.  band energies     occupation 
      1     -10.0593      2.00000
      2     -10.0593      2.00000
      3      -9.7057      2.00000
      4      -9.7057      2.00000
      5      -4.7819      2.00000
      6      -4.7819      2.00000
      7      -4.4725      2.00000
      8      -4.4725      2.00000
      9      -0.3265      2.00000
     10      -0.3265      2.00000
     11      -0.2384      2.00000
     12      -0.2384      2.00000
     13       0.7037      2.00000
     14       0.7037      2.00000
     15       0.7949      2.00000
     16       0.7949      2.00000
     17       2.1863      2.00000
     18       2.1863      2.00000
     19       2.9214      2.00000
     20       2.9214      2.00000
     21       5.3965      0.00000
     22       5.3965      0.00000
     23       5.8415      0.00000
     24       5.8415      0.00000
     25       6.8191      0.00000
     26       6.8191      0.00000
     27       7.0811      0.00000
     28       7.0811      0.00000
     29       7.4474      0.00000
     30       7.4474      0.00000
     31       7.8173      0.00000
     32       7.8173      0.00000

 k-point    39 :       0.3333    0.5000    0.5000
  band No.  band energies     occupation 
      1      -9.7049      2.00000
      2      -9.7049      2.00000
      3      -9.4708      2.00000
      4      -9.4708      2.00000
      5      -4.6504      2.00000
      6      -4.6504      2.00000
      7      -4.4507      2.00000
      8      -4.4507      2.00000
      9      -1.4194      2.00000
     10      -1.4194      2.00000
     11      -1.1272      2.00000
     12      -1.1272      2.00000
     13       0.2765      2.00000
     14       0.2765      2.00000
     15       0.3776      2.00000
     16       0.3776      2.00000
     17       1.2656      2.00000
     18       1.2656      2.00000
     19       2.0601      2.00000
     20       2.0601      2.00000
     21       6.4866      0.00000
     22       6.4866      0.00000
     23       6.6689      0.00000
     24       6.6689      0.00000
     25       7.2631      0.00000
     26       7.2631      0.00000
     27       7.7499      0.00000
     28       7.7499      0.00000
     29       8.6065      0.00000
     30       8.6065      0.00000
     31       8.9532      0.00000
     32       8.9532      0.00000

 k-point    40 :       0.5000    0.5000    0.5000
  band No.  band energies     occupation 
      1      -9.4232      2.00000
      2      -9.4232      2.00000
      3      -9.4114      2.00000
      4      -9.4114      2.00000
      5      -4.6282      2.00000
      6      -4.6282      2.00000
      7      -4.6000      2.00000
      8      -4.6000      2.00000
      9      -1.3295      2.00000
     10      -1.3295      2.00000
     11      -1.2963      2.00000
     12      -1.2963      2.00000
     13      -0.4261      2.00000
     14      -0.4261      2.00000
     15      -0.3806      2.00000
     16      -0.3806      2.00000
     17       1.6284      2.00000
     18       1.6284      2.00000
     19       1.6686      2.00000
     20       1.6686      2.00000
     21       6.3590      0.00000
     22       6.3590      0.00000
     23       6.4978      0.00000
     24       6.4978      0.00000
     25       7.9968      0.00000
     26       7.9968      0.00000
     27       8.0122      0.00000
     28       8.0122      0.00000
     29       9.0872      0.00000
     30       9.0872      0.00000
     31       9.1852      0.00000
     32       9.1852      0.00000


--------------------------------------------------------------------------------------------------------


 soft charge-density along one line, spin component            1
         0         1         2         3         4         5         6         7         8         9
 total charge-density along one line
 
 pseudopotential strength for first ion, spin component:            1
 14.495  18.084   0.047   0.034   0.000   0.085   0.062   0.000
 18.084  22.576   0.059   0.043   0.000   0.107   0.078   0.001
  0.047   0.059   3.220  -0.002  -0.000   5.481  -0.003  -0.000
  0.034   0.043  -0.002   3.221  -0.000  -0.003   5.483  -0.000
  0.000   0.000  -0.000  -0.000   3.222  -0.000  -0.000   5.484
  0.085   0.107   5.481  -0.003  -0.000   9.387  -0.006  -0.000
  0.062   0.078  -0.003   5.483  -0.000  -0.006   9.391  -0.000
  0.000   0.001  -0.000  -0.000   5.484  -0.000  -0.000   9.393
 -0.000  -0.000   0.000   0.000   0.008   0.000   0.000   0.016
 -0.004  -0.005   0.009   0.014   0.000   0.016   0.025   0.000
  0.000   0.000  -0.005   0.010  -0.000  -0.009   0.018  -0.000
 -0.000  -0.000   0.000   0.000   0.008   0.000   0.000   0.015
  0.002   0.003  -0.014  -0.000   0.000  -0.025  -0.000   0.000
 total augmentation occupancy for first ion, spin component:            1
  2.783  -0.765   0.374   0.312   0.001  -0.067  -0.062   0.000  -0.000  -0.014   0.012  -0.000   0.009
 -0.765   0.754  -0.482  -0.383  -0.002   0.075   0.063   0.000   0.000   0.012  -0.019   0.001  -0.005
  0.374  -0.482   1.247   0.027   0.001  -0.203   0.005  -0.000  -0.000   0.042  -0.088  -0.000  -0.000
  0.312  -0.383   0.027   1.264  -0.000   0.005  -0.214   0.000   0.000  -0.007   0.071   0.001  -0.001
  0.001  -0.002   0.001  -0.000   1.240  -0.000   0.000  -0.214   0.148  -0.000   0.000   0.040   0.000
 -0.067   0.075  -0.203   0.005  -0.000   0.037  -0.002   0.000   0.000  -0.007   0.016   0.000   0.000
 -0.062   0.063   0.005  -0.214   0.000  -0.002   0.041  -0.000   0.000   0.001  -0.013  -0.000   0.000
  0.000   0.000  -0.000   0.000  -0.214   0.000  -0.000   0.041  -0.026   0.000  -0.000  -0.007  -0.000
 -0.000   0.000  -0.000   0.000   0.148   0.000   0.000  -0.026   0.030   0.000  -0.000   0.003   0.000
 -0.014   0.012   0.042  -0.007  -0.000  -0.007   0.001   0.000   0.000   0.012  -0.009   0.000   0.001
  0.012  -0.019  -0.088   0.071   0.000   0.016  -0.013  -0.000  -0.000  -0.009   0.036  -0.000  -0.002
 -0.000   0.001  -0.000   0.001   0.040   0.000  -0.000  -0.007   0.003   0.000  -0.000   0.010  -0.000
  0.009  -0.005  -0.000  -0.001   0.000   0.000   0.000  -0.000   0.000   0.001  -0.002  -0.000   0.008


------------------------ aborting loop because EDIFF is reached ----------------------------------------


    CHARGE:  cpu time      0.0083: real time      0.0083
    FORLOC:  cpu time      0.0004: real time      0.0004
    FORNL :  cpu time      0.0446: real time      0.0449
    STRESS:  cpu time      0.4557: real time      0.4578
    FORCOR:  cpu time      0.0090: real time      0.0091
    FORHAR:  cpu time      0.0022: real time      0.0022
    MIXING:  cpu time      0.0007: real time      0.0007
    OFIELD:  cpu time      0.0000: real time      0.0000

  FORCE on cell =-STRESS in cart. coord.  units (eV):
  Direction    XX          YY          ZZ          XY          YZ          ZX
  --------------------------------------------------------------------------------------
  Alpha Z    87.52689    87.52689    87.52689
  Ewald    -444.08396  -510.91189  -457.11220     0.52995    -0.00000     0.00000
  Hartree    64.86593    33.46274    45.49107     0.24985    -0.00000     0.00000
  E(xc)    -141.59751  -141.64389  -141.32640     0.00195     0.00000     0.00000
  Local    -186.44493   -95.61611  -159.09610    -0.82264     0.00000    -0.00000
  n-local   241.21299   240.97135   241.58278     0.01798    -0.00000     0.00000
  augment   -11.27962   -11.80629   -11.84027    -0.00203    -0.00000    -0.00000
  Kinetic   390.42636   398.31563   402.95032    -0.00573     0.00000    -0.00000
  Fock        0.00000     0.00000     0.00000     0.00000     0.00000     0.00000
  -------------------------------------------------------------------------------------
  Total       0.62615     0.29843     8.17610    -0.03068     0.00000    -0.00000
  in kB       5.18210     2.46982    67.66608    -0.25387     0.00000    -0.00000
  external pressure =       25.11 kB  Pullay stress =        0.00 kB


 VOLUME and BASIS-vectors are now :
 -----------------------------------------------------------------------------
  energy-cutoff  :      520.00
  volume of cell :      193.59
      direct lattice vectors                 reciprocal lattice vectors
     3.858100176  0.000000000  0.000000000     0.259194929  0.000000000  0.000000000
     0.000000000  4.526575088  0.000000000     0.000000000  0.220917577  0.000000000
     0.000000000  0.000000000 11.085176468     0.000000000  0.000000000  0.090210562

  length of vectors
     3.858100176  4.526575088 11.085176468     0.259194929  0.220917577  0.090210562


 FORCES acting on ions
    electron-ion (+dipol)            ewald-force                    non-local-force                 convergence-correction
 -----------------------------------------------------------------------------------------------
   0.867E-01 0.185E+02 0.228E+02   -.107E+00 -.215E+02 -.248E+02   0.261E-01 0.289E+01 0.201E+01   -.326E-05 -.289E-03 -.653E-03
   0.867E-01 0.185E+02 -.228E+02   -.107E+00 -.215E+02 0.248E+02   0.261E-01 0.289E+01 -.201E+01   -.322E-05 -.290E-03 0.654E-03
   -.867E-01 -.185E+02 -.228E+02   0.107E+00 0.215E+02 0.248E+02   -.261E-01 -.289E+01 -.201E+01   0.317E-05 0.289E-03 0.654E-03
   -.867E-01 -.185E+02 0.228E+02   0.107E+00 0.215E+02 -.248E+02   -.261E-01 -.289E+01 0.201E+01   0.318E-05 0.290E-03 -.655E-03
   0.605E-01 -.176E+02 -.211E+02   -.687E-01 0.191E+02 0.223E+02   0.208E-02 -.162E+01 -.715E+00   0.295E-05 0.118E-03 0.960E-03
   0.605E-01 -.176E+02 0.211E+02   -.687E-01 0.191E+02 -.223E+02   0.208E-02 -.162E+01 0.715E+00   0.313E-05 0.117E-03 -.959E-03
   -.605E-01 0.176E+02 0.211E+02   0.687E-01 -.191E+02 -.223E+02   -.198E-02 0.162E+01 0.715E+00   -.321E-05 -.118E-03 -.962E-03
   -.605E-01 0.176E+02 -.211E+02   0.687E-01 -.191E+02 0.223E+02   -.198E-02 0.162E+01 -.715E+00   -.325E-05 -.117E-03 0.960E-03
 -----------------------------------------------------------------------------------------------
   0.875E-05 -.272E-05 0.126E-05   -.364E-14 0.355E-14 0.213E-13   0.205E-03 -.187E-03 -.339E-06   -.519E-06 0.337E-06 -.979E-06
 
 
 POSITION                                       TOTAL-FORCE (eV/Angst)
 -----------------------------------------------------------------------------------
      0.90861      1.82863      1.36328         0.006156     -0.160171     -0.043825
      2.83766      4.09191      4.17930         0.006156     -0.160172      0.043825
      2.89358      4.01000      9.72189        -0.006198      0.160154      0.043793
      0.96453      1.74671      6.90587        -0.006198      0.160155     -0.043792
      0.90861      1.28177      3.90621        -0.006156     -0.052340      0.467830
      2.83766      3.54506      1.63637        -0.006156     -0.052340     -0.467830
      2.89358      0.03028      7.17896         0.006198      0.052357     -0.467818
      0.96453      2.29357      9.44880         0.006198      0.052357      0.467818
 -----------------------------------------------------------------------------------
    total drift:                                0.000213     -0.000190     -0.000000


--------------------------------------------------------------------------------------------------------



  FREE ENERGIE OF THE ION-ELECTRON SYSTEM (eV)
  ---------------------------------------------------
  free  energy   TOTEN  =       -33.44262992 eV

  energy  without entropy=      -33.44262992  energy(sigma->0) =      -33.44262992
 


--------------------------------------------------------------------------------------------------------


    POTLOK:  cpu time      0.2277: real time      0.2284


--------------------------------------------------------------------------------------------------------


     LOOP+:  cpu time      8.6776: real time      8.7204
    4ORBIT:  cpu time      0.0000: real time      0.0000

 total amount of memory used by VASP MPI-rank0    41770. kBytes
=======================================================================

   base      :      30000. kBytes
   nonl-proj :       9056. kBytes
   fftplans  :        519. kBytes
   grid      :        766. kBytes
   one-center:         16. kBytes
   wavefun   :       1413. kBytes
 
  
  
 General timing and accounting informations for this job:
 ========================================================
  
                  Total CPU time used (sec):       10.419
                            User time (sec):       10.084
                          System time (sec):        0.335
                         Elapsed time (sec):       10.730
  
                   Maximum memory used (kb):      180284.
                   Average memory used (kb):          N/A
  
                          Minor page faults:        21550
                          Major page faults:           46
                 Voluntary context switches:         1955
