 vasp.6.4.2 20Jul23 (build Oct 12 2023 10:31:02) complex                         
 executed on              LinuxNV date 2024.11.01  23:12:15
 running  128 mpi-ranks, with    1 threads/rank, on    2 nodes
 distrk:  each k-point on   64 cores,    2 groups
 distr:  one band on NCORE=   8 cores,    8 groups


--------------------------------------------------------------------------------------------------------


 INCAR:
   ENCUT = 520.000000
   SIGMA = 0.050000
   EDIFF = 1.00e-06
   ALGO = N
   GGA = PE
   PREC = Accurate
   SYSTEM = 01_AOPT
   ICHARG = 0
   ISMEAR = 0
   ISPIN = 2
   ISTART = 1
   ISYM = -1
   KPAR = 2
   LORBIT = 11
   NBANDS = 220
   NELM = 100
   NELMIN = 5
   NPAR = 8
   LASPH = .TRUE.
   LCHARG = .FALSE.
   LWAVE = .FALSE.
   LREAL = .FALSE.

 POTCAR:    PAW_PBE Ge 05Jan2001                  
 POTCAR:    PAW_PBE Se 06Sep2000                  
 -----------------------------------------------------------------------------
|                                                                             |
|           W    W    AA    RRRRR   N    N  II  N    N   GGGG   !!!           |
|           W    W   A  A   R    R  NN   N  II  NN   N  G    G  !!!           |
|           W    W  A    A  R    R  N N  N  II  N N  N  G       !!!           |
|           W WW W  AAAAAA  RRRRR   N  N N  II  N  N N  G  GGG   !            |
|           WW  WW  A    A  R   R   N   NN  II  N   NN  G    G                |
|           W    W  A    A  R    R  N    N  II  N    N   GGGG   !!!           |
|                                                                             |
|     You use a magnetic or noncollinear calculation, but did not specify     |
|     the initial magnetic moment with the MAGMOM tag. Note that a            |
|     default of 1 will be used for all atoms. This ferromagnetic setup       |
|     may break the symmetry of the crystal, in particular it may rule        |
|     out finding an antiferromagnetic solution. Thence, we recommend         |
|     setting the initial magnetic moment manually or verifying carefully     |
|     that this magnetic setup is desired.                                    |
|                                                                             |
 -----------------------------------------------------------------------------

 POTCAR:    PAW_PBE Ge 05Jan2001                  
   VRHFIN =Ge: s2p2                                                                                 
   LEXCH  = PE                                                                                      
   EATOM  =   104.9960 eV,    7.7170 Ry                                                             
                                                                                                    
   TITEL  = PAW_PBE Ge 05Jan2001                                                                    
   LULTRA =        F    use ultrasoft PP ?                                                          
   IUNSCR =        1    unscreen: 0-lin 1-nonlin 2-no                                               
   RPACOR =    2.170    partial core radius                                                         
   POMASS =   72.610; ZVAL   =    4.000    mass and valenz                                          
   RCORE  =    2.300    outmost cutoff radius                                                       
   RWIGS  =    2.300; RWIGS  =    1.217    wigner-seitz radius (au A)                               
   ENMAX  =  173.807; ENMIN  =  130.355 eV                                                          
   ICORE  =        3    local potential                                                             
   LCOR   =        T    correct aug charges                                                         
   LPAW   =        T    paw PP                                                                      
   EAUG   =  385.843                                                                                
   DEXC   =    0.000                                                                                
   RMAX   =    2.342    core radius for proj-oper                                                   
   RAUG   =    1.300    factor for augmentation sphere                                              
   RDEP   =    2.318    radius for radial grids                                                     
   RDEPT  =    2.103    core radius for aug-charge                                                  
                                                                                                    
   Atomic configuration                                                                             
   10 entries                                                                                       
     n  l   j            E        occ.                                                              
     1  0  0.50    -10959.8463   2.0000                                                             
     2  0  0.50     -1371.6056   2.0000                                                             
     2  1  1.50     -1198.4791   6.0000                                                             
     3  0  0.50      -168.4733   2.0000                                                             
     3  1  1.50      -115.6019   6.0000                                                             
     3  2  2.50       -29.3106  10.0000                                                             
     4  0  0.50       -11.7309   2.0000                                                             
     4  1  0.50        -3.8952   2.0000                                                             
     4  2  1.50        -4.0817   0.0000                                                             
     4  3  2.50        -4.0817   0.0000                                                             
   Description                                                                                      
     l       E           TYP  RCUT    TYP  RCUT                                                     
     0    -11.7309493     23  2.300                                                                 
     0     -7.4578696     23  2.300                                                                 
     1     -3.8952261     23  2.300                                                                 
     1      6.1178114     23  2.300                                                                 
     2     -4.0817478     23  2.300                                                                 
     3     -1.3605826      7  2.300                                                                 
  local pseudopotential read in
  partial core-charges read in
  partial kinetic energy density read in
  atomic valenz-charges read in
  non local Contribution for L=            0  read in
    real space projection operators read in
  non local Contribution for L=            0  read in
    real space projection operators read in
  non local Contribution for L=            1  read in
    real space projection operators read in
  non local Contribution for L=            1  read in
    real space projection operators read in
  non local Contribution for L=            2  read in
    real space projection operators read in
    PAW grid and wavefunctions read in
 
   number of l-projection  operators is LMAX  =            5
   number of lm-projection operators is LMMAX =           13
 
 POTCAR:    PAW_PBE Se 06Sep2000                  
   VRHFIN =Se: s2p4                                                                                 
   LEXCH  = PE                                                                                      
   EATOM  =   257.1286 eV,   18.8984 Ry                                                             
                                                                                                    
   TITEL  = PAW_PBE Se 06Sep2000                                                                    
   LULTRA =        F    use ultrasoft PP ?                                                          
   IUNSCR =        1    unscreen: 0-lin 1-nonlin 2-no                                               
   RPACOR =    1.900    partial core radius                                                         
   POMASS =   78.960; ZVAL   =    6.000    mass and valenz                                          
   RCORE  =    2.100    outmost cutoff radius                                                       
   RWIGS  =    2.200; RWIGS  =    1.164    wigner-seitz radius (au A)                               
   ENMAX  =  211.555; ENMIN  =  158.666 eV                                                          
   ICORE  =        3    local potential                                                             
   LCOR   =        T    correct aug charges                                                         
   LPAW   =        T    paw PP                                                                      
   EAUG   =  446.842                                                                                
   DEXC   =    0.000                                                                                
   RMAX   =    2.147    core radius for proj-oper                                                   
   RAUG   =    1.300    factor for augmentation sphere                                              
   RDEP   =    2.177    radius for radial grids                                                     
   RDEPT  =    1.928    core radius for aug-charge                                                  
                                                                                                    
   Atomic configuration                                                                             
   10 entries                                                                                       
     n  l   j            E        occ.                                                              
     1  0  0.50    -12503.4787   2.0000                                                             
     2  0  0.50     -1606.9547   2.0000                                                             
     2  1  1.50     -1413.3140   6.0000                                                             
     3  0  0.50      -213.4885   2.0000                                                             
     3  1  1.50      -152.9538   6.0000                                                             
     3  2  2.50       -53.1221  10.0000                                                             
     4  0  0.50       -17.2865   2.0000                                                             
     4  1  0.50        -6.5110   4.0000                                                             
     4  2  2.50        -6.8029   0.0000                                                             
     4  3  2.50        -6.8029   0.0000                                                             
   Description                                                                                      
     l       E           TYP  RCUT    TYP  RCUT                                                     
     0    -17.2865377     23  2.100                                                                 
     0    -15.3094411     23  2.100                                                                 
     1     -6.5110275     23  2.100                                                                 
     1     -0.0695192     23  2.100                                                                 
     2     -6.8029130     23  2.100                                                                 
     3     -1.3605826      7  2.100                                                                 
  local pseudopotential read in
  partial core-charges read in
  partial kinetic energy density read in
  atomic valenz-charges read in
  non local Contribution for L=            0  read in
    real space projection operators read in
  non local Contribution for L=            0  read in
    real space projection operators read in
  non local Contribution for L=            1  read in
    real space projection operators read in
  non local Contribution for L=            1  read in
    real space projection operators read in
  non local Contribution for L=            2  read in
    real space projection operators read in
    PAW grid and wavefunctions read in
 
   number of l-projection  operators is LMAX  =            5
   number of lm-projection operators is LMMAX =           13
 
 -----------------------------------------------------------------------------
|                                                                             |
|               ----> ADVICE to this user running VASP <----                  |
|                                                                             |
|     You have a (more or less) 'large supercell' and for larger cells it     |
|     might be more efficient to use real-space projection operators.         |
|     Therefore, try LREAL= Auto in the INCAR file.                           |
|     Mind: For very accurate calculation, you might also keep the            |
|     reciprocal projection scheme (i.e. LREAL=.FALSE.).                      |
|                                                                             |
 -----------------------------------------------------------------------------

  PAW_PBE Ge 05Jan2001                  :
 energy of atom  1       EATOM= -104.9960
 kinetic energy error for atom=    0.0002 (will be added to EATOM!!)
  PAW_PBE Se 06Sep2000                  :
 energy of atom  2       EATOM= -257.1286
 kinetic energy error for atom=    0.0007 (will be added to EATOM!!)
 
 
 POSCAR: Ge Se
  positions in cartesian coordinates
  No initial velocities read in
 exchange correlation table for  LEXCH =        8
   RHO(1)=    0.500       N(1)  =     2000
   RHO(2)=  100.500       N(2)  =     4000
 


--------------------------------------------------------------------------------------------------------


 ion  position               nearest neighbor table
   1  0.056  0.030  0.132-  45 2.63  55 2.68  53 2.72
   2  0.229  0.858  0.370-  67 2.53  45 2.62  48 2.74
   3  0.569  0.204  0.365-  68 2.60  49 2.65  56 2.77
   4  0.587  0.534  0.356-  69 2.50  72 2.68  50 2.74
   5  0.550  0.850  0.361-  70 2.50  50 2.61  48 2.80
   6  0.880  0.197  0.364-  56 2.53  44 2.65  55 2.66
   7  0.899  0.541  0.382-  71 2.57  72 2.62  47 2.73
   8  0.910  0.878  0.379-  53 2.49  44 2.68  45 2.75
   9  0.044  0.174  0.640-  57 2.48  37 2.61  43 2.73
  10  0.062  0.478  0.643-  58 2.43  43 2.64  38 2.82
  11  0.064  0.818  0.624-  52 2.58  59 2.69  39 2.71
  12  0.407  0.136  0.621-  60 2.57  51 2.58  40 2.72
  13  0.396  0.495  0.622-  41 2.55  61 2.58  38 2.64
  14  0.367  0.846  0.626-  62 2.57  39 2.57  51 2.63
  15  0.724  0.132  0.609-  40 2.48  37 2.63  63 2.80
  16  0.699  0.511  0.627-  41 2.59  42 2.65  64 2.74
  17  0.224  0.516  0.368-  66 2.56  46 2.62  47 2.73
  18  0.250  0.202  0.367-  54 2.65  49 2.74  46 2.76
  19  0.734  0.800  0.613-  42 2.47  65 2.77  52 2.78
  20  0.915  0.648  0.867-  64 2.50  52 2.54  58 2.67
  21  0.898  0.972  0.894-  65 2.45  37 2.57  59 2.68
  22  0.070  0.350  0.139-  46 2.49  55 2.60
  23  0.064  0.691  0.128-  47 2.49  67 2.71  53 2.80
  24  0.397  0.038  0.126-  68 2.55  54 2.57  48 2.71
  25  0.395  0.373  0.123-  66 2.46  49 2.50
  26  0.729  0.009  0.129-  44 2.58  70 2.74  68 2.74
  27  0.750  0.364  0.137-  56 2.55  71 2.59  69 2.83
  28  0.390  0.695  0.132-  50 2.46  67 2.60  66 2.73
  29  0.242  0.304  0.860-  38 2.56  60 2.60  57 2.63
  30  0.233  0.647  0.879-  61 2.57  39 2.73  58 2.77
  31  0.215  0.989  0.871-  59 2.57  51 2.70  62 2.85
  32  0.560  0.302  0.882-  63 2.62  60 2.71  41 2.78
  33  0.545  0.682  0.858-  42 2.56  61 2.63  62 2.82
  34  0.587  0.980  0.871-  65 2.66  40 2.66  62 2.80
  35  0.879  0.326  0.845-  43 2.50  63 2.73
  36  0.720  0.690  0.113-  70 2.67  69 2.68  72 2.83
  37  0.898  0.026  0.671-  21 2.57   9 2.61  15 2.63
  38  0.246  0.346  0.634-  29 2.56  13 2.64  10 2.82
  39  0.237  0.686  0.637-  14 2.57  11 2.71  30 2.73
  40  0.577  1.000  0.632-  15 2.48  34 2.66  12 2.72
  41  0.553  0.364  0.641-  13 2.55  16 2.59  32 2.78
  42  0.574  0.683  0.630-  19 2.47  33 2.56  16 2.65
  43  0.903  0.340  0.622-  35 2.50  10 2.64   9 2.73
  44  0.755  0.025  0.360-  26 2.58   6 2.65   8 2.68
  45  0.085  0.011  0.366-   2 2.62   1 2.63   8 2.75
  46  0.090  0.355  0.363-  22 2.49  17 2.62  18 2.76
  47  0.072  0.673  0.352-  23 2.49   7 2.73  17 2.73
  48  0.391  0.007  0.368-  24 2.71   2 2.74   5 2.80
  49  0.413  0.348  0.346-  25 2.50   3 2.65  18 2.74
  50  0.425  0.683  0.350-  28 2.46   5 2.61   4 2.74
  51  0.241  0.014  0.631-  12 2.58  14 2.63  31 2.70
  52  0.916  0.674  0.640-  20 2.54  11 2.58  19 2.78
  53  0.920  0.861  0.156-   8 2.49   1 2.72  23 2.80
  54  0.249  0.182  0.129-  24 2.57  18 2.65
  55  0.925  0.200  0.129-  22 2.60   6 2.66   1 2.68
  56  0.741  0.344  0.366-   6 2.53  27 2.55   3 2.77
  57  0.071  0.182  0.862-   9 2.48  29 2.63
  58  0.069  0.498  0.862-  10 2.43  20 2.67  30 2.77
  59  0.069  0.845  0.866-  31 2.57  21 2.68  11 2.69
  60  0.395  0.163  0.850-  12 2.57  29 2.60  32 2.71
  61  0.400  0.529  0.851-  30 2.57  13 2.58  33 2.63
  62  0.401  0.856  0.854-  14 2.57  34 2.80  33 2.82  31 2.85
  63  0.724  0.173  0.858-  32 2.62  35 2.73  15 2.80
  64  0.752  0.531  0.866-  20 2.50  16 2.74
  65  0.752  0.845  0.857-  21 2.45  34 2.66  19 2.77
  66  0.263  0.518  0.142-  25 2.46  17 2.56  28 2.73
  67  0.230  0.830  0.144-   2 2.53  28 2.60  23 2.71
  68  0.565  0.155  0.136-  24 2.55   3 2.60  26 2.74
  69  0.587  0.522  0.131-   4 2.50  36 2.68  27 2.83
  70  0.579  0.849  0.138-   5 2.50  36 2.67  26 2.74
  71  0.895  0.513  0.153-   7 2.57  27 2.59
  72  0.744  0.682  0.368-   7 2.62   4 2.68  36 2.83
 

IMPORTANT INFORMATION: All symmetrisations will be switched off!
NOSYMM: (Re-)initialisation of all symmetry stuff for point group C_1.


----------------------------------------------------------------------------------------

                                     Primitive cell                                     

  volume of cell :    1724.2930

  direct lattice vectors                    reciprocal lattice vectors
    12.456305594 -0.000006681  0.000000087     0.080280625  0.000000043 -0.000000001
    -0.000006703 12.497573144 -0.000003800     0.000000043  0.080015535  0.000000031
     0.000000100 -0.000004335 11.076336356    -0.000000001  0.000000027  0.090282560

  length of vectors
    12.456305594 12.497573144 11.076336356     0.080280625  0.080015535  0.090282560

  position of ions in fractional coordinates (direct lattice)
     0.056407016  0.029779503  0.131631153
     0.229017363  0.858030735  0.370470407
     0.568981334  0.204182625  0.364505118
     0.587499896  0.534495995  0.355928899
     0.550282411  0.849671897  0.361135273
     0.880249573  0.197146244  0.364308304
     0.899267443  0.541037676  0.382433547
     0.910396115  0.877701612  0.379376251
     0.044381728  0.173549050  0.640325702
     0.062450354  0.478440285  0.643341591
     0.064257641  0.818160152  0.624371829
     0.407389757  0.135886483  0.620621912
     0.396237034  0.494864847  0.621827575
     0.367268227  0.845696705  0.625593035
     0.723833768  0.131711214  0.609425430
     0.698632095  0.511132003  0.627014643
     0.224402439  0.516203440  0.368252059
     0.249572378  0.202022908  0.367323368
     0.734132157  0.800076493  0.612741414
     0.915286329  0.647700396  0.867336008
     0.897739915  0.972119014  0.894388208
     0.069770886  0.349673590  0.139295605
     0.063758800  0.690956357  0.128422505
     0.397003938  0.038327313  0.125613650
     0.394938671  0.372742549  0.123169867
     0.728637686  0.009009668  0.129118302
     0.750484007  0.364439185  0.137062425
     0.389737270  0.695445326  0.132329627
     0.242320561  0.304367733  0.860277317
     0.232537550  0.647262504  0.878964893
     0.215315765  0.989467999  0.870752771
     0.559974865  0.302407108  0.881784784
     0.544659931  0.682428632  0.858332081
     0.587228011  0.980159185  0.871428462
     0.879003582  0.326059596  0.845141015
     0.720415450  0.689760670  0.113208071
     0.898351305  0.026322802  0.670958014
     0.245641290  0.346226341  0.633919528
     0.236902551  0.686280574  0.636631077
     0.576895765  0.999628913  0.632161346
     0.552805105  0.363978859  0.640876915
     0.574427527  0.683429727  0.629873380
     0.903441052  0.340321561  0.621783349
     0.755481777  0.025077504  0.359563396
     0.085458462  0.010751094  0.365673286
     0.090158583  0.354843336  0.363150983
     0.071942538  0.672849952  0.352284686
     0.390729704  0.007116239  0.367946492
     0.413433954  0.347510250  0.346044315
     0.424896963  0.682513021  0.350456350
     0.240812280  0.013814910  0.630591624
     0.916291075  0.674414721  0.639662757
     0.919822610  0.861272334  0.155731445
     0.249434673  0.182406023  0.129257587
     0.925108703  0.199887828  0.129370988
     0.741004338  0.344167239  0.366183016
     0.070501451  0.181942822  0.862171191
     0.068500945  0.497932371  0.861880556
     0.068657455  0.844793881  0.865569751
     0.395417855  0.163376996  0.850272667
     0.399764737  0.529435799  0.851328951
     0.400792948  0.856331336  0.854426249
     0.723754589  0.172671192  0.858219783
     0.752109859  0.531346266  0.866190711
     0.751854770  0.845344131  0.856849910
     0.262576113  0.517866874  0.141512206
     0.230249442  0.829715473  0.144099055
     0.564889484  0.155220024  0.136112368
     0.586950082  0.521894908  0.130872061
     0.578739545  0.849015384  0.137793182
     0.894958940  0.513014099  0.152695668
     0.744009675  0.681527074  0.367537353

  ion indices of the primitive-cell ions
   primitive index   ion index
                 1           1
                 2           2
                 3           3
                 4           4
                 5           5
                 6           6
                 7           7
                 8           8
                 9           9
                10          10
                11          11
                12          12
                13          13
                14          14
                15          15
                16          16
                17          17
                18          18
                19          19
                20          20
                21          21
                22          22
                23          23
                24          24
                25          25
                26          26
                27          27
                28          28
                29          29
                30          30
                31          31
                32          32
                33          33
                34          34
                35          35
                36          36
                37          37
                38          38
                39          39
                40          40
                41          41
                42          42
                43          43
                44          44
                45          45
                46          46
                47          47
                48          48
                49          49
                50          50
                51          51
                52          52
                53          53
                54          54
                55          55
                56          56
                57          57
                58          58
                59          59
                60          60
                61          61
                62          62
                63          63
                64          64
                65          65
                66          66
                67          67
                68          68
                69          69
                70          70
                71          71
                72          72

----------------------------------------------------------------------------------------

 
 
 KPOINTS: KPOINTS created by Atomic Simulation Env

Automatic generation of k-mesh.
 Grid dimensions read from file:
 generate k-points for:    2    2    2

 Generating k-lattice:

  Cartesian coordinates                     Fractional coordinates (reciprocal lattice)
     0.040140313  0.000000022 -0.000000000     0.500000000  0.000000000 -0.000000000
     0.000000021  0.040007767  0.000000016    -0.000000000  0.500000000  0.000000000
    -0.000000000  0.000000014  0.045141280     0.000000000 -0.000000000  0.500000000

  Length of vectors
     0.040140313  0.040007767  0.045141280

  Shift w.r.t. Gamma in fractional coordinates (k-lattice)
     0.000000000  0.000000000  0.000000000

 
 Subroutine IBZKPT returns following result:
 ===========================================
 
 Found      8 irreducible k-points:
 
 Following reciprocal coordinates:
            Coordinates               Weight
  0.000000  0.000000  0.000000      1.000000
  0.500000  0.000000  0.000000      1.000000
  0.000000  0.500000  0.000000      1.000000
  0.500000  0.500000  0.000000      1.000000
  0.000000  0.000000  0.500000      1.000000
  0.500000  0.000000  0.500000      1.000000
  0.000000  0.500000  0.500000      1.000000
  0.500000  0.500000  0.500000      1.000000
 
 Following cartesian coordinates:
            Coordinates               Weight
  0.000000  0.000000  0.000000      1.000000
  0.040140  0.000000 -0.000000      1.000000
  0.000000  0.040008  0.000000      1.000000
  0.040140  0.040008  0.000000      1.000000
 -0.000000  0.000000  0.045141      1.000000
  0.040140  0.000000  0.045141      1.000000
  0.000000  0.040008  0.045141      1.000000
  0.040140  0.040008  0.045141      1.000000
 
 -----------------------------------------------------------------------------
|                                                                             |
|           W    W    AA    RRRRR   N    N  II  N    N   GGGG   !!!           |
|           W    W   A  A   R    R  NN   N  II  NN   N  G    G  !!!           |
|           W    W  A    A  R    R  N N  N  II  N N  N  G       !!!           |
|           W WW W  AAAAAA  RRRRR   N  N N  II  N  N N  G  GGG   !            |
|           WW  WW  A    A  R   R   N   NN  II  N   NN  G    G                |
|           W    W  A    A  R    R  N    N  II  N    N   GGGG   !!!           |
|                                                                             |
|     The number of bands has been changed from the values supplied in        |
|     the INCAR file. This is a result of running the parallel version.       |
|     The orbitals not found in the WAVECAR file will be initialized with     |
|     random numbers, which is usually adequate. For correlated               |
|     calculations, however, you should redo the groundstate calculation.     |
|     I found NBANDS = 220. Now, NBANDS = 224.                                |
|                                                                             |
 -----------------------------------------------------------------------------



--------------------------------------------------------------------------------------------------------




 Dimension of arrays:
   k-points           NKPTS =      8   k-points in BZ     NKDIM =      8   number of bands    NBANDS=    224
   number of dos      NEDOS =    301   number of ions     NIONS =     72
   non local maximal  LDIM  =      5   non local SUM 2l+1 LMDIM =     13
   total plane-waves  NPLWV = 774144
   max r-space proj   IRMAX =      1   max aug-charges    IRDMAX=  24598
   dimension x,y,z NGX =    96 NGY =   96 NGZ =   84
   dimension x,y,z NGXF=   192 NGYF=  192 NGZF=  168
   support grid    NGXF=   192 NGYF=  192 NGZF=  168
   ions per type =              36  36
   NGX,Y,Z   is equivalent  to a cutoff of  12.81, 12.77, 12.61 a.u.
   NGXF,Y,Z  is equivalent  to a cutoff of  25.62, 25.54, 25.22 a.u.

 SYSTEM =  01_AOPT                                 
 POSCAR =  Ge Se                                   

 Startparameter for this run:
   NWRITE =      2    write-flag & timer
   PREC   = accura    normal or accurate (medium, high low for compatibility)
   ISTART =      0    job   : 0-new  1-cont  2-samecut
   ICHARG =      2    charge: 1-file 2-atom 10-const
   ISPIN  =      2    spin polarized calculation?
   LNONCOLLINEAR =      F non collinear calculations
   LSORBIT =      F    spin-orbit coupling
   INIWAV =      1    electr: 0-lowe 1-rand  2-diag
   LASPH  =      T    aspherical Exc in radial PAW
 Electronic Relaxation 1
   ENCUT  =  520.0 eV  38.22 Ry    6.18 a.u.  23.16 23.24 20.59*2*pi/ulx,y,z
   ENINI  =  520.0     initial cutoff
   ENAUG  =  446.8 eV  augmentation charge cutoff
   NELM   =    100;   NELMIN=  5; NELMDL=  0     # of ELM steps 
   EDIFF  = 0.1E-05   stopping-criterion for ELM
   LREAL  =      F    real-space projection
   NLSPLINE    = F    spline interpolate recip. space projectors
   LCOMPAT=      F    compatible to vasp.4.4
   GGA_COMPAT  = T    GGA compatible to vasp.4.4-vasp.4.6
   LMAXPAW     = -100 max onsite density
   LMAXMIX     =    2 max onsite mixed and CHGCAR
   VOSKOWN=      0    Vosko Wilk Nusair interpolation
   ROPT   =    0.00000   0.00000
 Ionic relaxation
   EDIFFG = 0.1E-04   stopping-criterion for IOM
   NSW    =      0    number of steps for IOM
   NBLOCK =      1;   KBLOCK =      1    inner block; outer block 
   IBRION =     -1    ionic relax: 0-MD 1-quasi-New 2-CG
   NFREE  =      0    steps in history (QN), initial steepest desc. (CG)
   ISIF   =      2    stress and relaxation
   IWAVPR =     10    prediction:  0-non 1-charg 2-wave 3-comb
   ISYM   =     -1    0-nonsym 1-usesym 2-fastsym
   LCORR  =      T    Harris-Foulkes like correction to forces

   POTIM  = 0.5000    time-step for ionic-motion
   TEIN   =    0.0    initial temperature
   TEBEG  =    0.0;   TEEND  =   0.0 temperature during run
   SMASS  =  -3.00    Nose mass-parameter (am)
   estimated Nose-frequenzy (Omega)   =  0.10E-29 period in steps = 0.13E+47 mass=  -0.355E-26a.u.
   SCALEE = 1.0000    scale energy and forces
   NPACO  =    256;   APACO  = 10.0  distance and # of slots for P.C.
   PSTRESS=    0.0 pullay stress

  Mass of Ions in am
   POMASS =  72.61 78.96
  Ionic Valenz
   ZVAL   =   4.00  6.00
  Atomic Wigner-Seitz radii
   RWIGS  =  -1.00 -1.00
  virtual crystal weights 
   VCA    =   1.00  1.00
   NELECT =     360.0000    total number of electrons
   NUPDOWN=      -1.0000    fix difference up-down

 DOS related values:
   EMIN   =  10.00;   EMAX   =-10.00  energy-range for DOS
   EFERMI =   0.00;   METHOD = LEGACY      
   ISMEAR =     0;   SIGMA  =   0.05  broadening in eV -4-tet -1-fermi 0-gaus

 Electronic relaxation 2 (details)
   IALGO  =     38    algorithm
   LDIAG  =      T    sub-space diagonalisation (order eigenvalues)
   LSUBROT=      F    optimize rotation matrix (better conditioning)
   TURBO    =      0    0=normal 1=particle mesh
   IRESTART =      0    0=no restart 2=restart with 2 vectors
   NREBOOT  =      0    no. of reboots
   NMIN     =      0    reboot dimension
   EREF     =   0.00    reference energy to select bands
   IMIX   =      4    mixing-type and parameters
     AMIX     =   0.40;   BMIX     =  1.00
     AMIX_MAG =   1.60;   BMIX_MAG =  1.00
     AMIN     =   0.10
     WC   =   100.;   INIMIX=   1;  MIXPRE=   1;  MAXMIX= -45

 Intra band minimization:
   WEIMIN = 0.0000     energy-eigenvalue tresh-hold
   EBREAK =  0.11E-08  absolut break condition
   DEPER  =   0.30     relativ break condition  

   TIME   =   0.40     timestep for ELM

  volume/ion in A,a.u.               =      23.95       161.61
  Fermi-wavevector in a.u.,A,eV,Ry     =   0.971192  1.835288 12.833217  0.943215
  Thomas-Fermi vector in A             =   2.101389
 
 Write flags
   LWAVE        =      F    write WAVECAR
   LDOWNSAMPLE  =      F    k-point downsampling of WAVECAR
   LCHARG       =      F    write CHGCAR
   LVTOT        =      F    write LOCPOT, total local potential
   LVHAR        =      F    write LOCPOT, Hartree potential only
   LELF         =      F    write electronic localiz. function (ELF)
   LORBIT       =     11    0 simple, 1 ext, 2 COOP (PROOUT), +10 PAW based schemes


 Dipole corrections
   LMONO  =      F    monopole corrections only (constant potential shift)
   LDIPOL =      F    correct potential (dipole corrections)
   IDIPOL =      0    1-x, 2-y, 3-z, 4-all directions 
   EPSILON=  1.0000000 bulk dielectric constant

 Exchange correlation treatment:
   GGA     =    PE    GGA type
   LEXCH   =     8    internal setting for exchange type
   LIBXC   =     F    Libxc                    
   VOSKOWN =     0    Vosko Wilk Nusair interpolation
   LHFCALC =     F    Hartree Fock is set to
   LHFONE  =     F    Hartree Fock one center treatment
   AEXX    =    0.0000 exact exchange contribution

 Linear response parameters
   LEPSILON=     F    determine dielectric tensor
   LRPA    =     F    only Hartree local field effects (RPA)
   LNABLA  =     F    use nabla operator in PAW spheres
   LVEL    =     F    velocity operator in full k-point grid
   CSHIFT  =0.1000    complex shift for real part using Kramers Kronig
   OMEGAMAX=  -1.0    maximum frequency
   DEG_THRESHOLD= 0.2000000E-02 threshold for treating states as degnerate
   RTIME   =   -0.100 relaxation time in fs
  (WPLASMAI=    0.000 imaginary part of plasma frequency in eV, 0.658/RTIME)
   DFIELD  = 0.0000000 0.0000000 0.0000000 field for delta impulse in time
 
  Optional k-point grid parameters
   LKPOINTS_OPT  =     F    use optional k-point grid
   KPOINTS_OPT_MODE=     1    mode for optional k-point grid
 
 Orbital magnetization related:
   ORBITALMAG=     F  switch on orbital magnetization
   LCHIMAG   =     F  perturbation theory with respect to B field
   DQ        =  0.001000  dq finite difference perturbation B field
   LLRAUG    =     F  two centre corrections for induced B field
   LBONE     =     F  B-component reconstruction in AE one-centre
   LVGVCALC  =     T  calculate vGv susceptibility
   LVGVAPPL  =     F  apply vGv susceptibility instead of pGv for G=0

 Random number generation:
   RANDOM_GENERATOR = DEFAULT
   PCG_SEED         = not used


--------------------------------------------------------------------------------------------------------


 Static calculation
 charge density and potential will be updated during run
 spin polarized calculation
 Variant of blocked Davidson
 Davidson routine will perform the subspace rotation
 perform sub-space diagonalisation
    after iterative eigenvector-optimisation
 modified Broyden-mixing scheme, WC =      100.0
 initial mixing is a Kerker type mixing with AMIX =  0.4000 and BMIX =      1.0000
 Hartree-type preconditioning will be used
 using additional bands            44
 reciprocal scheme for non local part
 use partial core corrections
 calculate Harris-corrections to forces 
   (improved forces if not selfconsistent)
 use gradient corrections 
 use of overlap-Matrix (Vanderbilt PP)
 Gauss-broadening in eV      SIGMA  =   0.05


--------------------------------------------------------------------------------------------------------


  energy-cutoff  :      520.00
  volume of cell :     1724.29
      direct lattice vectors                 reciprocal lattice vectors
    12.456305594 -0.000006681  0.000000087     0.080280625  0.000000043 -0.000000001
    -0.000006703 12.497573144 -0.000003800     0.000000043  0.080015535  0.000000031
     0.000000100 -0.000004335 11.076336356    -0.000000001  0.000000027  0.090282560

  length of vectors
    12.456305594 12.497573144 11.076336356     0.080280625  0.080015535  0.090282560


 
 k-points in units of 2pi/SCALE and weight: KPOINTS created by Atomic Simulation Env
   0.00000000  0.00000000  0.00000000       0.125
   0.04014031  0.00000002 -0.00000000       0.125
   0.00000002  0.04000777  0.00000002       0.125
   0.04014033  0.04000779  0.00000002       0.125
  -0.00000000  0.00000001  0.04514128       0.125
   0.04014031  0.00000004  0.04514128       0.125
   0.00000002  0.04000778  0.04514130       0.125
   0.04014033  0.04000780  0.04514130       0.125
 
 k-points in reciprocal lattice and weights: KPOINTS created by Atomic Simulation Env
   0.00000000  0.00000000  0.00000000       0.125
   0.50000000  0.00000000  0.00000000       0.125
   0.00000000  0.50000000  0.00000000       0.125
   0.50000000  0.50000000  0.00000000       0.125
   0.00000000  0.00000000  0.50000000       0.125
   0.50000000  0.00000000  0.50000000       0.125
   0.00000000  0.50000000  0.50000000       0.125
   0.50000000  0.50000000  0.50000000       0.125
 
 position of ions in fractional coordinates (direct lattice) 
   0.05640702  0.02977950  0.13163115
   0.22901736  0.85803074  0.37047041
   0.56898133  0.20418262  0.36450512
   0.58749990  0.53449600  0.35592890
   0.55028241  0.84967190  0.36113527
   0.88024957  0.19714624  0.36430830
   0.89926744  0.54103768  0.38243355
   0.91039612  0.87770161  0.37937625
   0.04438173  0.17354905  0.64032570
   0.06245035  0.47844029  0.64334159
   0.06425764  0.81816015  0.62437183
   0.40738976  0.13588648  0.62062191
   0.39623703  0.49486485  0.62182758
   0.36726823  0.84569670  0.62559304
   0.72383377  0.13171121  0.60942543
   0.69863209  0.51113200  0.62701464
   0.22440244  0.51620344  0.36825206
   0.24957238  0.20202291  0.36732337
   0.73413216  0.80007649  0.61274141
   0.91528633  0.64770040  0.86733601
   0.89773992  0.97211901  0.89438821
   0.06977089  0.34967359  0.13929561
   0.06375880  0.69095636  0.12842250
   0.39700394  0.03832731  0.12561365
   0.39493867  0.37274255  0.12316987
   0.72863769  0.00900967  0.12911830
   0.75048401  0.36443918  0.13706242
   0.38973727  0.69544533  0.13232963
   0.24232056  0.30436773  0.86027732
   0.23253755  0.64726250  0.87896489
   0.21531577  0.98946800  0.87075277
   0.55997487  0.30240711  0.88178478
   0.54465993  0.68242863  0.85833208
   0.58722801  0.98015918  0.87142846
   0.87900358  0.32605960  0.84514101
   0.72041545  0.68976067  0.11320807
   0.89835130  0.02632280  0.67095801
   0.24564129  0.34622634  0.63391953
   0.23690255  0.68628057  0.63663108
   0.57689577  0.99962891  0.63216135
   0.55280510  0.36397886  0.64087692
   0.57442753  0.68342973  0.62987338
   0.90344105  0.34032156  0.62178335
   0.75548178  0.02507750  0.35956340
   0.08545846  0.01075109  0.36567329
   0.09015858  0.35484334  0.36315098
   0.07194254  0.67284995  0.35228469
   0.39072970  0.00711624  0.36794649
   0.41343395  0.34751025  0.34604432
   0.42489696  0.68251302  0.35045635
   0.24081228  0.01381491  0.63059162
   0.91629108  0.67441472  0.63966276
   0.91982261  0.86127233  0.15573144
   0.24943467  0.18240602  0.12925759
   0.92510870  0.19988783  0.12937099
   0.74100434  0.34416724  0.36618302
   0.07050145  0.18194282  0.86217119
   0.06850095  0.49793237  0.86188056
   0.06865745  0.84479388  0.86556975
   0.39541786  0.16337700  0.85027267
   0.39976474  0.52943580  0.85132895
   0.40079295  0.85633134  0.85442625
   0.72375459  0.17267119  0.85821978
   0.75210986  0.53134627  0.86619071
   0.75185477  0.84534413  0.85684991
   0.26257611  0.51786687  0.14151221
   0.23024944  0.82971547  0.14409905
   0.56488948  0.15522002  0.13611237
   0.58695008  0.52189491  0.13087206
   0.57873954  0.84901538  0.13779318
   0.89495894  0.51301410  0.15269567
   0.74400967  0.68152707  0.36753735
 
 position of ions in cartesian coordinates  (Angst):
   0.70262284  0.37217057  1.45799082
   2.85270455 10.72329874  4.10345160
   7.08740404  2.55178191  4.03738056
   7.31807469  6.67989733  3.94238623
   6.85448021 10.61883144  4.00005257
  10.96465639  2.46384215  4.03520064
  11.20154650  6.76165026  4.23596063
  11.34016638 10.96913237  4.20209571
   0.55283127  2.16893888  7.09246220
   0.77789756  5.97933925  7.12586604
   0.80040739 10.22501320  6.91574929
   5.07457046  1.69824585  6.87421657
   4.93564633  6.18460427  6.88756953
   4.57479966 10.56915126  6.92927570
   9.01629379  1.64606305  6.75020061
   8.70237151  6.38790221  6.94502321
   2.79522194  6.45128716  4.07888173
   3.10874850  2.52479281  4.06859643
   9.14456919  9.99900693  6.78692703
  11.40108197  8.09467320  9.60690297
  11.18251630 12.14911861  9.90654101
   0.86908515  4.37007019  1.54288365
   0.79419447  8.63527662  1.42244824
   4.94520213  0.47899520  1.39133893
   4.91947429  4.65837409  1.36426949
   9.07613363  0.11259355  1.43015778
   9.34825570  4.55459976  1.51814820
   4.85468188  8.69137566  1.46572485
   3.01841700  3.80385266  9.52871978
   2.89655454  8.08920512  9.73570836
   2.68203242 12.36594348  9.64474684
   6.97521611  3.77934738  9.76694376
   6.78444605  8.52869438  9.50717229
   7.31468508 12.24960340  9.65223108
  10.94913513  4.07494411  9.36106499
   8.97371038  8.62032913  1.25392811
  11.19013827  0.32896223  7.43175663
   3.05978072  4.32698463  7.02150462
   2.95092604  8.57683733  7.05153735
   7.18598331 12.49292886  7.00202796
   6.88590694  4.54884595  7.09856694
   7.15524030  8.54120644  6.97668687
  11.25353562  4.25318487  6.88708030
   9.41051175  0.31340133  3.98264509
   1.06449668  0.13436042  4.05032028
   1.12304051  4.43467837  4.02238109
   0.89613377  8.40898948  3.90202113
   4.86704858  0.08893151  4.07549911
   5.14985738  4.34303050  3.83290194
   5.29264188  8.52975205  3.88176986
   2.99963132  0.17264851  6.98464490
  11.41359719  8.42853841  7.08511737
  11.45758577 10.76380717  1.72493067
   3.10703331  2.27963038  1.43169984
  11.52343538  2.49810601  1.43295590
   9.23017421  4.30124870  4.05596502
   0.87818649  2.27383952  9.54969742
   0.85326546  6.22294203  9.54647705
   0.85521266 10.55786911  9.58733850
   4.92544463  2.04180963  9.41790547
   4.97958827  6.61665627  9.42960384
   4.99239379 10.70205712  9.46390930
   9.01530727  2.15796230  9.50593039
   9.36850677  6.64053004  9.59421771
   9.36532720 10.56474137  9.49075467
   3.27072485  6.47207677  1.56743485
   2.86805187 10.36942765  1.59608647
   7.03643501  1.93986924  1.50762583
   7.31122610  6.52241530  1.44958104
   7.20895095 10.61062739  1.52624045
  11.14787863  6.41142458  1.69130671
   9.26760734  8.51742790  4.07096482
 


--------------------------------------------------------------------------------------------------------


 k-point   1 :   0.0000 0.0000 0.0000  plane waves:   46385
 k-point   2 :   0.5000 0.0000 0.0000  plane waves:   46466
 k-point   3 :   0.0000 0.5000 0.0000  plane waves:   46434
 k-point   4 :   0.5000 0.5000 0.0000  plane waves:   46520
 k-point   5 :   0.0000 0.0000 0.5000  plane waves:   46474
 k-point   6 :   0.5000 0.0000 0.5000  plane waves:   46404
 k-point   7 :   0.0000 0.5000 0.5000  plane waves:   46452
 k-point   8 :   0.5000 0.5000 0.5000  plane waves:   46416

 maximum and minimum number of plane-waves per node :      5872     5742

 maximum number of plane-waves:     46520
 maximum index in each direction: 
   IXMAX=   23   IYMAX=   23   IZMAX=   20
   IXMIN=  -23   IYMIN=  -23   IZMIN=  -21


 parallel 3D FFT for wavefunctions:
    minimum data exchange during FFTs selected (reduces bandwidth)
 parallel 3D FFT for charge:
    minimum data exchange during FFTs selected (reduces bandwidth)


 total amount of memory used by VASP MPI-rank0   110764. kBytes
=======================================================================

   base      :      30000. kBytes
   nonl-proj :      16355. kBytes
   fftplans  :       6179. kBytes
   grid      :      15593. kBytes
   one-center:        146. kBytes
   wavefun   :      42491. kBytes
 
     INWAV:  cpu time      0.0000: real time      0.0002
 Broyden mixing: mesh for mixing (old mesh)
   NGX = 47   NGY = 47   NGZ = 41
  (NGX  =192   NGY  =192   NGZ  =168)
  gives a total of  90569 points

 initial charge density was supplied:
 charge density of overlapping atoms calculated
 number of electron     360.0000000 magnetization      72.0000000
 keeping initial charge density in first step


--------------------------------------------------------------------------------------------------------


 Maximum index for augmentation-charges           871 (set IRDMAX)


--------------------------------------------------------------------------------------------------------


 First call to EWALD:  gamma=   0.148
 Maximum number of real-space cells 3x 3x 3
 Maximum number of reciprocal cells 3x 3x 3

    FEWALD:  cpu time      0.0027: real time      0.0027


--------------------------------------- Ionic step        1  -------------------------------------------




--------------------------------------- Iteration      1(   1)  ---------------------------------------


    POTLOK:  cpu time      0.1400: real time      0.1408
    SETDIJ:  cpu time      0.5972: real time      0.5987
     EDDAV:  cpu time      8.5942: real time      8.6397
       DOS:  cpu time      0.0019: real time      0.0019
    --------------------------------------------
      LOOP:  cpu time      9.3333: real time      9.3811

 eigenvalue-minimisations  :  7168
 total energy-change (2. order) : 0.1814674E+04  (-0.1418854E+05)
 number of electron     360.0000000 magnetization      72.0000000
 augmentation part      360.0000000 magnetization      72.0000000

 Free energy of the ion-electron system (eV)
  ---------------------------------------------------
  alpha Z        PSCENC =       795.97843450
  Ewald energy   TEWEN  =    -12873.65159565
  -Hartree energ DENC   =     -1101.03500360
  -exchange      EXHF   =         0.00000000
  -V(xc)+E(xc)   XCENC  =      -294.16650027
  PAW double counting   =     10738.42099860    -9719.93139476
  entropy T*S    EENTRO =        -0.02290387
  eigenvalues    EBANDS =      1232.63024103
  atomic energy  EATOM  =     13036.45147835
  Solvation  Ediel_sol  =         0.00000000
  ---------------------------------------------------
  free energy    TOTEN  =      1814.67375434 eV

  energy without entropy =     1814.69665821  energy(sigma->0) =     1814.68520627


--------------------------------------------------------------------------------------------------------




--------------------------------------- Iteration      1(   2)  ---------------------------------------


     EDDAV:  cpu time      9.7412: real time      9.7901
       DOS:  cpu time      0.0014: real time      0.0014
    --------------------------------------------
      LOOP:  cpu time      9.7426: real time      9.7915

 eigenvalue-minimisations  :  8472
 total energy-change (2. order) :-0.1878569E+04  (-0.1803213E+04)
 number of electron     360.0000000 magnetization      72.0000000
 augmentation part      360.0000000 magnetization      72.0000000

 Free energy of the ion-electron system (eV)
  ---------------------------------------------------
  alpha Z        PSCENC =       795.97843450
  Ewald energy   TEWEN  =    -12873.65159565
  -Hartree energ DENC   =     -1101.03500360
  -exchange      EXHF   =         0.00000000
  -V(xc)+E(xc)   XCENC  =      -294.16650027
  PAW double counting   =     10738.42099860    -9719.93139476
  entropy T*S    EENTRO =        -0.01759806
  eigenvalues    EBANDS =      -645.94410572
  atomic energy  EATOM  =     13036.45147835
  Solvation  Ediel_sol  =         0.00000000
  ---------------------------------------------------
  free energy    TOTEN  =       -63.89528660 eV

  energy without entropy =      -63.87768854  energy(sigma->0) =      -63.88648757


--------------------------------------------------------------------------------------------------------




--------------------------------------- Iteration      1(   3)  ---------------------------------------


     EDDAV:  cpu time      9.9268: real time      9.9845
       DOS:  cpu time      0.0011: real time      0.0011
    --------------------------------------------
      LOOP:  cpu time      9.9280: real time      9.9856

 eigenvalue-minimisations  :  8648
 total energy-change (2. order) :-0.2180205E+03  (-0.2121698E+03)
 number of electron     360.0000000 magnetization      72.0000000
 augmentation part      360.0000000 magnetization      72.0000000

 Free energy of the ion-electron system (eV)
  ---------------------------------------------------
  alpha Z        PSCENC =       795.97843450
  Ewald energy   TEWEN  =    -12873.65159565
  -Hartree energ DENC   =     -1101.03500360
  -exchange      EXHF   =         0.00000000
  -V(xc)+E(xc)   XCENC  =      -294.16650027
  PAW double counting   =     10738.42099860    -9719.93139476
  entropy T*S    EENTRO =        -0.00004491
  eigenvalues    EBANDS =      -863.98219529
  atomic energy  EATOM  =     13036.45147835
  Solvation  Ediel_sol  =         0.00000000
  ---------------------------------------------------
  free energy    TOTEN  =      -281.91582303 eV

  energy without entropy =     -281.91577811  energy(sigma->0) =     -281.91580057


--------------------------------------------------------------------------------------------------------




--------------------------------------- Iteration      1(   4)  ---------------------------------------


     EDDAV:  cpu time      9.9691: real time     10.0222
       DOS:  cpu time      0.0011: real time      0.0011
    --------------------------------------------
      LOOP:  cpu time      9.9702: real time     10.0233

 eigenvalue-minimisations  :  8760
 total energy-change (2. order) :-0.7882525E+01  (-0.7795894E+01)
 number of electron     360.0000000 magnetization      72.0000000
 augmentation part      360.0000000 magnetization      72.0000000

 Free energy of the ion-electron system (eV)
  ---------------------------------------------------
  alpha Z        PSCENC =       795.97843450
  Ewald energy   TEWEN  =    -12873.65159565
  -Hartree energ DENC   =     -1101.03500360
  -exchange      EXHF   =         0.00000000
  -V(xc)+E(xc)   XCENC  =      -294.16650027
  PAW double counting   =     10738.42099860    -9719.93139476
  entropy T*S    EENTRO =        -0.00000639
  eigenvalues    EBANDS =      -871.86475909
  atomic energy  EATOM  =     13036.45147835
  Solvation  Ediel_sol  =         0.00000000
  ---------------------------------------------------
  free energy    TOTEN  =      -289.79834829 eV

  energy without entropy =     -289.79834191  energy(sigma->0) =     -289.79834510


--------------------------------------------------------------------------------------------------------




--------------------------------------- Iteration      1(   5)  ---------------------------------------


     EDDAV:  cpu time     10.3439: real time     10.3969
       DOS:  cpu time      0.0019: real time      0.0019
    CHARGE:  cpu time      0.4473: real time      0.4491
    MIXING:  cpu time      0.0072: real time      0.0073
    --------------------------------------------
      LOOP:  cpu time     10.8003: real time     10.8552

 eigenvalue-minimisations  :  9056
 total energy-change (2. order) :-0.2826858E+00  (-0.2819291E+00)
 number of electron     359.9999997 magnetization      48.7569736
 augmentation part      -66.8407493 magnetization      48.9695848

 Broyden mixing:
  rms(total) = 0.29074E+01    rms(broyden)= 0.29074E+01
  rms(prec ) = 0.30641E+01
  weight for this iteration     100.00

 Free energy of the ion-electron system (eV)
  ---------------------------------------------------
  alpha Z        PSCENC =       795.97843450
  Ewald energy   TEWEN  =    -12873.65159565
  -Hartree energ DENC   =     -1101.03500360
  -exchange      EXHF   =         0.00000000
  -V(xc)+E(xc)   XCENC  =      -294.16650027
  PAW double counting   =     10738.42099860    -9719.93139476
  entropy T*S    EENTRO =        -0.00000636
  eigenvalues    EBANDS =      -872.14744493
  atomic energy  EATOM  =     13036.45147835
  Solvation  Ediel_sol  =         0.00000000
  ---------------------------------------------------
  free energy    TOTEN  =      -290.08103411 eV

  energy without entropy =     -290.08102775  energy(sigma->0) =     -290.08103093


--------------------------------------------------------------------------------------------------------




--------------------------------------- Iteration      1(   6)  ---------------------------------------


    POTLOK:  cpu time      0.1346: real time      0.1364
    SETDIJ:  cpu time      0.5976: real time      0.5995
     EDDAV:  cpu time      9.3009: real time      9.3496
       DOS:  cpu time      0.0012: real time      0.0012
    CHARGE:  cpu time      0.4399: real time      0.4415
    MIXING:  cpu time      0.0078: real time      0.0078
    --------------------------------------------
      LOOP:  cpu time     10.4819: real time     10.5360

 eigenvalue-minimisations  :  7928
 total energy-change (2. order) : 0.5999177E+00  (-0.2709820E+01)
 number of electron     359.9999997 magnetization      27.8667190
 augmentation part      -66.2297182 magnetization      29.0541832

 Broyden mixing:
  rms(total) = 0.17214E+01    rms(broyden)= 0.17214E+01
  rms(prec ) = 0.17581E+01
  weight for this iteration     100.00

 eigenvalues of (default mixing * dielectric matrix)
  average eigenvalue GAMMA=   1.0081
  1.0081

 Free energy of the ion-electron system (eV)
  ---------------------------------------------------
  alpha Z        PSCENC =       795.97843450
  Ewald energy   TEWEN  =    -12873.65159565
  -Hartree energ DENC   =     -1154.69512840
  -exchange      EXHF   =         0.00000000
  -V(xc)+E(xc)   XCENC  =      -287.69030956
  PAW double counting   =     12994.86814946   -11979.84550463
  entropy T*S    EENTRO =        -0.00000125
  eigenvalues    EBANDS =      -820.89663925
  atomic energy  EATOM  =     13036.45147835
  Solvation  Ediel_sol  =         0.00000000
  ---------------------------------------------------
  free energy    TOTEN  =      -289.48111642 eV

  energy without entropy =     -289.48111517  energy(sigma->0) =     -289.48111579


--------------------------------------------------------------------------------------------------------




--------------------------------------- Iteration      1(   7)  ---------------------------------------


    POTLOK:  cpu time      0.1309: real time      0.1316
    SETDIJ:  cpu time      0.5969: real time      0.5987
     EDDAV:  cpu time      9.4259: real time      9.4782
       DOS:  cpu time      0.0014: real time      0.0014
    CHARGE:  cpu time      0.4353: real time      0.4368
    MIXING:  cpu time      0.0074: real time      0.0074
    --------------------------------------------
      LOOP:  cpu time     10.5977: real time     10.6540

 eigenvalue-minimisations  :  8064
 total energy-change (2. order) :-0.7492421E+01  (-0.8714041E+00)
 number of electron     359.9999997 magnetization       9.2461272
 augmentation part      -66.2119555 magnetization       9.9222544

 Broyden mixing:
  rms(total) = 0.90477E+00    rms(broyden)= 0.90477E+00
  rms(prec ) = 0.92066E+00
  weight for this iteration     100.00

 eigenvalues of (default mixing * dielectric matrix)
  average eigenvalue GAMMA=   1.4499
  0.8642  2.0356

 Free energy of the ion-electron system (eV)
  ---------------------------------------------------
  alpha Z        PSCENC =       795.97843450
  Ewald energy   TEWEN  =    -12873.65159565
  -Hartree energ DENC   =     -1171.67051627
  -exchange      EXHF   =         0.00000000
  -V(xc)+E(xc)   XCENC  =      -290.62051947
  PAW double counting   =     15060.13798024   -14046.69771005
  entropy T*S    EENTRO =        -0.00000000
  eigenvalues    EBANDS =      -806.90108883
  atomic energy  EATOM  =     13036.45147835
  Solvation  Ediel_sol  =         0.00000000
  ---------------------------------------------------
  free energy    TOTEN  =      -296.97353717 eV

  energy without entropy =     -296.97353717  energy(sigma->0) =     -296.97353717


--------------------------------------------------------------------------------------------------------




--------------------------------------- Iteration      1(   8)  ---------------------------------------


    POTLOK:  cpu time      0.1308: real time      0.1315
    SETDIJ:  cpu time      0.5959: real time      0.5977
     EDDAV:  cpu time      9.3900: real time      9.4352
       DOS:  cpu time      0.0009: real time      0.0009
    CHARGE:  cpu time      0.4499: real time      0.4517
    MIXING:  cpu time      0.0076: real time      0.0076
    --------------------------------------------
      LOOP:  cpu time     10.5750: real time     10.6245

 eigenvalue-minimisations  :  8096
 total energy-change (2. order) :-0.3232992E+01  (-0.1753951E+00)
 number of electron     359.9999997 magnetization       4.3652853
 augmentation part      -66.2255232 magnetization       4.6728254

 Broyden mixing:
  rms(total) = 0.33031E+00    rms(broyden)= 0.33031E+00
  rms(prec ) = 0.33561E+00
  weight for this iteration     100.00

 eigenvalues of (default mixing * dielectric matrix)
  average eigenvalue GAMMA=   1.3583
  2.4937  0.9268  0.6543

 Free energy of the ion-electron system (eV)
  ---------------------------------------------------
  alpha Z        PSCENC =       795.97843450
  Ewald energy   TEWEN  =    -12873.65159565
  -Hartree energ DENC   =     -1175.65150333
  -exchange      EXHF   =         0.00000000
  -V(xc)+E(xc)   XCENC  =      -290.40051795
  PAW double counting   =     16796.25786245   -15783.70248383
  entropy T*S    EENTRO =        -0.00000000
  eigenvalues    EBANDS =      -805.48820330
  atomic energy  EATOM  =     13036.45147835
  Solvation  Ediel_sol  =         0.00000000
  ---------------------------------------------------
  free energy    TOTEN  =      -300.20652876 eV

  energy without entropy =     -300.20652876  energy(sigma->0) =     -300.20652876


--------------------------------------------------------------------------------------------------------




--------------------------------------- Iteration      1(   9)  ---------------------------------------


    POTLOK:  cpu time      0.1311: real time      0.1317
    SETDIJ:  cpu time      0.5978: real time      0.5996
     EDDAV:  cpu time     10.3071: real time     10.3601
       DOS:  cpu time      0.0010: real time      0.0010
    CHARGE:  cpu time      0.4445: real time      0.4462
    MIXING:  cpu time      0.0076: real time      0.0076
    --------------------------------------------
      LOOP:  cpu time     11.4891: real time     11.5462

 eigenvalue-minimisations  :  9120
 total energy-change (2. order) :-0.3781063E+00  (-0.4270300E-01)
 number of electron     359.9999997 magnetization       2.2611624
 augmentation part      -66.2665304 magnetization       2.4125604

 Broyden mixing:
  rms(total) = 0.14748E+00    rms(broyden)= 0.14748E+00
  rms(prec ) = 0.14890E+00
  weight for this iteration     100.00

 eigenvalues of (default mixing * dielectric matrix)
  average eigenvalue GAMMA=   1.3285
  2.6301  1.2306  0.8344  0.6189

 Free energy of the ion-electron system (eV)
  ---------------------------------------------------
  alpha Z        PSCENC =       795.97843450
  Ewald energy   TEWEN  =    -12873.65159565
  -Hartree energ DENC   =     -1174.50515350
  -exchange      EXHF   =         0.00000000
  -V(xc)+E(xc)   XCENC  =      -290.44763613
  PAW double counting   =     17083.73499117   -16071.51571503
  entropy T*S    EENTRO =        -0.00000000
  eigenvalues    EBANDS =      -806.62943875
  atomic energy  EATOM  =     13036.45147835
  Solvation  Ediel_sol  =         0.00000000
  ---------------------------------------------------
  free energy    TOTEN  =      -300.58463503 eV

  energy without entropy =     -300.58463503  energy(sigma->0) =     -300.58463503


--------------------------------------------------------------------------------------------------------




--------------------------------------- Iteration      1(  10)  ---------------------------------------


    POTLOK:  cpu time      0.1304: real time      0.1311
    SETDIJ:  cpu time      0.5963: real time      0.5982
     EDDAV:  cpu time      9.4706: real time      9.5170
       DOS:  cpu time      0.0009: real time      0.0009
    CHARGE:  cpu time      0.4435: real time      0.4452
    MIXING:  cpu time      0.0077: real time      0.0077
    --------------------------------------------
      LOOP:  cpu time     10.6494: real time     10.7001

 eigenvalue-minimisations  :  8144
 total energy-change (2. order) :-0.1038136E+00  (-0.9347011E-02)
 number of electron     359.9999997 magnetization       0.7218316
 augmentation part      -66.2687314 magnetization       0.7887030

 Broyden mixing:
  rms(total) = 0.72242E-01    rms(broyden)= 0.72242E-01
  rms(prec ) = 0.73307E-01
  weight for this iteration     100.00

 eigenvalues of (default mixing * dielectric matrix)
  average eigenvalue GAMMA=   1.3755
  2.7026  1.7531  0.9730  0.8230  0.6259

 Free energy of the ion-electron system (eV)
  ---------------------------------------------------
  alpha Z        PSCENC =       795.97843450
  Ewald energy   TEWEN  =    -12873.65159565
  -Hartree energ DENC   =     -1174.70620643
  -exchange      EXHF   =         0.00000000
  -V(xc)+E(xc)   XCENC  =      -290.44230935
  PAW double counting   =     17093.80003165   -16081.59521108
  entropy T*S    EENTRO =        -0.00000000
  eigenvalues    EBANDS =      -806.52307065
  atomic energy  EATOM  =     13036.45147835
  Solvation  Ediel_sol  =         0.00000000
  ---------------------------------------------------
  free energy    TOTEN  =      -300.68844864 eV

  energy without entropy =     -300.68844864  energy(sigma->0) =     -300.68844864


--------------------------------------------------------------------------------------------------------




--------------------------------------- Iteration      1(  11)  ---------------------------------------


    POTLOK:  cpu time      0.1304: real time      0.1311
    SETDIJ:  cpu time      0.5959: real time      0.5979
     EDDAV:  cpu time     10.0988: real time     10.1483
       DOS:  cpu time      0.0009: real time      0.0009
    CHARGE:  cpu time      0.4352: real time      0.4366
    MIXING:  cpu time      0.0085: real time      0.0085
    --------------------------------------------
      LOOP:  cpu time     11.2697: real time     11.3233

 eigenvalue-minimisations  :  8904
 total energy-change (2. order) :-0.3060259E-01  (-0.3513891E-02)
 number of electron     359.9999997 magnetization       0.1600418
 augmentation part      -66.2535931 magnetization       0.1789622

 Broyden mixing:
  rms(total) = 0.27833E-01    rms(broyden)= 0.27833E-01
  rms(prec ) = 0.28223E-01
  weight for this iteration     100.00

 eigenvalues of (default mixing * dielectric matrix)
  average eigenvalue GAMMA=   1.4072
  2.9129  2.1720  1.1734  0.8585  0.7007  0.6255

 Free energy of the ion-electron system (eV)
  ---------------------------------------------------
  alpha Z        PSCENC =       795.97843450
  Ewald energy   TEWEN  =    -12873.65159565
  -Hartree energ DENC   =     -1175.86876207
  -exchange      EXHF   =         0.00000000
  -V(xc)+E(xc)   XCENC  =      -290.39842712
  PAW double counting   =     17017.76803550   -16005.53833296
  entropy T*S    EENTRO =        -0.00000000
  eigenvalues    EBANDS =      -805.45988179
  atomic energy  EATOM  =     13036.45147835
  Solvation  Ediel_sol  =         0.00000000
  ---------------------------------------------------
  free energy    TOTEN  =      -300.71905124 eV

  energy without entropy =     -300.71905124  energy(sigma->0) =     -300.71905124


--------------------------------------------------------------------------------------------------------




--------------------------------------- Iteration      1(  12)  ---------------------------------------


    POTLOK:  cpu time      0.1307: real time      0.1319
    SETDIJ:  cpu time      0.5969: real time      0.5987
     EDDAV:  cpu time      9.9237: real time      9.9786
       DOS:  cpu time      0.0009: real time      0.0009
    CHARGE:  cpu time      0.4314: real time      0.4328
    MIXING:  cpu time      0.0078: real time      0.0079
    --------------------------------------------
      LOOP:  cpu time     11.0913: real time     11.1508

 eigenvalue-minimisations  :  8616
 total energy-change (2. order) :-0.3213521E-02  (-0.4588975E-03)
 number of electron     359.9999997 magnetization       0.0489109
 augmentation part      -66.2531066 magnetization       0.0527242

 Broyden mixing:
  rms(total) = 0.96912E-02    rms(broyden)= 0.96912E-02
  rms(prec ) = 0.10281E-01
  weight for this iteration     100.00

 eigenvalues of (default mixing * dielectric matrix)
  average eigenvalue GAMMA=   1.3713
  3.0184  2.3364  1.2092  0.8856  0.8856  0.6092  0.6547

 Free energy of the ion-electron system (eV)
  ---------------------------------------------------
  alpha Z        PSCENC =       795.97843450
  Ewald energy   TEWEN  =    -12873.65159565
  -Hartree energ DENC   =     -1175.96099898
  -exchange      EXHF   =         0.00000000
  -V(xc)+E(xc)   XCENC  =      -290.40201539
  PAW double counting   =     16981.50243446   -15969.24987898
  entropy T*S    EENTRO =        -0.00000000
  eigenvalues    EBANDS =      -805.39012308
  atomic energy  EATOM  =     13036.45147835
  Solvation  Ediel_sol  =         0.00000000
  ---------------------------------------------------
  free energy    TOTEN  =      -300.72226476 eV

  energy without entropy =     -300.72226476  energy(sigma->0) =     -300.72226476


--------------------------------------------------------------------------------------------------------




--------------------------------------- Iteration      1(  13)  ---------------------------------------


    POTLOK:  cpu time      0.1296: real time      0.1303
    SETDIJ:  cpu time      0.5962: real time      0.5981
     EDDAV:  cpu time     10.9042: real time     10.9566
       DOS:  cpu time      0.0007: real time      0.0007
    CHARGE:  cpu time      0.4421: real time      0.4436
    MIXING:  cpu time      0.0075: real time      0.0079
    --------------------------------------------
      LOOP:  cpu time     12.0804: real time     12.1372

 eigenvalue-minimisations  :  9776
 total energy-change (2. order) :-0.8821634E-04  (-0.4910253E-04)
 number of electron     359.9999997 magnetization       0.0136004
 augmentation part      -66.2547200 magnetization       0.0142140

 Broyden mixing:
  rms(total) = 0.38532E-02    rms(broyden)= 0.38532E-02
  rms(prec ) = 0.40584E-02
  weight for this iteration     100.00

 eigenvalues of (default mixing * dielectric matrix)
  average eigenvalue GAMMA=   1.3419
  3.0568  2.4264  1.1499  0.9968  0.9968  0.8507  0.6485  0.6089

 Free energy of the ion-electron system (eV)
  ---------------------------------------------------
  alpha Z        PSCENC =       795.97843450
  Ewald energy   TEWEN  =    -12873.65159565
  -Hartree energ DENC   =     -1175.84533182
  -exchange      EXHF   =         0.00000000
  -V(xc)+E(xc)   XCENC  =      -290.41338770
  PAW double counting   =     16968.23615206   -15955.97255602
  entropy T*S    EENTRO =        -0.00000000
  eigenvalues    EBANDS =      -805.50554670
  atomic energy  EATOM  =     13036.45147835
  Solvation  Ediel_sol  =         0.00000000
  ---------------------------------------------------
  free energy    TOTEN  =      -300.72235297 eV

  energy without entropy =     -300.72235297  energy(sigma->0) =     -300.72235297


--------------------------------------------------------------------------------------------------------




--------------------------------------- Iteration      1(  14)  ---------------------------------------


    POTLOK:  cpu time      0.1295: real time      0.1301
    SETDIJ:  cpu time      0.5962: real time      0.5978
     EDDAV:  cpu time      9.5651: real time      9.6167
       DOS:  cpu time      0.0007: real time      0.0007
    CHARGE:  cpu time      0.4435: real time      0.4451
    MIXING:  cpu time      0.0085: real time      0.0085
    --------------------------------------------
      LOOP:  cpu time     10.7435: real time     10.7990

 eigenvalue-minimisations  :  8296
 total energy-change (2. order) :-0.1093142E-04  (-0.7435408E-05)
 number of electron     359.9999997 magnetization       0.0044152
 augmentation part      -66.2544332 magnetization       0.0047211

 Broyden mixing:
  rms(total) = 0.15789E-02    rms(broyden)= 0.15789E-02
  rms(prec ) = 0.16872E-02
  weight for this iteration     100.00

 eigenvalues of (default mixing * dielectric matrix)
  average eigenvalue GAMMA=   1.3339
  3.0772  2.4635  1.4776  1.1915  0.8874  0.8874  0.7686  0.6106  0.6411

 Free energy of the ion-electron system (eV)
  ---------------------------------------------------
  alpha Z        PSCENC =       795.97843450
  Ewald energy   TEWEN  =    -12873.65159565
  -Hartree energ DENC   =     -1175.83994237
  -exchange      EXHF   =         0.00000000
  -V(xc)+E(xc)   XCENC  =      -290.41460696
  PAW double counting   =     16964.18970304   -15951.92332108
  entropy T*S    EENTRO =        -0.00000000
  eigenvalues    EBANDS =      -805.51251374
  atomic energy  EATOM  =     13036.45147835
  Solvation  Ediel_sol  =         0.00000000
  ---------------------------------------------------
  free energy    TOTEN  =      -300.72236391 eV

  energy without entropy =     -300.72236391  energy(sigma->0) =     -300.72236391


--------------------------------------------------------------------------------------------------------




--------------------------------------- Iteration      1(  15)  ---------------------------------------


    POTLOK:  cpu time      0.1297: real time      0.1304
    SETDIJ:  cpu time      0.6026: real time      0.6044
     EDDAV:  cpu time      9.9767: real time     10.0246
       DOS:  cpu time      0.0008: real time      0.0008
    CHARGE:  cpu time      0.4407: real time      0.4424
    MIXING:  cpu time      0.0080: real time      0.0081
    --------------------------------------------
      LOOP:  cpu time     11.1586: real time     11.2107

 eigenvalue-minimisations  :  8696
 total energy-change (2. order) :-0.2632635E-05  (-0.1391691E-05)
 number of electron     359.9999997 magnetization       0.0016104
 augmentation part      -66.2545908 magnetization       0.0018144

 Broyden mixing:
  rms(total) = 0.72090E-03    rms(broyden)= 0.72090E-03
  rms(prec ) = 0.76335E-03
  weight for this iteration     100.00

 eigenvalues of (default mixing * dielectric matrix)
  average eigenvalue GAMMA=   1.3040
  3.0864  2.4353  1.7005  1.1182  0.9621  0.9621  0.8223  0.7123  0.6206  0.6206

 Free energy of the ion-electron system (eV)
  ---------------------------------------------------
  alpha Z        PSCENC =       795.97843450
  Ewald energy   TEWEN  =    -12873.65159565
  -Hartree energ DENC   =     -1175.82724986
  -exchange      EXHF   =         0.00000000
  -V(xc)+E(xc)   XCENC  =      -290.41495550
  PAW double counting   =     16963.83562770   -15951.56852431
  entropy T*S    EENTRO =        -0.00000000
  eigenvalues    EBANDS =      -805.52558178
  atomic energy  EATOM  =     13036.45147835
  Solvation  Ediel_sol  =         0.00000000
  ---------------------------------------------------
  free energy    TOTEN  =      -300.72236654 eV

  energy without entropy =     -300.72236654  energy(sigma->0) =     -300.72236654


--------------------------------------------------------------------------------------------------------




--------------------------------------- Iteration      1(  16)  ---------------------------------------


    POTLOK:  cpu time      0.1300: real time      0.1307
    SETDIJ:  cpu time      0.5975: real time      0.5992
     EDDAV:  cpu time      6.5255: real time      6.5577
       DOS:  cpu time      0.0007: real time      0.0007
    --------------------------------------------
      LOOP:  cpu time      7.2537: real time      7.2884

 eigenvalue-minimisations  :  4760
 total energy-change (2. order) :-0.8443312E-06  (-0.1461144E-06)
 number of electron     359.9999997 magnetization       0.0016104
 augmentation part      -66.2545908 magnetization       0.0018144

 Free energy of the ion-electron system (eV)
  ---------------------------------------------------
  alpha Z        PSCENC =       795.97843450
  Ewald energy   TEWEN  =    -12873.65159565
  -Hartree energ DENC   =     -1175.82304090
  -exchange      EXHF   =         0.00000000
  -V(xc)+E(xc)   XCENC  =      -290.41504419
  PAW double counting   =     16963.88681228   -15951.61955226
  entropy T*S    EENTRO =        -0.00000000
  eigenvalues    EBANDS =      -805.52985952
  atomic energy  EATOM  =     13036.45147835
  Solvation  Ediel_sol  =         0.00000000
  ---------------------------------------------------
  free energy    TOTEN  =      -300.72236738 eV

  energy without entropy =     -300.72236738  energy(sigma->0) =     -300.72236738


--------------------------------------------------------------------------------------------------------




 average (electrostatic) potential at core
  the test charge radii are     1.1631  1.0808
  (the norm of the test charge is              1.0000)
       1 -33.5555       2 -33.3807       3 -33.6506       4 -33.5065       5 -33.4765
       6 -33.5249       7 -33.4042       8 -33.5239       9 -33.3015      10 -33.3076
      11 -33.5071      12 -33.4513      13 -33.3158      14 -33.3114      15 -33.4997
      16 -33.5287      17 -33.5244      18 -33.6273      19 -33.5822      20 -33.2543
      21 -33.3611      22 -33.4732      23 -33.5788      24 -33.4214      25 -33.4706
      26 -33.7206      27 -33.5235      28 -33.3960      29 -33.2708      30 -33.5577
      31 -33.5552      32 -33.5567      33 -33.6056      34 -33.6310      35 -33.5342
      36 -33.7858      37 -54.7410      38 -54.6789      39 -54.7337      40 -54.9316
      41 -54.7201      42 -55.1166      43 -54.8549      44 -55.0364      45 -54.7556
      46 -54.8321      47 -54.8807      48 -54.7048      49 -54.9080      50 -54.8561
      51 -54.8700      52 -54.8626      53 -54.8445      54 -54.7802      55 -54.9289
      56 -55.0583      57 -54.7509      58 -54.8449      59 -54.8780      60 -54.8512
      61 -54.8358      62 -54.7612      63 -54.7615      64 -54.6113      65 -54.8835
      66 -54.9984      67 -54.8257      68 -54.8448      69 -54.8780      70 -54.9886
      71 -54.7042      72 -54.8411
 
 
 
 E-fermi :   3.4516     XC(G=0):  -9.3733     alpha+bet : -8.8108

 Fermi energy:         3.4516076615

 spin component 1

 k-point     1 :       0.0000    0.0000    0.0000
  band No.  band energies     occupation 
      1     -10.8698      1.00000
      2     -10.5053      1.00000
      3     -10.3860      1.00000
      4     -10.3389      1.00000
      5     -10.3065      1.00000
      6     -10.2588      1.00000
      7     -10.0839      1.00000
      8     -10.0524      1.00000
      9      -9.9805      1.00000
     10      -9.9236      1.00000
     11      -9.8728      1.00000
     12      -9.8336      1.00000
     13      -9.7867      1.00000
     14      -9.7797      1.00000
     15      -9.7023      1.00000
     16      -9.6302      1.00000
     17      -9.5957      1.00000
     18      -9.5466      1.00000
     19      -9.5319      1.00000
     20      -9.4656      1.00000
     21      -9.4272      1.00000
     22      -9.3783      1.00000
     23      -9.3638      1.00000
     24      -9.3572      1.00000
     25      -9.3358      1.00000
     26      -9.2445      1.00000
     27      -9.2358      1.00000
     28      -9.2136      1.00000
     29      -9.1550      1.00000
     30      -9.1313      1.00000
     31      -9.0956      1.00000
     32      -9.0656      1.00000
     33      -9.0187      1.00000
     34      -9.0017      1.00000
     35      -8.9443      1.00000
     36      -8.9316      1.00000
     37      -5.4228      1.00000
     38      -5.3746      1.00000
     39      -5.2420      1.00000
     40      -5.2050      1.00000
     41      -5.0719      1.00000
     42      -5.0600      1.00000
     43      -5.0340      1.00000
     44      -4.9667      1.00000
     45      -4.7301      1.00000
     46      -4.6778      1.00000
     47      -4.5901      1.00000
     48      -4.5146      1.00000
     49      -4.4654      1.00000
     50      -4.4523      1.00000
     51      -4.4378      1.00000
     52      -4.4129      1.00000
     53      -4.3769      1.00000
     54      -4.3529      1.00000
     55      -4.3069      1.00000
     56      -4.2724      1.00000
     57      -4.2502      1.00000
     58      -4.2163      1.00000
     59      -4.1868      1.00000
     60      -4.1750      1.00000
     61      -4.1356      1.00000
     62      -4.0546      1.00000
     63      -4.0224      1.00000
     64      -3.9391      1.00000
     65      -3.8928      1.00000
     66      -3.8517      1.00000
     67      -3.7250      1.00000
     68      -3.6662      1.00000
     69      -3.5567      1.00000
     70      -3.5033      1.00000
     71      -2.4838      1.00000
     72      -2.4530      1.00000
     73      -1.8552      1.00000
     74      -1.6011      1.00000
     75      -1.5373      1.00000
     76      -1.5077      1.00000
     77      -1.4524      1.00000
     78      -1.3854      1.00000
     79      -1.3422      1.00000
     80      -1.2452      1.00000
     81      -1.2224      1.00000
     82      -1.1485      1.00000
     83      -1.1068      1.00000
     84      -1.0998      1.00000
     85      -1.0253      1.00000
     86      -0.8378      1.00000
     87      -0.8061      1.00000
     88      -0.7474      1.00000
     89      -0.6878      1.00000
     90      -0.6326      1.00000
     91      -0.5564      1.00000
     92      -0.5497      1.00000
     93      -0.5057      1.00000
     94      -0.2510      1.00000
     95      -0.2241      1.00000
     96      -0.1344      1.00000
     97      -0.1041      1.00000
     98      -0.0119      1.00000
     99       0.0540      1.00000
    100       0.0933      1.00000
    101       0.1079      1.00000
    102       0.1289      1.00000
    103       0.1700      1.00000
    104       0.2503      1.00000
    105       0.2676      1.00000
    106       0.2960      1.00000
    107       0.3271      1.00000
    108       0.3628      1.00000
    109       0.3964      1.00000
    110       0.4058      1.00000
    111       0.5021      1.00000
    112       0.5278      1.00000
    113       0.5572      1.00000
    114       0.5901      1.00000
    115       0.6196      1.00000
    116       0.6415      1.00000
    117       0.6816      1.00000
    118       0.7164      1.00000
    119       0.7712      1.00000
    120       0.8250      1.00000
    121       0.8420      1.00000
    122       0.8885      1.00000
    123       0.8955      1.00000
    124       0.9397      1.00000
    125       0.9617      1.00000
    126       1.0157      1.00000
    127       1.0460      1.00000
    128       1.0784      1.00000
    129       1.0970      1.00000
    130       1.1325      1.00000
    131       1.1693      1.00000
    132       1.1892      1.00000
    133       1.2110      1.00000
    134       1.2643      1.00000
    135       1.3218      1.00000
    136       1.3626      1.00000
    137       1.4445      1.00000
    138       1.4524      1.00000
    139       1.4931      1.00000
    140       1.4947      1.00000
    141       1.5472      1.00000
    142       1.5764      1.00000
    143       1.6093      1.00000
    144       1.6806      1.00000
    145       1.7364      1.00000
    146       1.7499      1.00000
    147       1.7929      1.00000
    148       1.8391      1.00000
[...]
   0.942E+01 -.497E+01 -.250E+02   -.842E+01 0.569E+01 0.277E+02   -.112E+01 -.650E+00 -.245E+01   -.692E-04 0.376E-04 0.102E-03
   -.136E+02 -.434E+01 0.191E+02   0.156E+02 0.443E+01 -.208E+02   -.182E+01 -.884E-01 0.212E+01   -.869E-05 0.836E-04 -.171E-03
   -.561E+01 0.110E+02 0.292E+02   0.599E+01 -.125E+02 -.307E+02   -.346E+00 0.125E+01 0.823E+00   0.132E-03 -.853E-04 -.309E-03
   -.943E+00 0.868E+01 0.207E+02   0.634E+00 -.960E+01 -.227E+02   0.146E+00 0.968E+00 0.194E+01   -.861E-04 0.128E-03 0.336E-03
   0.175E+01 0.217E+02 0.205E+02   -.171E+01 -.229E+02 -.221E+02   -.626E+00 0.132E+01 0.206E+01   0.368E-05 0.130E-03 -.939E-04
   0.940E+00 0.719E+01 0.239E+02   -.131E+01 -.889E+01 -.252E+02   0.826E-01 0.128E+01 0.181E+01   0.225E-03 0.881E-04 -.604E-04
   -.137E+02 0.261E+02 0.659E+01   0.139E+02 -.276E+02 -.780E+01   0.174E+00 0.119E+01 0.170E+01   0.881E-04 0.415E-04 0.514E-04
   0.210E+02 0.129E+01 0.146E+02   -.226E+02 -.116E+01 -.163E+02   0.110E+01 -.522E+00 0.195E+01   0.105E-03 0.238E-04 -.429E-04
   0.234E+02 -.231E+01 0.231E+02   -.245E+02 0.259E+01 -.250E+02   0.122E+01 -.258E+00 0.219E+01   0.227E-03 0.383E-04 -.420E-04
   0.145E+02 0.355E+01 -.205E+02   -.155E+02 -.387E+01 0.219E+02   0.113E+01 0.185E+00 -.154E+01   0.150E-03 0.458E-04 0.159E-03
   0.892E+01 -.260E+02 -.274E+02   -.890E+01 0.274E+02 0.290E+02   -.318E+00 -.125E+01 -.205E+01   -.251E-03 -.284E-03 0.177E-03
   0.172E+02 0.103E+02 -.263E+02   -.183E+02 -.108E+02 0.283E+02   0.122E+01 0.288E+00 -.186E+01   -.118E-03 -.435E-04 0.696E-04
   -.534E-01 -.128E+01 -.286E+02   0.220E+00 0.210E+01 0.303E+02   -.236E+00 -.120E+01 -.141E+01   0.129E-03 0.196E-03 0.169E-03
   -.139E+02 -.110E+02 -.943E+01   0.142E+02 0.114E+02 0.108E+02   0.755E-01 -.732E+00 -.202E+01   0.236E-04 -.235E-03 0.421E-04
   -.974E+01 -.602E+01 -.282E+02   0.986E+01 0.716E+01 0.301E+02   0.985E-01 -.128E+01 -.152E+01   0.237E-03 -.329E-04 0.345E-04
   0.148E+02 0.111E+02 -.351E+02   -.160E+02 -.116E+02 0.374E+02   0.129E+01 0.533E+00 -.172E+01   -.178E-03 0.576E-04 -.194E-04
   0.279E+02 -.124E+02 0.152E+02   -.294E+02 0.127E+02 -.168E+02   0.122E+01 -.524E+00 0.214E+01   -.803E-05 -.154E-03 -.365E-03
   0.340E+01 0.910E+01 0.220E+02   -.365E+01 -.102E+02 -.238E+02   0.131E-02 0.109E+01 0.162E+01   0.178E-03 -.482E-04 0.232E-03
   0.153E+02 0.117E+02 0.234E+02   -.161E+02 -.120E+02 -.250E+02   0.704E+00 -.262E+00 0.121E+01   0.400E-04 0.373E-03 0.218E-04
   0.101E+02 -.339E+01 0.204E+02   -.108E+02 0.364E+01 -.220E+02   0.581E+00 0.936E-01 0.200E+01   0.826E-04 -.580E-04 -.438E-04
   0.190E+02 0.266E+01 0.241E+02   -.200E+02 -.301E+01 -.261E+02   0.764E+00 -.612E-01 0.252E+01   -.375E-03 -.245E-03 0.927E-04
   0.977E+01 -.430E+01 -.271E+02   -.100E+02 0.536E+01 0.290E+02   -.319E+00 -.107E+01 -.217E+01   -.105E-03 -.157E-03 -.197E-03
   0.859E+01 0.835E-01 -.270E+02   -.925E+01 -.546E+00 0.291E+02   0.102E+01 0.464E+00 -.195E+01   0.388E-04 0.141E-03 -.273E-03
   -.517E+01 0.139E+02 -.373E+02   0.543E+01 -.150E+02 0.397E+02   0.206E-01 0.134E+01 -.177E+01   0.365E-04 0.239E-03 -.409E-04
   -.266E+01 0.122E+02 -.163E+02   0.284E+01 -.134E+02 0.177E+02   -.270E+00 0.128E+01 -.191E+01   -.269E-03 -.273E-03 -.116E-03
   -.122E+02 -.154E+01 -.214E+02   0.124E+02 0.255E+00 0.228E+02   0.533E+00 0.139E+01 -.144E+01   0.167E-03 0.367E-03 -.782E-04
   -.118E+02 0.256E+02 -.256E+02   0.123E+02 -.273E+02 0.273E+02   -.271E+00 0.157E+01 -.166E+01   -.122E-03 -.111E-03 -.470E-05
   0.145E+01 0.315E+01 -.319E+02   -.160E+01 -.313E+01 0.337E+02   0.497E+00 -.359E+00 -.170E+01   0.184E-03 -.159E-03 -.647E-04
   -.394E+01 -.131E+02 -.211E+02   0.444E+01 0.126E+02 0.221E+02   -.623E+00 0.105E+01 -.158E+01   -.243E-03 -.838E-05 0.100E-03
   0.216E+02 0.249E+02 -.157E+02   -.227E+02 -.256E+02 0.172E+02   0.633E+00 -.156E-01 -.213E+01   0.182E-03 0.125E-03 -.598E-04
   0.646E+01 0.198E+02 -.151E+02   -.692E+01 -.216E+02 0.161E+02   -.297E+00 0.114E+01 -.126E+01   0.885E-04 0.692E-04 0.582E-04
   0.185E+02 0.160E+01 0.302E+02   -.198E+02 -.119E+01 -.320E+02   0.676E+00 0.532E-01 0.172E+01   -.130E-04 0.125E-03 -.387E-03
   -.458E+01 -.181E+02 0.317E+02   0.465E+01 0.195E+02 -.336E+02   0.213E-01 -.125E+01 0.180E+01   0.164E-03 -.818E-04 0.250E-03
   -.134E+02 -.228E+02 0.209E+02   0.141E+02 0.241E+02 -.224E+02   -.124E+00 -.824E+00 0.185E+01   0.298E-03 0.118E-03 -.586E-04
   0.107E+02 0.192E+02 0.410E+02   -.114E+02 -.197E+02 -.429E+02   0.791E+00 0.229E+00 0.182E+01   -.494E-04 -.403E-03 -.281E-04
   0.657E+01 -.565E+01 0.251E+02   -.737E+01 0.565E+01 -.270E+02   0.113E+01 0.898E-01 0.150E+01   -.890E-04 0.165E-03 -.334E-04
   -.122E+02 -.253E+01 0.315E+02   0.129E+02 0.344E+01 -.331E+02   -.309E+00 -.123E+01 0.145E+01   0.881E-04 -.150E-03 -.102E-03
   -.604E+01 -.190E+02 -.899E+01   0.625E+01 0.202E+02 0.980E+01   -.151E+00 -.107E+01 -.133E+01   0.995E-05 0.177E-05 0.314E-03
 -----------------------------------------------------------------------------------------------
   0.173E+02 0.644E+01 0.303E+00   0.355E-14 -.497E-13 0.274E-12   -.173E+02 -.644E+01 -.303E+00   0.124E-03 -.394E-03 -.507E-03
 
 
 POSITION                                       TOTAL-FORCE (eV/Angst)
 -----------------------------------------------------------------------------------
      0.70262      0.37217      1.45799         0.208960      0.036562      0.276564
      2.85270     10.72330      4.10345         0.093179      0.328842      0.027079
      7.08740      2.55178      4.03738        -0.155210      0.064627     -0.165879
      7.31807      6.67990      3.94239        -0.290467      0.313100      0.136979
      6.85448     10.61883      4.00005        -0.203687      0.220169      0.366962
     10.96466      2.46384      4.03520         0.563113     -0.311359     -0.235934
     11.20155      6.76165      4.23596         0.124704      0.039888     -0.142119
     11.34017     10.96913      4.20210         0.142133      0.243736      0.229296
      0.55283      2.16894      7.09246        -0.120614     -0.077764     -0.344238
      0.77790      5.97934      7.12587         0.246474     -0.000898     -0.825795
      0.80041     10.22501      6.91575         0.158810     -0.088252      0.417369
      5.07457      1.69825      6.87422         0.031216      0.230105      0.023771
      4.93565      6.18460      6.88757        -0.306539     -0.112968      0.067448
      4.57480     10.56915      6.92928         0.181881     -0.123250      0.063936
      9.01629      1.64606      6.75020         0.421754      0.496084      0.682707
      8.70237      6.38790      6.94502         0.226608     -0.215378      0.502647
      2.79522      6.45129      4.07888        -0.182961      0.180974      0.192190
      3.10875      2.52479      4.06860        -0.101773      0.148238     -0.360944
      9.14457      9.99901      6.78693         0.755070      0.601070      0.121595
     11.40108      8.09467      9.60690         0.110872      0.031311      0.101728
     11.18252     12.14912      9.90654         0.549046      0.629011      0.025800
      0.86909      4.37007      1.54288        -0.194427      0.284947     -0.213293
      0.79419      8.63528      1.42245        -0.087576      0.539901     -0.077528
      4.94520      0.47900      1.39134        -0.116577     -0.316959      0.447355
      4.91947      4.65837      1.36427         0.425386     -0.584653     -0.395658
      9.07613      0.11259      1.43016        -0.431593      0.033798      0.161971
      9.34826      4.55460      1.51815        -0.235330      0.388676     -0.139057
      4.85468      8.69138      1.46572        -0.025437     -0.138410     -0.478840
      3.01842      3.80385      9.52872        -0.163848      0.266295      0.102579
      2.89655      8.08921      9.73571        -0.193388      0.038229     -0.660551
      2.68203     12.36594      9.64475         0.027214      0.254297     -0.343856
      6.97522      3.77935      9.76694        -0.105660     -0.049408     -0.342359
      6.78445      8.52869      9.50717        -0.269991     -0.094560      0.091929
      7.31469     12.24960      9.65223        -0.265405      0.027561     -0.542333
     10.94914      4.07494      9.36106        -0.108349      0.074556      0.317858
      8.97371      8.62033      1.25393         0.125574      0.001196      0.465528
     11.19014      0.32896      7.43176         0.037459     -0.247784     -0.609241
      3.05978      4.32698      7.02150        -0.162915      0.044706      0.024339
      2.95093      8.57684      7.05154        -0.585712      0.117741      0.557693
      7.18598     12.49293      7.00203        -0.284476     -0.422924      0.493254
      6.88591      4.54885      7.09857         0.443151     -0.284340      0.495350
      7.15524      8.54121      6.97669        -0.480036     -0.388115      0.201758
     11.25354      4.25318      6.88708         0.091346      0.018616      0.235432
      9.41051      0.31340      3.98265         0.059472     -0.135687     -0.141568
      1.06450      0.13436      4.05032        -0.303792      0.147422     -0.360133
      1.12304      4.43468      4.02238         0.105021     -0.214101      0.087879
      0.89613      8.40899      3.90202        -0.069115     -0.369864      0.313723
      4.86705      0.08893      4.07550         0.343339     -0.333081     -0.698417
      5.14986      4.34303      3.83290         0.211256     -0.134228      0.385874
      5.29264      8.52975      3.88177         0.056883     -0.023056      0.572068
      2.99963      0.17265      6.98464        -0.258707     -0.190061      0.575195
     11.41360      8.42854      7.08512        -0.248231     -0.013392     -0.145443
     11.45759     10.76381      1.72493        -0.066384     -0.524407     -0.412359
      3.10703      2.27963      1.43170        -0.145426      0.340085      0.427386
     11.52344      2.49811      1.43296        -0.306011     -0.412427      0.522540
      9.23017      4.30125      4.05597        -0.589444     -0.010923     -0.236517
      0.87819      2.27384      9.54970         0.364063      0.001882      0.177228
      0.85327      6.22294      9.54648         0.286443      0.277484      0.693599
      0.85521     10.55787      9.58734        -0.091258      0.099851     -0.525482
      4.92544      2.04181      9.41791         0.703335      0.114607      0.030452
      4.97959      6.61666      9.42960         0.188263     -0.082455      0.069502
      4.99239     10.70206      9.46391         0.351508     -0.339873      0.057143
      9.01531      2.15796      9.50593        -0.118488      0.490517     -0.577900
      9.36851      6.64053      9.59422        -0.480920     -0.755949     -0.583127
      9.36533     10.56474      9.49075        -0.757959     -0.695183     -0.234734
      3.27072      6.47208      1.56743        -0.651441      0.460671     -0.089936
      2.86805     10.36943      1.59609         0.087780      0.094311     -0.099104
      7.03644      1.93987      1.50763         0.494968      0.399770      0.254415
      7.31123      6.52242      1.44958         0.146252     -0.246372     -0.049868
      7.20895     10.61063      1.52624         0.333067      0.084349     -0.367558
     11.14788      6.41142      1.69131         0.405712     -0.318749     -0.070948
      9.26761      8.51743      4.07096         0.057836      0.091643     -0.527401
 -----------------------------------------------------------------------------------
    total drift:                               -0.001378     -0.002579     -0.000468


--------------------------------------------------------------------------------------------------------



  FREE ENERGIE OF THE ION-ELECTRON SYSTEM (eV)
  ---------------------------------------------------
  free  energy   TOTEN  =      -300.72236738 eV

  energy  without entropy=     -300.72236738  energy(sigma->0) =     -300.72236738
 


--------------------------------------------------------------------------------------------------------


    POTLOK:  cpu time      0.7259: real time      0.7292


--------------------------------------------------------------------------------------------------------


     LOOP+:  cpu time    181.4239: real time    182.3335
    4ORBIT:  cpu time      0.0000: real time      0.0000



 total charge

# of ion       s       p       d       tot
------------------------------------------
    1        1.329   0.730   0.051   2.111
    2        1.314   0.777   0.058   2.150
    3        1.325   0.736   0.049   2.110
    4        1.316   0.776   0.058   2.150
    5        1.325   0.764   0.055   2.144
    6        1.323   0.772   0.055   2.151
    7        1.327   0.753   0.055   2.135
    8        1.316   0.768   0.056   2.139
    9        1.322   0.782   0.059   2.162
   10        1.319   0.792   0.059   2.170
   11        1.324   0.743   0.050   2.118
   12        1.321   0.768   0.056   2.144
   13        1.317   0.784   0.060   2.161
   14        1.313   0.797   0.060   2.170
   15        1.311   0.780   0.056   2.147
   16        1.324   0.748   0.050   2.122
   17        1.329   0.752   0.054   2.134
   18        1.343   0.696   0.050   2.089
   19        1.336   0.740   0.054   2.130
   20        1.308   0.813   0.064   2.185
   21        1.304   0.821   0.065   2.191
   22        1.332   0.749   0.055   2.136
   23        1.325   0.747   0.055   2.127
   24        1.323   0.764   0.056   2.143
   25        1.316   0.792   0.061   2.170
   26        1.329   0.728   0.051   2.108
   27        1.325   0.754   0.054   2.133
   28        1.312   0.803   0.062   2.177
   29        1.315   0.788   0.056   2.160
   30        1.327   0.732   0.049   2.108
   31        1.332   0.726   0.051   2.109
   32        1.333   0.716   0.042   2.091
   33        1.327   0.744   0.051   2.122
   34        1.333   0.723   0.050   2.106
   35        1.335   0.730   0.049   2.114
   36        1.350   0.673   0.047   2.070
   37        1.472   2.312   0.030   3.814
   38        1.475   2.290   0.028   3.793
   39        1.479   2.280   0.028   3.787
   40        1.478   2.300   0.033   3.811
   41        1.476   2.296   0.027   3.799
   42        1.478   2.317   0.039   3.833
   43        1.483   2.289   0.033   3.805
   44        1.477   2.293   0.032   3.802
   45        1.478   2.282   0.028   3.789
   46        1.478   2.303   0.033   3.813
   47        1.476   2.301   0.032   3.809
   48        1.478   2.269   0.026   3.773
   49        1.475   2.306   0.032   3.813
   50        1.476   2.312   0.034   3.822
   51        1.481   2.287   0.033   3.801
   52        1.476   2.304   0.033   3.812
   53        1.475   2.305   0.032   3.811
   54        1.476   2.287   0.029   3.792
   55        1.479   2.285   0.031   3.795
   56        1.481   2.299   0.036   3.817
   57        1.479   2.293   0.032   3.804
   58        1.478   2.303   0.034   3.814
   59        1.480   2.287   0.031   3.799
   60        1.475   2.302   0.032   3.809
   61        1.476   2.307   0.032   3.815
   62        1.478   2.279   0.028   3.785
   63        1.480   2.273   0.027   3.780
   64        1.478   2.278   0.025   3.781
   65        1.474   2.315   0.033   3.822
   66        1.474   2.327   0.036   3.837
   67        1.477   2.303   0.031   3.811
   68        1.475   2.300   0.029   3.804
   69        1.478   2.290   0.031   3.799
   70        1.476   2.302   0.033   3.812
   71        1.474   2.299   0.029   3.802
   72        1.476   2.285   0.029   3.789
--------------------------------------------------
tot        100.835 109.922   3.084 213.841



 magnetization (x)

# of ion       s       p       d       tot
------------------------------------------
    1       -0.000   0.000  -0.000  -0.000
    2       -0.000   0.000  -0.000  -0.000
    3       -0.000   0.000   0.000   0.000
    4       -0.000   0.000   0.000   0.000
    5       -0.000   0.000   0.000   0.000
    6       -0.000   0.000  -0.000  -0.000
    7       -0.000   0.000   0.000   0.000
    8       -0.000   0.000  -0.000   0.000
    9       -0.000  -0.000  -0.000  -0.000
   10       -0.000  -0.000  -0.000  -0.000
   11       -0.000  -0.000  -0.000  -0.000
   12       -0.000   0.000  -0.000   0.000
   13       -0.000   0.000  -0.000  -0.000
   14       -0.000   0.000   0.000   0.000
   15       -0.000   0.000   0.000   0.000
   16       -0.000   0.000   0.000   0.000
   17       -0.000   0.000  -0.000  -0.000
   18       -0.000  -0.000  -0.000  -0.000
   19       -0.000   0.000   0.000   0.000
   20       -0.000   0.000   0.000   0.000
   21       -0.000   0.000   0.000   0.000
   22       -0.000  -0.000  -0.000  -0.000
   23       -0.000   0.000  -0.000  -0.000
   24       -0.000   0.000   0.000   0.000
   25       -0.000   0.000  -0.000   0.000
   26       -0.000   0.000   0.000   0.000
   27       -0.000   0.000   0.000   0.000
   28       -0.000   0.000   0.000   0.000
   29       -0.000   0.000  -0.000  -0.000
   30       -0.000   0.000  -0.000   0.000
   31       -0.000   0.000  -0.000  -0.000
   32       -0.000   0.000   0.000   0.000
   33       -0.000   0.000   0.000   0.000
   34       -0.000   0.000   0.000   0.000
   35       -0.000   0.000   0.000   0.000
   36       -0.000   0.000   0.000   0.000
   37       -0.000  -0.000  -0.000  -0.000
   38       -0.000  -0.000  -0.000  -0.000
   39       -0.000  -0.000  -0.000  -0.000
   40       -0.000  -0.000   0.000  -0.000
   41       -0.000  -0.000   0.000  -0.000
   42       -0.000  -0.000   0.000  -0.000
   43       -0.000  -0.000   0.000  -0.000
   44       -0.000  -0.000   0.000  -0.000
   45       -0.000  -0.000  -0.000  -0.000
   46       -0.000  -0.000  -0.000  -0.000
   47       -0.000  -0.000  -0.000  -0.000
   48       -0.000  -0.000   0.000  -0.000
   49       -0.000  -0.000   0.000  -0.000
   50       -0.000  -0.000   0.000  -0.000
   51       -0.000  -0.000  -0.000  -0.000
   52       -0.000  -0.000   0.000  -0.000
   53       -0.000  -0.000   0.000  -0.000
   54       -0.000  -0.000  -0.000  -0.000
   55       -0.000  -0.000  -0.000  -0.000
   56       -0.000  -0.000   0.000  -0.000
   57       -0.000  -0.000  -0.000  -0.000
   58       -0.000  -0.000  -0.000  -0.000
   59       -0.000  -0.000  -0.000  -0.000
   60       -0.000  -0.000   0.000  -0.000
   61       -0.000  -0.000   0.000  -0.000
   62       -0.000  -0.000   0.000  -0.000
   63       -0.000  -0.000   0.000  -0.000
   64       -0.000  -0.000   0.000  -0.000
   65       -0.000  -0.000   0.000  -0.000
   66       -0.000  -0.000  -0.000  -0.000
   67       -0.000  -0.000  -0.000  -0.000
   68       -0.000  -0.000   0.000  -0.000
   69       -0.000  -0.000   0.000  -0.000
   70       -0.000  -0.000   0.000  -0.000
   71       -0.000  -0.000   0.000  -0.000
   72       -0.000  -0.000   0.000  -0.000
--------------------------------------------------
tot         -0.000  -0.000   0.000  -0.000
 

 total amount of memory used by VASP MPI-rank0   110764. kBytes
=======================================================================

   base      :      30000. kBytes
   nonl-proj :      16355. kBytes
   fftplans  :       6179. kBytes
   grid      :      15593. kBytes
   one-center:        146. kBytes
   wavefun   :      42491. kBytes
 
  
  
 General timing and accounting informations for this job:
 ========================================================
  
                  Total CPU time used (sec):      193.088
                            User time (sec):      186.885
                          System time (sec):        6.203
                         Elapsed time (sec):      195.669
  
                   Maximum memory used (kb):      319516.
                   Average memory used (kb):          N/A
  
                          Minor page faults:        99072
                          Major page faults:           81
                 Voluntary context switches:         7679
