72
Lattice="12.424829743360148 3.1344797369e-06 7.208636585e-07 3.1574708639e-06 12.515970812796452 -3.6579951402e-06 8.270219202e-07 -4.1661329787e-06 11.07350483781222" Properties=species:S:1:pos:R:3:forces:R:3:magmoms:R:1 energy=-300.792422 stress="-0.001818261714832283 -0.0010507076673977641 -6.131865783370693e-05 -0.0010507076673977641 -0.007432393610920428 -0.0006725538657916235 -6.131865783370693e-05 -0.0006725538657916235 -0.007201575800200318" dipole="_JSON [[0.0, 0.0, 0.0]]" magmom=0.0018026 free_energy=-300.792422 pbc="T T T"
Ge       1.07401171       0.63709458       1.31261421      -0.27799122       0.00574258       0.33187837       0.00000000
Ge       2.84495933      11.01925378       4.32636024      -0.01884931      -0.24937865      -0.31827047      -0.00000000
Ge       6.80906852       2.67283762       4.13962624       0.39892897      -0.34003572       0.41041821       0.00000000
Ge       6.97776563       7.02720727       3.98833465       0.15486497      -0.44834861       0.10674742      -0.00000000
Ge       6.94861321      10.72598267       3.91794242      -0.36417785      -0.20488889       0.69525958      -0.00000000
Ge      10.81596125       2.36188552       4.02877162       0.07663334      -0.11438026       0.25485374       0.00000000
Ge      11.11881435       6.83362586       4.08694488       0.23466135      -0.66312468      -0.02478020      -0.00000000
Ge      11.43854124      11.07317223       4.22640809       0.11033249      -0.13504084       0.12958894      -0.00000000
Ge       0.91977590       1.89970543       6.94944385       0.26099049       0.77028315       0.27074736       0.00000000
Ge       0.48232545       6.16891619       7.06957942       0.77606346       0.80703777      -0.32692573      -0.00000000
Ge       0.88740137      10.05118936       6.81610187      -0.06293858      -0.05416639       0.34878381       0.00000000
Ge       4.82629247       2.26851583       7.13917403      -0.17083526      -0.15392311      -0.61838307       0.00000000
Ge       4.85164985       6.11239023       6.80180313       0.45419548      -0.01047861      -0.24957867      -0.00000000
Ge       5.45800611      10.61990134       7.05223583      -0.29840884      -0.55848257      -0.45146514      -0.00000000
Ge       9.48677380       1.80580738       6.91027568      -0.20182288       0.29783262       0.17119864       0.00000000
Ge       8.97279451       5.98570672       6.76628948       0.22948760       0.19512535       0.38788129      -0.00000000
Ge       2.53021782       6.39992736       4.11286651      -0.01323242      -0.09412876       0.50769086      -0.00000000
Ge       2.96705241       2.69953660       4.08115693       0.07555453      -0.07213483      -0.15024812       0.00000000
Ge       8.90995415      10.43357256       7.06174807       0.13971716      -0.30240174      -0.62140486      -0.00000000
Ge      11.16590836       8.36563452       9.60956747      -0.31223763      -0.39561647      -0.39814678       0.00000000
Ge      11.45947724      12.11040540       9.71875427       0.12693709       0.35864785      -0.28155941       0.00000000
Ge       0.52009395       4.26079878       1.44086486      -0.17083244       0.21277639      -0.17934149       0.00000000
Ge       1.03823591       8.71767297       1.25705508      -0.28654487       0.39062007       0.20948645       0.00000000
Ge       4.96721506       0.48289333       1.45246388      -0.11030180       0.01445002      -0.00290855       0.00000000
Ge       4.90301112       4.70753166       1.41542995       0.64215832       0.11606260       0.23097065       0.00000000
Ge       9.01083083       0.17858915       1.44055491      -0.30993856       0.16856852       0.46939751       0.00000000
Ge       9.09650420       4.59720487       1.42384912      -0.38676303       0.24209629       0.03611806       0.00000000
Ge       4.69591465       8.64987994       1.33409695      -0.02791701      -0.14137367       0.19141153       0.00000000
Ge       2.71321767       4.30122935       9.60133290       0.04322147       0.00005497      -0.02055140       0.00000000
Ge       3.07273957       7.91673931       9.49096757      -0.28026648       0.60050665       0.04869543       0.00000000
Ge       2.95788899      12.24074035       9.47186167       0.01814611       0.10438293       0.30051946       0.00000000
Ge       7.07226989       3.87552446       9.62365895       0.52201267       0.07993516      -0.22227814       0.00000000
Ge       7.09955765       7.86040193       9.91442300       0.41290291       0.70333195      -0.21189750       0.00000000
Ge       6.74461165      12.60839458       9.73352781       0.12691231       0.00577330       0.73008038       0.00000000
Ge      11.04696311       4.11749878       9.66090734       0.13646801      -0.35374088      -0.64001424       0.00000000
Ge       9.37286362       9.00046514       1.34680629      -0.00531614      -0.41684475       0.58885652       0.00000000
Se      11.52083167       0.24922440       7.03459697      -0.47709170      -0.81249308       0.60795790      -0.00000000
Se       3.07903632       4.27486562       7.01704164       0.00297576      -0.10146063       0.23695859      -0.00000000
Se       2.91269988       8.55066377       7.03808506       0.68062689      -0.31372165      -0.00936570      -0.00000000
Se       7.40739059       0.08708585       7.35437445      -0.19269570       0.01195332      -0.78140952      -0.00000000
Se       7.10299358       4.29226914       7.04639629      -0.27693078      -0.17238076       0.20461213      -0.00000000
Se       7.08756083       8.58905621       7.20968294       0.21544229       0.33359137       0.04775878      -0.00000000
Se      11.18656557       4.45534500       6.92388201      -0.77342127      -0.79311374       0.76032054      -0.00000000
Se       9.36804913       0.04270129       4.11907480      -0.22031268       0.45226222      -0.59356335      -0.00000000
Se       1.04563820       0.33739969       3.95364833      -0.10395251      -0.05221644      -0.43788609      -0.00000000
Se       0.89003286       4.20823287       3.91837924       0.21604197       0.40967572       0.31979132      -0.00000000
Se       0.84251426       8.30152134       3.79583179      -0.14766787       0.12945407      -0.01177835      -0.00000000
Se       4.93227054      -0.05190649       3.95831022       0.26702351       0.37389566      -0.05615724      -0.00000000
Se       5.10719932       4.53395681       4.01575132      -0.34280220      -0.08350890      -0.47532830      -0.00000000
Se       5.03139124       8.67312450       3.84723727       0.42504175       0.09770900       0.01621405      -0.00000000
Se       2.92060826       0.28823419       7.00183964       0.37043453      -0.12423469       0.13800114      -0.00000000
Se      11.32440556       8.34171175       7.00406422       0.19439934       0.00405359       0.40314901      -0.00000000
Se      11.37908825      10.61534141       1.71825401       0.23567214       0.00298052      -0.48365849      -0.00000000
Se       3.07240252       2.37334268       1.49776075       0.09836887      -0.17571837       0.26860235      -0.00000000
Se      11.26877205       2.18190837       1.53314910       0.27668866       0.04486756      -0.19677896      -0.00000000
Se       8.97624183       4.18972586       3.96021642       0.00131586       0.02327566      -0.18473930      -0.00000000
Se       0.99651711       2.48660377       9.57188182      -0.59340963      -0.37919719      -0.36536976      -0.00000000
Se       0.97823805       6.33173161       9.57107163       0.12677932      -0.11324447      -0.00498018      -0.00000000
Se       1.02644405      10.46022949       9.46861624      -0.08071690      -0.05297788      -0.34474446      -0.00000000
Se       5.10021121       2.18698456       9.60409300      -0.06299528      -0.09922744       0.17672199      -0.00000000
Se       5.19857427       6.38305941       9.31976974      -0.53505109      -0.68837577       0.26349276      -0.00000000
Se       5.09499020      10.60309960       9.48746846      -0.36256728       0.30177174       0.32107844      -0.00000000
Se       9.32819834       2.17418266       9.42276561      -0.19598673       0.34007131       0.16560825      -0.00000000
Se       9.16538882       6.35212644       9.42314634       0.19002890       0.26392242      -0.29913421      -0.00000000
Se       9.56150096      10.42482318       9.46080008      -0.22042264       0.03474340       0.68285965      -0.00000000
Se       3.09081713       6.43951477       1.67539315      -0.24532585       0.28224757      -0.68886647      -0.00000000
Se       2.90521126      10.48111002       1.66402444      -0.26493389       0.00489575       0.02715430      -0.00000000
Se       6.94411660       2.09593013       1.67576775       0.41133107      -0.18250872      -0.33813235      -0.00000000
Se       7.22536215       6.56557728       1.47525760      -0.20502016      -0.58117673       0.01997282      -0.00000000
Se       7.35640942      10.58473281       1.50913149      -0.17817005       0.27097547      -0.61657240      -0.00000000
Se      11.09348612       6.17297597       1.56445988       0.29579716       0.14317654       0.08903484      -0.00000000
Se       9.23296834       8.44374142       3.99709797      -0.17030828       0.83529480      -0.56365417      -0.00000000
