72
Lattice="12.425795871182519 3.1347234672e-06 7.209197113e-07 3.1550116991e-06 12.50622287336719 -3.655146147e-06 8.264063408e-07 -4.1630319903e-06 11.065262467511598" Properties=species:S:1:pos:R:3:forces:R:3:magmoms:R:1 energy=-300.71888492 stress="0.0009378519137607429 -2.1570306014541488e-05 0.0006373828557616162 -2.1570306014541488e-05 -0.004834038644336708 0.0018329606061369386 0.0006373828557616162 0.0018329606061369386 -0.008293215502898445" dipole="_JSON [[0.0, 0.0, 0.0]]" magmom=0.0016035 free_energy=-300.71888492 pbc="T T T"
Ge       0.88099580       0.69462616       1.50396286       0.03103364      -0.20947282       0.04403302      -0.00000000
Ge       2.77426525      10.86869970       4.04890916      -0.09533435      -0.11343188      -0.01633867      -0.00000000
Ge       7.16869658       2.47850141       3.96460423      -0.28666444       0.11418646       0.35580426       0.00000000
Ge       7.37355710       6.75272752       4.27538082      -0.37479040      -0.06746808      -0.11837948       0.00000000
Ge       6.82932397      10.63595407       4.19675999      -0.19584919       0.27362235      -0.37264769       0.00000000
Ge      10.93409411       2.42903581       4.15372842       0.09761858       0.13471705      -0.13419206       0.00000000
Ge      11.10308399       6.66837237       4.04318733       0.55544563      -0.27328325      -0.18470111       0.00000000
Ge      11.14058976      10.97412832       4.02820579       1.02992687      -0.16572048      -0.26469518       0.00000000
Ge       0.88390623       1.81443601       6.98053181      -0.09600218       0.22142010      -0.33938602       0.00000000
Ge       1.02886528       5.98277885       6.85208703       0.38582410       0.54794548       0.64032392       0.00000000
Ge       1.14648975      10.04705913       6.72604141      -0.43886781       0.33304417       0.62551595       0.00000000
Ge       4.91447348       1.79828702       6.80537147       0.09467005      -0.16399774       0.27315862       0.00000000
Ge       5.07030736       5.91850770       7.06610749       0.12466300       0.20149536       0.25832852       0.00000000
Ge       5.05911343      10.11973725       6.92870524      -0.11348724       0.11393153       0.37662910       0.00000000
Ge       9.10838709       1.86731599       7.01565834      -0.13748638      -0.47914616      -0.09792240       0.00000000
Ge       9.33577427       5.88304189       7.00678338      -0.01092721       0.39072931      -0.16194435       0.00000000
Ge       2.78860656       6.83803701       4.04537013      -0.27021248      -0.41377362      -0.06471503       0.00000000
Ge       3.09580647       2.68896845       4.15456608       0.06781439       0.13225476      -0.01824166       0.00000000
Ge       9.22650671      10.20990804       6.82483236      -0.05569382      -0.01622170       0.43889998       0.00000000
Ge      10.94181901       8.41537507       9.58931738       0.20909176       0.01761368       0.62327650       0.00000000
Ge      11.04979214      12.33238744       9.56759558       0.53671208      -0.12484718       0.24748475      -0.00000000
Ge       0.69850729       4.54143481       1.47409161       0.11907701       0.12640824       0.25114061      -0.00000000
Ge       0.62340377       8.72242900       1.40176227      -0.03669880       0.53421445      -0.27650896      -0.00000000
Ge       4.89675114       0.46319457       1.44422668      -0.37194935      -0.25342976       0.09909680      -0.00000000
Ge       5.10674912       4.86714961       1.37297721       0.59766335      -0.55928599      -0.34599288       0.00000000
Ge       8.81706911       0.28976717       1.22331045      -0.34101934      -0.27489332       0.52606906       0.00000000
Ge       9.01498314       4.69451562       1.15879172       0.33702167      -0.36830575       0.17355765       0.00000000
Ge       4.83991275       8.61000133       1.39881092      -0.43746641       0.16627808       0.18428323       0.00000000
Ge       2.53492308       4.22333387       9.78897227       0.27017415       0.19337489       0.38860815      -0.00000000
Ge       2.93005238       8.25774382       9.58323688      -0.12272214      -0.36488537      -0.17774780      -0.00000000
Ge       2.79465783      12.33260810       9.78081024      -0.05962706      -0.25541453      -0.09985086      -0.00000000
Ge       7.18517338       4.02741368       9.53886098      -0.23050379      -0.42907345       0.65498151       0.00000000
Ge       7.12057537       8.38632339       9.49570817      -0.40238231      -0.32578914       0.23832433       0.00000000
Ge       6.79881904      12.45963173       9.46317866       0.04142826       0.12203698      -0.18139690       0.00000000
Ge      11.07760390       3.98709839       9.60035726       0.60485662       0.00164371       0.72313241       0.00000000
Ge       9.14412822       8.85325019       1.55149482       0.05205949       0.43620151      -0.68745563       0.00000000
Se      11.20631232       0.21228128       7.10147958       0.08902503      -0.20578951      -0.31762373      -0.00000000
Se       3.05944729       4.31805138       7.32236937       0.05637223      -0.17788910      -0.51374936      -0.00000000
Se       3.00608757       8.30618281       6.98453386       0.41330318       0.11161952       0.31293576      -0.00000000
Se       7.00964267      -0.07200038       6.87361710       0.39521568       0.65240960       0.49291980      -0.00000000
Se       7.37452025       4.14089778       7.11981822      -0.25156499       0.42701048      -0.66144955      -0.00000000
Se       7.07910718       8.44804172       6.99327426       0.21480997       0.26139890      -0.07168420      -0.00000000
Se      11.56526546       4.42173518       7.22810602      -1.16353164      -0.61733359      -0.78981733      -0.00000000
Se       9.47642964       0.23774283       3.90427413      -0.95641637       0.82123525      -0.51049885      -0.00000000
Se       0.94948242       0.17962001       4.05088596      -0.24461621      -0.08434514      -0.21160023      -0.00000000
Se       1.23734460       4.52522397       4.06100039      -0.07257395       0.18964905      -0.12722975      -0.00000000
Se       0.67807264       8.48993437       3.91110153       0.05724521      -0.55576342       0.18745213      -0.00000000
Se       4.83896985      -0.08609137       3.98807438       0.30655773       0.09859483      -0.14585662      -0.00000000
Se       5.26879573       4.25314946       3.81350536      -0.32981688       0.12433734       0.66148208      -0.00000000
Se       5.34567036       8.50694023       3.97830941      -0.16531729      -0.09453478      -0.21014538      -0.00000000
Se       2.88396554       0.17729057       7.22698037       0.30117030      -0.13971553       0.03020456      -0.00000000
Se      11.37426835       8.57816196       7.18076817      -0.08675241      -0.29358480      -0.83361699      -0.00000000
Se      11.22701472      10.74435964       1.44167606       0.11008394      -0.67422923       0.44835575      -0.00000000
Se       2.98185065       2.25548951       1.65055255       0.25928639       0.07808198      -0.07923009      -0.00000000
Se      11.51621689       2.59570946       1.63984130      -0.19470492      -0.69171889       0.19616464      -0.00000000
Se       9.05368089       4.26163113       3.75129213       0.20531556      -0.43580888       0.04767650      -0.00000000
Se       0.84822180       2.30333796       9.46917485      -0.31579688      -0.02417173       0.47969296      -0.00000000
Se       1.03096809       6.39751558       9.60757295       0.05043766       0.17281528      -0.56390330      -0.00000000
Se       0.89638551      10.57221965       9.45775964       0.26243059       0.08346168      -0.49133122      -0.00000000
Se       5.31203371       2.16736390       9.36125551      -0.17412537       0.04404131      -0.04164888      -0.00000000
Se       5.13560817       6.54662776       9.58304811       0.08372011      -0.02919253      -0.34079825      -0.00000000
Se       4.96761599      10.64086674       9.57227134      -0.02279212      -0.08471189      -0.42768659      -0.00000000
Se       9.31672876       2.16529327       9.56322627      -0.51296965      -0.03059824      -0.19990173      -0.00000000
Se       9.04736124       6.59070181       9.47812338       0.26847657      -0.28503397      -0.11381759      -0.00000000
Se       9.22412095      10.53070551       9.49123379      -0.11726061      -0.06806884      -0.45682447      -0.00000000
Se       3.17272542       6.37173003       1.54357911      -0.25738873       1.03983583       0.15250054      -0.00000000
Se       2.70641710      10.39233867       1.53264086       0.50865775      -0.23453872       0.07460327      -0.00000000
Se       6.86783125       2.07926137       1.52244910       0.56824348      -0.05352229      -0.34866620      -0.00000000
Se       7.35782686       6.45786503       1.69699227      -0.79252444       0.50742785      -0.09641582      -0.00000000
Se       7.14486342      10.63368722       1.63408317       0.52383653       0.09483756      -0.02994943      -0.00000000
Se      11.11296261       6.20194287       1.43656339       0.21382074       0.46303236       0.44387416      -0.00000000
Se       9.34688029       8.46054154       3.99859119      -0.30725213       0.40808437       0.47505172      -0.00000000
