72
Lattice="12.458633840182042 3.1430076812e-06 7.228249043e-07 3.1483467151e-06 12.47980339097476 -3.6474246255e-06 8.229339407e-07 -4.1455397326e-06 11.01876836822713" Properties=species:S:1:pos:R:3:forces:R:3:magmoms:R:1 energy=-297.35617857 stress="0.003825809664442209 0.0006595073578544631 0.0011779173940621268 0.0006595073578544631 -0.005854423662302887 -6.127962967714278e-05 0.0011779173940621268 -6.127962967714278e-05 -0.015467605817157611" dipole="_JSON [[0.0, 0.0, 0.0]]" magmom=0.0019771 free_energy=-297.35617857 pbc="T T T"
Ge       0.68674316       0.59214759       1.33725123       0.23477905      -0.20364404       0.52639437      -0.00000000
Ge       2.91644514      11.07967287       4.08855187      -0.46836327      -0.51513024       0.13749356       0.00000000
Ge       6.99576365       2.52882601       4.15933249       0.46531927       0.37322062      -0.52955746       0.00000000
Ge       7.24135427       6.76454918       4.15583888       0.00675152       0.22880258       0.05468949       0.00000000
Ge       7.26077642      10.85746483       3.98422003      -0.03192784      -0.05438354      -0.03060899       0.00000000
Ge      11.28081607       2.64578076       3.86919373       0.05466859      -0.08967750       1.46455715       0.00000000
Ge      11.33521472       7.03590972       4.50939685      -0.53225004      -0.35278972      -0.43329190       0.00000000
Ge      11.05846086      11.08754722       4.11953404       0.03939685      -0.86767412      -0.15358500       0.00000000
Ge       0.82588240       1.86804339       6.73453623       0.18233149      -0.40891282       0.23276795       0.00000000
Ge       1.49669261       6.41371807       6.91995994      -0.14628387      -0.69989581       0.24939149       0.00000000
Ge       0.73333982       9.71403203       6.28138336      -0.24026535       0.88226052       1.13237427       0.00000000
Ge       5.03458427       1.48042706       6.85328167      -0.21568611       0.27711285       0.09964817       0.00000000
Ge       5.17102206       6.13557489       6.83890005      -0.11270881      -0.35268283       0.65011722       0.00000000
Ge       5.22123119      10.14376496       7.05168583       0.21477296       0.24991143      -0.60335489       0.00000000
Ge       9.57749221       1.91797838       6.97726064       0.29778494      -0.16758463      -1.58606246      -0.00000000
Ge       9.01026258       5.67043963       6.75021956       0.02454088       0.09017355       0.41701135       0.00000000
Ge       3.18322125       6.63662862       3.93226080       0.01757783       0.24955108       0.13698711       0.00000000
Ge       2.98609997       2.74340541       4.19604116      -0.42664591      -0.48013117       0.05613725       0.00000000
Ge       9.08993372       9.90923065       6.75925812       0.31488587       0.54573819       0.08296704       0.00000000
Ge      11.47579698       8.06754598       9.53098972      -0.00333243       0.13625849       0.31270870       0.00000000
Ge      11.44845850      11.86598678       9.92130048      -1.07920231       0.89104520      -0.24249716      -0.00000000
Ge       0.72592582       4.77289240       1.63678374       0.55363956      -0.26120830      -1.13447322      -0.00000000
Ge       0.68841707       8.72988231       1.42314744       0.09925797       0.47954864      -0.15534064       0.00000000
Ge       4.95040444       0.67146290       1.51727045       0.05795478      -0.04308225      -0.01891873       0.00000000
Ge       5.02227412       4.50360296       1.46846098      -0.22355948       0.00279682      -0.64615453       0.00000000
Ge       9.24433535       0.62483824       1.37403874      -0.26961246      -0.00545477      -0.45291096      -0.00000000
Ge       9.46706761       4.85039418       1.50104579      -0.54463399      -0.24411744       0.01046086      -0.00000000
Ge       4.85103164       9.22545435       1.25568449       0.55444102      -0.66119074      -0.65706082       0.00000000
Ge       3.21265360       4.14673109       9.62036255      -0.65330431      -0.14455292      -0.25646230       0.00000000
Ge       2.87240412       8.18709284       9.79352511       0.14854909      -0.43109036       0.51704445       0.00000000
Ge       3.12696886      12.62502198       9.66979325      -0.15174872      -0.15943750      -0.36429859      -0.00000000
Ge       7.47122593       4.26743966       9.82477611      -0.43394768      -0.06367901      -0.46884783       0.00000000
Ge       7.11424865       8.13323300       9.78486542      -0.05130621      -0.51092109      -0.74319090       0.00000000
Ge       7.07443625      12.44146596       9.50456131       0.42570484      -0.28709427      -0.02801333      -0.00000000
Ge      11.39840633       3.86738555       9.54299242       0.07443815      -0.04829489       0.84370278      -0.00000000
Ge       8.67371958       8.85457865       1.01116256       0.53660952       0.42247725       0.14619226       0.00000000
Se      11.46507298       0.02471208       6.97762553      -0.19400916       0.29084613       0.65455593      -0.00000000
Se       3.14639872       4.34402752       7.05507718      -0.09749366       0.62244573       0.04313233      -0.00000000
Se       2.94337232       8.60630573       7.37325057       0.03676717      -0.42062554      -0.89389849      -0.00000000
Se       7.23658828       0.08082515       7.01137162      -0.50872661      -0.19930176      -0.14029445      -0.00000000
Se       6.85205492       4.24693105       7.18284437       0.54239673      -0.28800241      -0.16858312      -0.00000000
Se       7.23297169       8.25028741       7.01326545      -0.61368221       0.33341226       0.64526077      -0.00000000
Se      11.23093722       4.17584529       7.17341965      -0.13090899       0.15854050      -1.20658145      -0.00000000
Se       9.17342453       0.23895879       3.83132242      -0.42323112       0.29774250       0.46704331      -0.00000000
Se       0.60434829       0.05234735       4.03080427       0.86253551       0.79749708      -0.91144344      -0.00000000
Se       0.89033139       4.33333047       4.02992027      -0.18685852       0.29528575       0.80154449      -0.00000000
Se       0.77610714       8.58844444       4.09677248       0.56084339      -0.52580775      -0.92458876      -0.00000000
Se       4.98924582       0.02265503       4.08532717       0.48574348       0.63756619      -0.20897638      -0.00000000
Se       4.93649871       4.37249616       3.92552871       0.20662438      -0.21972844       0.63588928      -0.00000000
Se       5.13790871       8.30896166       3.57592487      -0.08970541       0.28005770       1.06365312      -0.00000000
Se       2.91452708      -0.07405892       7.09790224       0.05099229       0.28638762       0.18435626      -0.00000000
Se      11.06412039       8.15759279       7.00352570       0.23759149       0.23364525      -0.40074313      -0.00000000
Se      11.26578306      10.48935509       1.36902200      -0.71637008       0.03335240       0.87369475      -0.00000000
Se       2.79903863       2.19325838       1.67194186       0.15256581       0.13801505      -0.01899901      -0.00000000
Se      11.22284501       2.39850391       1.48269262      -0.02099781      -0.17342913      -1.02055695      -0.00000000
Se       9.29760540       4.38528336       4.05086838      -0.26666023      -0.36310335      -0.15447741      -0.00000000
Se       1.04577177       2.28566865       9.27181754      -0.07241440       0.03643085       0.21149277      -0.00000000
Se       0.83514127       6.22491405       9.46859771       0.48755708       0.53574460      -0.44687308      -0.00000000
Se       0.71256459      10.29009990       9.70382510       1.04240403      -1.30747132      -0.63684230      -0.00000000
Se       4.76466716       2.18441340       9.59917837       0.78180771      -0.66122943      -0.39299551      -0.00000000
Se       5.26354165       6.22317589       9.51315191      -0.75436818       0.91324840      -0.29431686      -0.00000000
Se       5.11303874      10.51837748       9.46804728      -0.02172650       0.27393574       0.35828627      -0.00000000
Se       9.06751675       2.32554038       9.24185308       0.14866268      -0.35204797       1.87223123      -0.00000000
Se       8.98057288       6.28863291       9.45222154       0.45823007       0.19405331      -0.06712461      -0.00000000
Se       9.20112249      10.51527706       9.27982189      -0.23763733      -0.01854133       0.22930165      -0.00000000
Se       2.87529720       6.33423782       1.50484157       0.02820810      -0.02726811      -0.04057532      -0.00000000
Se       2.84442394      10.61078168       1.58694187      -0.35706198       0.44291051       0.13788450      -0.00000000
Se       7.15462602       2.33921161       1.49811665      -0.37113678      -0.33214722       0.71067000      -0.00000000
Se       7.03340112       6.01418461       1.77903415       0.62493509       0.72082025      -0.80612674      -0.00000000
Se       7.05786600      10.89274189       1.42133019      -0.10169532      -0.52973087       0.15747968      -0.00000000
Se      11.37789866       6.55424419       1.32921431      -0.18368741       0.27300661       0.72215453      -0.00000000
Se       9.09553723       8.50195031       3.55433425      -0.07811869      -0.15277704       0.39935035      -0.00000000
