72
Lattice="12.441993170899549 3.1388096486e-06 7.218594461e-07 3.1514557603e-06 12.492127406476117 -3.6510265186e-06 8.247809981e-07 -4.1548443066e-06 11.043499754896535" Properties=species:S:1:pos:R:3:forces:R:3:magmoms:R:1 energy=-299.89334814 stress="0.006693301668979141 0.0017192466762026542 -0.0019091642521113987 0.0017192466762026542 -0.007136020087654996 0.0014964912849638307 -0.0019091642521113987 0.0014964912849638307 -0.012235474713275758" dipole="_JSON [[0.0, 0.0, 0.0]]" magmom=0.0019332 free_energy=-299.89334814 pbc="T T T"
Ge       0.75109004       0.63793215       1.50098974       0.28122240      -0.04138931      -0.45763946       0.00000000
Ge       2.94962779      11.14164222       4.08093656       0.35458503      -0.34988118      -0.02270396       0.00000000
Ge       7.15195703       2.56983629       4.08473393      -0.38135039       0.12195773       0.02499972      -0.00000000
Ge       7.16493723       6.88161416       4.26744842      -0.20486486       0.01317125      -0.27533417      -0.00000000
Ge       7.07562575      10.61642966       4.18273808      -0.06802874      -0.21137714      -0.42497007       0.00000000
Ge      11.08159415       2.46542142       4.05963210      -0.17759777       0.33013392       0.33841954       0.00000000
Ge      11.19595360       6.53451684       4.12314236      -0.00017581       0.69003755      -0.30180205       0.00000000
Ge      11.40759639      11.11574822       4.03566288       0.05443598      -0.56323030       0.17471950       0.00000000
Ge       1.18509721       1.88414243       6.82085581      -0.57913456       0.49871089       0.56954427       0.00000000
Ge       0.83376382       5.98694554       6.99655044      -0.08729353       0.13721431      -0.32234040       0.00000000
Ge       0.95599023      10.05668068       6.78640930       0.03629812      -0.12753529      -0.96491132       0.00000000
Ge       5.17116546       1.73184456       7.01135596       0.24426421       0.42136261       0.17477868       0.00000000
Ge       4.86358144       5.99082288       6.81531665       0.70126297      -0.13048375      -0.08260877       0.00000000
Ge       5.42720841      10.05059532       7.00991210      -0.13448308       0.20315770      -0.30033980       0.00000000
Ge       9.16548421       1.69608363       7.02378179      -0.24922298       0.08553110      -0.36007899      -0.00000000
Ge       9.56723875       6.05724360       6.86505236      -0.59708923      -0.11236110       0.32943745      -0.00000000
Ge       2.50944664       6.54391596       4.06124381       0.44424541       0.22770751       0.21286845       0.00000000
Ge       3.02505793       2.66139671       3.92777742      -0.24473181      -0.10056607       0.02439704       0.00000000
Ge       9.37013801      10.09740152       6.88467110       0.04491977      -0.03806203       0.41448271       0.00000000
Ge      11.02064371       8.17173591       9.92841242       0.05645844      -0.45930513      -0.66174087       0.00000000
Ge      11.24440500      12.16514421       9.68374359      -0.22673173       0.23634832      -0.42054670       0.00000000
Ge       0.88505897       4.90120058       1.40641251      -0.37786909      -0.77848065      -0.31246831       0.00000000
Ge       1.00151984       8.90069120       1.40326351      -0.15056958       0.10592357      -0.62702221       0.00000000
Ge       5.20882327       0.58962948       1.36457186      -0.28361622      -0.23113304      -0.23903579       0.00000000
Ge       4.91213464       4.81719527       1.35038121       0.08729387      -0.07281059       0.28008668      -0.00000000
Ge       9.14425596       0.37737826       1.64741688       0.05254734      -0.07377560      -1.47695064       0.00000000
Ge       8.97736689       4.78304919       1.34929584       0.55646413      -0.54209865      -0.09174083      -0.00000000
Ge       5.06191200       8.89215112       1.35970435      -0.02469470       0.09061109       0.27186204      -0.00000000
Ge       2.95109317       4.20742901       9.71902428      -0.25966421      -0.36470911      -0.56949200       0.00000000
Ge       3.01593118       8.38390211       9.39785764       0.01684795      -0.48975262       0.84892631       0.00000000
Ge       2.86975024      12.28973734       9.66477004       0.08250678       0.10229562      -0.05166393       0.00000000
Ge       7.14140255       3.96695775       9.54265346      -0.30432153      -0.00295877      -0.45546885      -0.00000000
Ge       6.97139507       8.01419756       9.59674076       0.37179266      -0.02163532       0.57085548       0.00000000
Ge       7.02457513      12.16503378       9.77961386       0.36523742       0.24336784      -0.02124697       0.00000000
Ge      11.40130159       4.04041257       9.54402005      -0.13418692      -0.04890090      -0.24280307      -0.00000000
Ge       9.28368652       8.92453092       1.34841732      -0.37679225      -0.27565336       0.07449625       0.00000000
Se      11.08283639       0.02247005       7.08099690       0.33027746       0.11612361       0.34087378      -0.00000000
Se       2.86616468       4.37178243       6.98357988      -0.10154985      -0.43321990       0.63594381      -0.00000000
Se       3.16360818       8.50440796       7.01255588      -0.59120755       0.02924578      -0.82293017      -0.00000000
Se       7.11864408      -0.17133704       7.24913075      -0.21923762       0.73935544      -0.20508518      -0.00000000
Se       6.98192042       4.24533249       6.96851135      -0.03055952       0.31209822       0.31645457      -0.00000000
Se       7.29044336       8.26554881       7.17928941      -0.17496238       0.47713705      -0.65061915      -0.00000000
Se      11.29257900       4.18253850       6.91226389       0.06441823       0.17709243       0.55727488      -0.00000000
Se       9.32468115       0.07780805       3.99791486      -0.47167153       0.18320936       1.36856975      -0.00000000
Se       0.92421736       0.38111331       3.99094586      -0.03899780      -0.20381562       0.13110964      -0.00000000
Se       0.86183770       4.32970494       3.92886235       0.02874968      -0.10111764      -0.05945849      -0.00000000
Se       0.86368388       8.49132917       3.81223039      -0.40289830      -0.22576169       0.92917872      -0.00000000
Se       5.34357041      -0.04917382       3.83969702      -0.94047879       0.59007239       0.44840221      -0.00000000
Se       4.91189433       4.32457156       3.87894343       0.53100597       0.06895700      -0.17931804      -0.00000000
Se       5.02241329       8.42690166       3.88111624       0.30461110       0.19793703       0.09296118      -0.00000000
Se       2.99832129       0.27514796       7.15235362       0.30015456      -0.76648178      -0.17981934      -0.00000000
Se      11.35998588       8.31377518       7.20590070      -0.52565673       0.57364140       0.16868090      -0.00000000
Se      11.21355713      10.55950074       1.50727453       0.62795463       0.39755974      -0.00903131      -0.00000000
Se       3.02508594       2.23873630       1.42224255      -0.04655640       0.00433508       0.31551139      -0.00000000
Se      11.10935231       2.15053358       1.62230507       0.20052886       0.37480050      -0.61457917      -0.00000000
Se       9.05706959       4.31474974       3.90631209       0.47483270      -0.12791512       0.03762828      -0.00000000
Se       0.93118976       2.37474160       9.49524545       0.11442634      -0.17665357      -0.39574760      -0.00000000
Se       0.63744346       6.43475623       9.46666744       0.31317009      -0.14394485       0.41283590      -0.00000000
Se       0.85067482      10.62497850       9.12681317       0.19053913      -0.10564791       1.38981262      -0.00000000
Se       4.80219057       2.43134046       9.55042525       0.66684556      -0.49864213      -0.33276650      -0.00000000
Se       4.95789967       6.42667253       9.34262303      -0.29838006       0.05772243       0.26695484      -0.00000000
Se       4.99851531      10.53657187       9.50859549      -0.30764379      -0.21844895       0.10070954      -0.00000000
Se       9.01125912       2.22309431       9.43250011       0.44584309      -0.08725832       0.40022367      -0.00000000
Se       9.08080377       6.35589260       9.50673061       0.32481863       0.06674836      -0.19548460      -0.00000000
Se       9.11685188      10.55958713       9.54596797       0.31558017      -0.28891820      -0.31097376      -0.00000000
Se       2.78686053       6.54391212       1.54463298       0.70323887       0.10037142      -0.18175199      -0.00000000
Se       2.96681859      10.65124458       1.55554870       0.02018803      -0.12946875       0.02819607      -0.00000000
Se       7.20815254       2.15533791       1.53345931      -0.02258527       0.47432156       0.18014759      -0.00000000
Se       7.11997758       6.36520907       1.69902329      -0.64244737       0.53538774      -0.04548576      -0.00000000
Se       7.18734573      10.53755279       1.57189082       0.00956969      -0.14205926       0.18616405      -0.00000000
Se      11.22737141       6.40519600       1.59246008      -0.16487031       0.02415331       0.03017729      -0.00000000
Se       9.22473759       8.50612463       3.89061835       0.12498703      -0.32234723       0.21827534      -0.00000000
