72
Lattice="12.427943318447422 3.1352652155e-06 7.210443019e-07 3.1535556765e-06 12.500451311886785 -3.6534593147e-06 8.257560742e-07 -4.1597562641e-06 11.056555647543657" Properties=species:S:1:pos:R:3:forces:R:3:magmoms:R:1 energy=-300.2086482 stress="0.005237153688967373 0.0022498847837388192 -0.0013114941840499487 0.0022498847837388192 -0.0020035354394306237 -0.0007420095478651988 -0.0013114941840499487 -0.0007420095478651988 -0.009013305014268249" dipole="_JSON [[0.0, 0.0, 0.0]]" magmom=0.0018611 free_energy=-300.2086482 pbc="T T T"
Ge       1.08648073       0.56228877       1.35720990      -0.07162492      -0.24329793       0.25198188      -0.00000000
Ge       2.76572487      10.63720634       4.07041518       0.19199059       0.22198205      -0.18906192       0.00000000
Ge       6.96449043       2.68189607       4.08428044       0.03775838      -0.12675938       0.16730236       0.00000000
Ge       7.06973120       6.88405364       3.90399316       0.03287455      -0.79846145       0.32983253       0.00000000
Ge       6.87405531      10.99214749       3.90248240      -0.35298793       0.08398253       0.12775991       0.00000000
Ge      11.09171925       2.39288454       4.06836214      -0.03108741       0.06210410      -0.26172327       0.00000000
Ge      11.04725798       6.85326312       4.19976558       0.49332090      -0.54998913      -0.40467508       0.00000000
Ge      11.14857330      11.10680843       4.08205484       0.48349738      -0.48850146      -0.17583352      -0.00000000
Ge       0.77841478       1.95452609       6.86981086       0.27941473      -0.26334222       0.05035022       0.00000000
Ge       1.13835918       5.90683995       6.87954795      -0.30734668       0.05546081       0.64351892       0.00000000
Ge       0.68076657      10.34544542       6.98833633       0.48062722      -0.15389869       0.69420513      -0.00000000
Ge       5.11393409       1.87071250       6.93453461      -0.25000175      -0.28129346      -0.60520061       0.00000000
Ge       5.28702364       6.26740225       7.00202977      -0.57534003       0.47535887       0.38340157       0.00000000
Ge       4.70709578      10.22705603       6.93938677       0.42835891      -0.03705072       0.38979957       0.00000000
Ge       9.18382211       2.15022697       6.91255419       0.15690863      -0.34279991       0.00540317       0.00000000
Ge       9.29561769       6.21138772       6.90174650      -0.17067020      -0.28796944       0.45585684       0.00000000
Ge       2.84855985       6.56273171       3.98622942      -0.15128512       0.06232285      -0.07469777       0.00000000
Ge       3.05281795       2.79344353       4.11665971      -0.23612939      -0.34063284      -0.19441918       0.00000000
Ge       9.16762211      10.38017178       6.99433939       0.00501659      -0.26883994       0.25721470       0.00000000
Ge      11.41620383       8.17359708       9.49494075      -0.14961015      -0.18870254       1.01884037      -0.00000000
Ge      11.33577537      12.37246267       9.50420878      -0.04365298      -0.14606664       0.14845971       0.00000000
Ge       0.76170589       4.58051823       1.50992847      -0.30298360      -0.13824328      -0.29781466       0.00000000
Ge       0.85871997       8.54865002       1.40065673      -0.28715547       0.52965295       0.36205954      -0.00000000
Ge       4.75694779       0.36826213       1.40560590       0.30725536       0.21585526       0.19093262       0.00000000
Ge       5.12647431       4.58279637       1.54911282       0.17689017       0.15167342      -0.44413713       0.00000000
Ge       8.90833324       0.34817795       1.11149563      -0.05522878       0.32623613       0.87550879      -0.00000000
Ge       9.20928469       4.65709526       1.53623455       0.03462933      -0.26537183      -0.25873101       0.00000000
Ge       4.85766688       8.60561546       1.53344963       0.18967220       0.35025614       0.07136848       0.00000000
Ge       2.99384901       3.95426981       9.59047176      -0.24044198      -0.19753006       0.80132768       0.00000000
Ge       3.07726908       7.82502364       9.73275200      -0.29093568       0.29890324      -0.51716087      -0.00000000
Ge       3.03288931      12.31266100       9.59485833      -0.27941830      -0.40197770       0.09376771      -0.00000000
Ge       7.14037676       3.74410884       9.66592634      -0.28026619       0.32845753       0.20186909       0.00000000
Ge       7.18824446       8.14316360       9.64585892       0.15397650       0.13958132       0.11352095       0.00000000
Ge       6.97570486      12.30952366       9.32841867       0.17845048      -0.33485443       0.34963021       0.00000000
Ge      11.19277466       3.84540121       9.74194714       0.04710994       0.20240206      -0.20157381       0.00000000
Ge       9.04867590       8.95168669       1.50381208       0.44386780       0.00615829      -0.57276076       0.00000000
Se      11.29248466       0.06784502       6.92889812      -0.19315829       0.36198186       0.19577298      -0.00000000
Se       3.00811868       4.19287826       7.21004465       0.06713749       0.37262391      -1.23895446      -0.00000000
Se       2.95907993       8.42880793       7.09655318      -0.56539246      -0.28602187       0.29416499      -0.00000000
Se       7.27013027       0.21778926       6.87429994      -0.52662303      -0.15418268      -0.06059046      -0.00000000
Se       7.08490089       4.62385335       7.23197323       0.89004144      -1.14468623      -0.35957269      -0.00000000
Se       7.02364747       8.59289954       7.15055709      -0.03025989      -0.08456728      -0.22782365      -0.00000000
Se      11.04451587       4.22521358       7.18754391       0.43346775       0.30668769      -0.06767594      -0.00000000
Se       9.39378520       0.38953832       3.93208810      -0.45648654       0.02975555      -0.78678039      -0.00000000
Se       0.98623688      -0.00490526       3.92910116      -0.21199943       0.25162287      -0.21192448      -0.00000000
Se       0.99710042       4.42736677       3.97687000       0.33927483       0.20980997       0.31821038      -0.00000000
Se       0.94061934       8.31830073       3.99228032      -0.21077494       0.29357850      -0.32480863      -0.00000000
Se       4.77635646       0.11391499       3.93879719       0.46173539      -0.28902206      -0.04999758      -0.00000000
Se       4.99597907       4.52754233       4.04960766       0.37019849      -0.18280811       0.21635095      -0.00000000
Se       5.17351995       8.54715090       4.10515456       0.00596163       0.40814551      -0.50668327      -0.00000000
Se       2.84962185       0.13915596       7.08568305       0.23302652       0.18956324      -0.13117185      -0.00000000
Se      11.28257001       8.49392080       7.11782839      -0.26205748       0.26984677      -1.05279378      -0.00000000
Se      11.21954282      10.46293437       1.54813351       0.05525972      -0.06242453       0.23441797      -0.00000000
Se       3.01886289       2.30348139       1.50265356       0.02909628       0.10762338       0.29405504      -0.00000000
Se      11.60222951       2.22343543       1.52439734      -0.34780223       0.56069419       0.21159757      -0.00000000
Se       9.14958287       4.22723283       4.03512849       0.12127310       0.07258917       0.03385970      -0.00000000
Se       0.79210093       2.18848549       9.41056608       0.10518073       0.14632478       0.12339539      -0.00000000
Se       0.76507318       6.16705874       9.50543507       0.53329850       0.30778348      -0.46917589      -0.00000000
Se       0.79316586      10.60054807       9.72005815       0.24721096       0.13972524      -1.01340069      -0.00000000
Se       4.92894581       2.05946862       9.37751591       0.49805888       0.34475811       0.61752388      -0.00000000
Se       5.17627981       6.31079170       9.63766717      -0.28411932       0.09662545      -0.55088944      -0.00000000
Se       4.91275822      10.42916689       9.54334008       0.03414550       0.52191915      -0.48438916      -0.00000000
Se       9.10446090       2.10130034       9.44604439       0.08802502       0.04693679       0.04347392      -0.00000000
Se       9.26371799       6.53020831       9.46200633      -0.04502979      -0.09409723      -0.21221578      -0.00000000
Se       9.21518921      10.65730955       9.53093514      -0.24144707      -0.00088248      -0.30356165      -0.00000000
Se       3.28203091       6.56436352       1.39967319      -0.55962949      -0.31756526       0.53203350      -0.00000000
Se       3.04413802      10.47917614       1.52070771      -0.37252507      -0.41029113       0.20093958      -0.00000000
Se       6.91867349       2.29538681       1.60971308       0.20875473      -0.55303471      -0.38110840      -0.00000000
Se       7.25105183       6.28046867       1.40011113      -0.36689137       0.23936989       0.23781704      -0.00000000
Se       7.24586151      10.86973009       1.36744876      -0.17255001      -0.19426369       0.36907493      -0.00000000
Se      11.22086382       6.39856975       1.56724491       0.11355476      -0.11909309       0.41032762      -0.00000000
Se       9.10480266       8.39705566       3.96392290      -0.03340844       0.96017034       0.31438039      -0.00000000
