72
Lattice="12.425866315440517 3.1347412386e-06 7.209237984e-07 3.1545678615e-06 12.504463535280399 -3.654631952e-06 8.262474492e-07 -4.1622315719e-06 11.063134970102732" Properties=species:S:1:pos:R:3:forces:R:3:magmoms:R:1 energy=-300.59106062 stress="-0.0005241597393804637 -0.002088895784990848 -2.1556087856752728e-05 -0.002088895784990848 -0.007884435589687018 0.002133329556571195 -2.1556087856752728e-05 0.002133329556571195 -0.01225320785182687" dipole="_JSON [[0.0, 0.0, 0.0]]" magmom=0.0017573 free_energy=-300.59106062 pbc="T T T"
Ge       0.92573163       0.64610742       1.56049325      -0.02418986       0.02537182      -0.25016255       0.00000000
Ge       2.70369409      10.73603775       3.99573968       0.17325333       0.27705473       0.27321199      -0.00000000
Ge       7.05866483       2.56543487       3.98028959       0.23192520      -0.15821563       0.15998164       0.00000000
Ge       7.30073216       6.63080076       4.19884783      -0.04196112       0.49459329      -0.16221056       0.00000000
Ge       6.79255098      10.70821093       4.13978233       0.43301604       0.28097226      -0.05387426       0.00000000
Ge      11.02986664       2.47151551       4.12028962      -0.14817081      -0.17825815       0.07662584       0.00000000
Ge      11.17442290       6.65765976       3.96438700      -0.16198549       0.24022172       0.66849329       0.00000000
Ge      11.19851420      10.94111836       4.01579424       0.06285385       0.32462564      -0.09382581       0.00000000
Ge       0.77621629       1.82170746       6.91438848       0.22612512       0.11617905      -0.07878537       0.00000000
Ge       1.15830054       5.94868773       6.90711236      -0.43679317       0.20977321       0.31181276       0.00000000
Ge       1.10965551      10.07077298       6.92339838      -0.67486831       0.56361616       0.06965280      -0.00000000
Ge       4.93299369       1.71362571       6.75559113       0.53717395       0.11223333       0.47422095       0.00000000
Ge       4.98230492       5.95535039       7.10187685       0.84330358       0.59882341       0.09926096       0.00000000
Ge       5.02176833      10.11414683       6.98333079      -0.18975704       0.40901458       0.16894704      -0.00000000
Ge       9.14726535       1.96675393       6.98815066      -0.30569737      -0.25107333      -0.19279218       0.00000000
Ge       9.36772398       5.90654451       7.04736472       0.01545065       0.43374848      -0.59620744       0.00000000
Ge       2.78059931       6.76229116       3.99171615      -0.04782180      -0.15369018      -0.19307858       0.00000000
Ge       3.09291886       2.71636032       4.07127376       0.01734028       0.06643711       0.50606999       0.00000000
Ge       9.17321454      10.11775065       6.93881385       0.06037799       0.70692537      -0.11398107       0.00000000
Ge      11.02145535       8.29643293       9.69376640       0.56760406       0.55410346      -0.49987016       0.00000000
Ge      11.12635112      12.36188339       9.51705583       0.11462190      -0.12246245       0.24758472       0.00000000
Ge       0.68100419       4.54064479       1.44874234       0.39459061       0.11964783       0.40243224       0.00000000
Ge       0.61254570       8.70655886       1.45275692       0.22309744      -0.09990360      -0.64553143       0.00000000
Ge       4.81801858       0.43154114       1.44571837       0.04672701      -0.07141011       0.22855923      -0.00000000
Ge       5.25019774       4.78060388       1.38067459      -0.54303420      -0.01808071       0.04750914       0.00000000
Ge       8.77464838       0.35786122       1.32256086       0.18036864      -0.63085832      -0.41835588       0.00000000
Ge       9.08456089       4.59546567       1.20404136       0.09599493       0.20217174       0.39334901       0.00000000
Ge       4.92638599       8.60645881       1.51652866      -0.56298389       0.01415014      -0.55772894       0.00000000
Ge       2.52862477       4.14298163       9.80956871       0.70698903       0.55706838      -0.00180035       0.00000000
Ge       2.91528309       8.05148911       9.55843785       0.31680220       0.06472583       0.59224077       0.00000000
Ge       2.74330905      12.23808541       9.75237139       0.45873695       0.29866050      -0.14598059      -0.00000000
Ge       7.14971642       3.89105751       9.62359836       0.04111989      -0.02428281      -0.13731318       0.00000000
Ge       7.20256655       8.47165395       9.42594656      -0.49915426      -0.42077475       1.00858174      -0.00000000
Ge       6.84520452      12.30386961       9.43129829      -0.04700991       0.40989270      -0.57852442      -0.00000000
Ge      11.12128194       4.00867670       9.70299853       0.19441540      -0.18294087       0.53105462       0.00000000
Ge       9.11050155       8.86676125       1.53338100      -0.05079931       0.43467240       0.02489935       0.00000000
Se      11.16116524       0.24529135       7.04332545       0.32762234      -0.35062101      -0.21481568      -0.00000000
Se       3.16479430       4.34748684       7.23783153      -0.66678151      -0.80816204       0.13881873      -0.00000000
Se       2.90333350       8.30947947       7.06770564       0.65245422      -0.14979596      -0.42703383      -0.00000000
Se       7.06595645      -0.01587125       6.67799987       0.05898724       0.52398690       1.24769023      -0.00000000
Se       7.44421085       4.23814983       7.08908302      -0.62109722       0.17769466       0.23687478      -0.00000000
Se       7.07781462       8.54115795       7.02794283       0.00336359      -0.32616274      -0.69429903      -0.00000000
Se      11.39131719       4.29746864       7.30516321      -0.13329867       0.09932447      -0.94093064      -0.00000000
Se       9.40689607       0.36654811       3.72506845       0.08724321      -0.02331743       0.63679229      -0.00000000
Se       0.91036647       0.15798084       4.03555034      -0.01262702      -0.20043579      -0.01228024      -0.00000000
Se       1.24400267       4.59309150       4.11253154      -0.27346098      -0.16512918      -0.52257380      -0.00000000
Se       0.70242408       8.47733211       3.91004260       0.12723158      -0.39573322       0.56261780      -0.00000000
Se       4.87547133      -0.07611232       4.02223006      -0.34270561       0.22073625      -0.44531489      -0.00000000
Se       5.21820754       4.32805008       3.95235628      -0.24177135       0.24467731      -0.12731725      -0.00000000
Se       5.39971143       8.61011437       3.94621478      -0.54789322      -0.72057917       0.58461186      -0.00000000
Se       2.97682262       0.18467491       7.17854209      -0.43558409      -0.20254905       0.20892263      -0.00000000
Se      11.30467878       8.65512629       7.07253578       0.27498523      -0.60386338       0.43481022      -0.00000000
Se      11.25997642      10.54632897       1.48760456      -0.23802685       0.13290329       0.09972891      -0.00000000
Se       3.00298477       2.30510658       1.62798548       0.05300755      -0.05789154      -0.37295277      -0.00000000
Se      11.50798068       2.58368315       1.65909072       0.01310254      -0.63183148      -0.11555211      -0.00000000
Se       9.19342778       4.29445972       3.81762760      -0.41243433      -0.23439554      -0.13241098      -0.00000000
Se       0.83737336       2.39684137       9.47470002      -0.49535333      -0.74269038       0.09839481      -0.00000000
Se       0.97265610       6.38888133       9.50018101      -0.18428584      -0.22257318      -0.15067646      -0.00000000
Se       0.89982526      10.60095626       9.45850284      -0.19933364      -0.24888480      -0.22995165      -0.00000000
Se       5.32863418       2.19986087       9.44572299      -0.38493398      -0.32967218      -0.52237557      -0.00000000
Se       5.11442421       6.45970939       9.59481032       0.11070903       0.18816471      -0.23494034      -0.00000000
Se       4.89402938      10.60055649       9.55648578       0.20057539      -0.13994067      -0.25365553      -0.00000000
Se       9.29987489       2.17389809       9.52403949      -0.24700154      -0.08098240       0.07449198      -0.00000000
Se       9.16934009       6.71842703       9.44649869      -0.37966205      -0.87443587       0.29076821      -0.00000000
Se       9.16514341      10.61864767       9.49299543       0.19567145      -0.18086481      -0.00307690      -0.00000000
Se       3.10039668       6.42586905       1.47859619       0.57786556       0.30346955       0.26798645      -0.00000000
Se       2.71985359      10.26942035       1.53338356       0.61450041       0.39014772      -0.15041736      -0.00000000
Se       6.96248874       2.08897064       1.45170993      -0.33347418       0.40819122       0.24602553      -0.00000000
Se       7.23549183       6.41968439       1.61638061       0.17275009       0.15308644       0.02201534      -0.00000000
Se       7.06676388      10.69616930       1.61653438       0.74058345       0.02947870      -0.44591848      -0.00000000
Se      11.20879191       6.26260304       1.51378766      -0.30754158       0.22703969      -0.48516417      -0.00000000
Se       9.25155103       8.58748445       4.06136876       0.03895260      -0.61112135      -0.23335737      -0.00000000
72
Lattice="12.427943318447422 3.1352652155e-06 7.210443019e-07 3.1535556765e-06 12.500451311886785 -3.6534593147e-06 8.257560742e-07 -4.1597562641e-06 11.056555647543657" Properties=species:S:1:pos:R:3:forces:R:3:magmoms:R:1 energy=-300.2086482 stress="0.005237153688967373 0.0022498847837388192 -0.0013114941840499487 0.0022498847837388192 -0.0020035354394306237 -0.0007420095478651988 -0.0013114941840499487 -0.0007420095478651988 -0.009013305014268249" dipole="_JSON [[0.0, 0.0, 0.0]]" magmom=0.0018611 free_energy=-300.2086482 pbc="T T T"
Ge       1.08648073       0.56228877       1.35720990      -0.07162492      -0.24329793       0.25198188      -0.00000000
Ge       2.76572487      10.63720634       4.07041518       0.19199059       0.22198205      -0.18906192       0.00000000
Ge       6.96449043       2.68189607       4.08428044       0.03775838      -0.12675938       0.16730236       0.00000000
Ge       7.06973120       6.88405364       3.90399316       0.03287455      -0.79846145       0.32983253       0.00000000
Ge       6.87405531      10.99214749       3.90248240      -0.35298793       0.08398253       0.12775991       0.00000000
Ge      11.09171925       2.39288454       4.06836214      -0.03108741       0.06210410      -0.26172327       0.00000000
Ge      11.04725798       6.85326312       4.19976558       0.49332090      -0.54998913      -0.40467508       0.00000000
Ge      11.14857330      11.10680843       4.08205484       0.48349738      -0.48850146      -0.17583352      -0.00000000
Ge       0.77841478       1.95452609       6.86981086       0.27941473      -0.26334222       0.05035022       0.00000000
Ge       1.13835918       5.90683995       6.87954795      -0.30734668       0.05546081       0.64351892       0.00000000
Ge       0.68076657      10.34544542       6.98833633       0.48062722      -0.15389869       0.69420513      -0.00000000
Ge       5.11393409       1.87071250       6.93453461      -0.25000175      -0.28129346      -0.60520061       0.00000000
Ge       5.28702364       6.26740225       7.00202977      -0.57534003       0.47535887       0.38340157       0.00000000
Ge       4.70709578      10.22705603       6.93938677       0.42835891      -0.03705072       0.38979957       0.00000000
Ge       9.18382211       2.15022697       6.91255419       0.15690863      -0.34279991       0.00540317       0.00000000
Ge       9.29561769       6.21138772       6.90174650      -0.17067020      -0.28796944       0.45585684       0.00000000
Ge       2.84855985       6.56273171       3.98622942      -0.15128512       0.06232285      -0.07469777       0.00000000
Ge       3.05281795       2.79344353       4.11665971      -0.23612939      -0.34063284      -0.19441918       0.00000000
Ge       9.16762211      10.38017178       6.99433939       0.00501659      -0.26883994       0.25721470       0.00000000
Ge      11.41620383       8.17359708       9.49494075      -0.14961015      -0.18870254       1.01884037      -0.00000000
Ge      11.33577537      12.37246267       9.50420878      -0.04365298      -0.14606664       0.14845971       0.00000000
Ge       0.76170589       4.58051823       1.50992847      -0.30298360      -0.13824328      -0.29781466       0.00000000
Ge       0.85871997       8.54865002       1.40065673      -0.28715547       0.52965295       0.36205954      -0.00000000
Ge       4.75694779       0.36826213       1.40560590       0.30725536       0.21585526       0.19093262       0.00000000
Ge       5.12647431       4.58279637       1.54911282       0.17689017       0.15167342      -0.44413713       0.00000000
Ge       8.90833324       0.34817795       1.11149563      -0.05522878       0.32623613       0.87550879      -0.00000000
Ge       9.20928469       4.65709526       1.53623455       0.03462933      -0.26537183      -0.25873101       0.00000000
Ge       4.85766688       8.60561546       1.53344963       0.18967220       0.35025614       0.07136848       0.00000000
Ge       2.99384901       3.95426981       9.59047176      -0.24044198      -0.19753006       0.80132768       0.00000000
Ge       3.07726908       7.82502364       9.73275200      -0.29093568       0.29890324      -0.51716087      -0.00000000
Ge       3.03288931      12.31266100       9.59485833      -0.27941830      -0.40197770       0.09376771      -0.00000000
Ge       7.14037676       3.74410884       9.66592634      -0.28026619       0.32845753       0.20186909       0.00000000
Ge       7.18824446       8.14316360       9.64585892       0.15397650       0.13958132       0.11352095       0.00000000
Ge       6.97570486      12.30952366       9.32841867       0.17845048      -0.33485443       0.34963021       0.00000000
Ge      11.19277466       3.84540121       9.74194714       0.04710994       0.20240206      -0.20157381       0.00000000
Ge       9.04867590       8.95168669       1.50381208       0.44386780       0.00615829      -0.57276076       0.00000000
Se      11.29248466       0.06784502       6.92889812      -0.19315829       0.36198186       0.19577298      -0.00000000
Se       3.00811868       4.19287826       7.21004465       0.06713749       0.37262391      -1.23895446      -0.00000000
Se       2.95907993       8.42880793       7.09655318      -0.56539246      -0.28602187       0.29416499      -0.00000000
Se       7.27013027       0.21778926       6.87429994      -0.52662303      -0.15418268      -0.06059046      -0.00000000
Se       7.08490089       4.62385335       7.23197323       0.89004144      -1.14468623      -0.35957269      -0.00000000
Se       7.02364747       8.59289954       7.15055709      -0.03025989      -0.08456728      -0.22782365      -0.00000000
Se      11.04451587       4.22521358       7.18754391       0.43346775       0.30668769      -0.06767594      -0.00000000
Se       9.39378520       0.38953832       3.93208810      -0.45648654       0.02975555      -0.78678039      -0.00000000
Se       0.98623688      -0.00490526       3.92910116      -0.21199943       0.25162287      -0.21192448      -0.00000000
Se       0.99710042       4.42736677       3.97687000       0.33927483       0.20980997       0.31821038      -0.00000000
Se       0.94061934       8.31830073       3.99228032      -0.21077494       0.29357850      -0.32480863      -0.00000000
Se       4.77635646       0.11391499       3.93879719       0.46173539      -0.28902206      -0.04999758      -0.00000000
Se       4.99597907       4.52754233       4.04960766       0.37019849      -0.18280811       0.21635095      -0.00000000
Se       5.17351995       8.54715090       4.10515456       0.00596163       0.40814551      -0.50668327      -0.00000000
Se       2.84962185       0.13915596       7.08568305       0.23302652       0.18956324      -0.13117185      -0.00000000
Se      11.28257001       8.49392080       7.11782839      -0.26205748       0.26984677      -1.05279378      -0.00000000
Se      11.21954282      10.46293437       1.54813351       0.05525972      -0.06242453       0.23441797      -0.00000000
Se       3.01886289       2.30348139       1.50265356       0.02909628       0.10762338       0.29405504      -0.00000000
Se      11.60222951       2.22343543       1.52439734      -0.34780223       0.56069419       0.21159757      -0.00000000
Se       9.14958287       4.22723283       4.03512849       0.12127310       0.07258917       0.03385970      -0.00000000
Se       0.79210093       2.18848549       9.41056608       0.10518073       0.14632478       0.12339539      -0.00000000
Se       0.76507318       6.16705874       9.50543507       0.53329850       0.30778348      -0.46917589      -0.00000000
Se       0.79316586      10.60054807       9.72005815       0.24721096       0.13972524      -1.01340069      -0.00000000
Se       4.92894581       2.05946862       9.37751591       0.49805888       0.34475811       0.61752388      -0.00000000
Se       5.17627981       6.31079170       9.63766717      -0.28411932       0.09662545      -0.55088944      -0.00000000
Se       4.91275822      10.42916689       9.54334008       0.03414550       0.52191915      -0.48438916      -0.00000000
Se       9.10446090       2.10130034       9.44604439       0.08802502       0.04693679       0.04347392      -0.00000000
Se       9.26371799       6.53020831       9.46200633      -0.04502979      -0.09409723      -0.21221578      -0.00000000
Se       9.21518921      10.65730955       9.53093514      -0.24144707      -0.00088248      -0.30356165      -0.00000000
Se       3.28203091       6.56436352       1.39967319      -0.55962949      -0.31756526       0.53203350      -0.00000000
Se       3.04413802      10.47917614       1.52070771      -0.37252507      -0.41029113       0.20093958      -0.00000000
Se       6.91867349       2.29538681       1.60971308       0.20875473      -0.55303471      -0.38110840      -0.00000000
Se       7.25105183       6.28046867       1.40011113      -0.36689137       0.23936989       0.23781704      -0.00000000
Se       7.24586151      10.86973009       1.36744876      -0.17255001      -0.19426369       0.36907493      -0.00000000
Se      11.22086382       6.39856975       1.56724491       0.11355476      -0.11909309       0.41032762      -0.00000000
Se       9.10480266       8.39705566       3.96392290      -0.03340844       0.96017034       0.31438039      -0.00000000
72
Lattice="12.424578974069885 3.1344164739e-06 7.208491094e-07 3.1569276296e-06 12.513817474099318 -3.6573657921e-06 8.269151288e-07 -4.1655950157e-06 11.072074941931874" Properties=species:S:1:pos:R:3:forces:R:3:magmoms:R:1 energy=-300.72959031 stress="-0.0013029277065331648 -0.0007786378504119538 0.00021292151287893767 -0.0007786378504119538 -0.008841380148792145 -0.0005483019778189988 0.00021292151287893767 -0.0005483019778189988 -0.007297633174900464" dipole="_JSON [[0.0, 0.0, 0.0]]" magmom=0.0018681 free_energy=-300.72959031 pbc="T T T"
Ge       1.06892610       0.65988274       1.31132188      -0.16763625      -0.21801073       0.22440725       0.00000000
Ge       2.85440869      10.99807337       4.31592391      -0.03098595      -0.10614257      -0.26220330       0.00000000
Ge       6.77610651       2.49061190       4.10326168       0.44027394       0.28200551       0.34297871       0.00000000
Ge       7.07511964       7.06497468       4.00911587      -0.30221551      -0.52518643       0.71141522       0.00000000
Ge       6.90421673      10.60971689       4.04839868      -0.51108447       0.04508042      -0.33080459       0.00000000
Ge      10.80155491       2.24151347       4.10217484       0.06535505       0.60951143       0.04029357      -0.00000000
Ge      11.11408458       6.72199266       4.15621611       0.39060278      -0.26120988      -0.47906029       0.00000000
Ge      11.39521194      11.13186250       4.22284974       0.66800101      -0.40186819      -0.07664391       0.00000000
Ge       0.97701935       1.93393770       7.10425511      -0.28648913       0.13592162      -0.52397301      -0.00000000
Ge       0.56379686       6.18907696       7.05331978       0.22653314       0.28905129       0.31302926       0.00000000
Ge       0.87170837      10.05568623       6.72089791       0.03189699       0.16016262       0.49078905       0.00000000
Ge       4.73549087       2.17411389       7.10635504       0.31003665      -0.21441895      -0.53841554       0.00000000
Ge       4.89609141       6.01361728       6.81623611       0.70969938       0.37745577      -0.13224737       0.00000000
Ge       5.42670456      10.52229539       6.96082908      -0.24280092      -0.20609528       0.19309806       0.00000000
Ge       9.47876120       1.73994008       6.93488908      -0.31874326       0.02081048      -0.17344478       0.00000000
Ge       8.98710541       5.97698391       6.80079286       0.41458029       0.30578264       0.06740226       0.00000000
Ge       2.57072498       6.39313377       4.18764654      -0.09620112       0.13847179       0.19565232       0.00000000
Ge       3.04765666       2.70329514       4.12984530      -0.05894274       0.11058577      -0.18631331      -0.00000000
Ge       9.04298792      10.32297988       6.83847855      -0.05372333       0.19173276       0.62413294       0.00000000
Ge      10.99304997       8.24141009       9.54888312       0.49914264       0.61098162       0.44504158       0.00000000
Ge      11.39306933      12.05728539       9.66505722       0.22368158       0.61901555      -0.00173908       0.00000000
Ge       0.47921702       4.24672410       1.40855729       0.40701454       0.59738451       0.25004920       0.00000000
Ge       0.97739072       8.80077067       1.19665039      -0.20521277       0.52198480       0.30779666       0.00000000
Ge       4.88606593       0.42801469       1.43149274       0.10730315       0.07488841      -0.26675627       0.00000000
Ge       4.95255952       4.88429958       1.41180200       1.02096806      -0.80747099      -0.08922734       0.00000000
Ge       9.03599303       0.18595553       1.46243552      -0.60927359      -0.01871635       0.24593436       0.00000000
Ge       9.05043791       4.73652368       1.34878407      -0.11090960      -0.24146521       0.13412060       0.00000000
Ge       4.74796374       8.64893196       1.25671360      -0.36018495       0.23300658       0.54578586       0.00000000
Ge       2.77462194       4.30750103       9.67420947      -0.37069498       0.11296491       0.08882409       0.00000000
Ge       3.07070741       8.15886111       9.58415082      -0.39888666      -0.26672356      -0.73340677       0.00000000
Ge       3.04444023      12.17410406       9.53006091      -0.59945485       0.44616017       0.33572315       0.00000000
Ge       7.02674750       3.83607007       9.52813153       0.57225545       0.42373101       0.38264790       0.00000000
Ge       7.17004760       7.84538693       9.78859919      -0.57946358       0.55142024       0.18367000       0.00000000
Ge       6.68455862      12.71981386       9.81645515       0.28145272      -0.15534345       0.39113935       0.00000000
Ge      11.09771285       4.03534456       9.50853662       0.27135440      -0.13395965      -0.12249469       0.00000000
Ge       9.42613622       8.94763797       1.41973687      -0.16499744       0.01007540      -0.22252596       0.00000000
Se      11.48451451       0.12222770       7.06922104      -0.06536473       0.00737216       0.31346876      -0.00000000
Se       3.17555938       4.25494201       7.11683048      -0.78932471      -0.24793007      -0.11032328      -0.00000000
Se       2.91525925       8.61884093       6.95157129       0.75812079      -0.45801039       0.67017412      -0.00000000
Se       7.34286058       0.05643982       7.41396495       0.02038688      -0.00994665      -0.81129247      -0.00000000
Se       7.17398108       4.33200480       7.06364387      -0.62553709      -0.38871826      -0.27156920      -0.00000000
Se       7.16817126       8.63695768       7.29162412      -0.04820227      -0.18269718      -0.43429665      -0.00000000
Se      11.12201959       4.37577655       6.93230581       0.02712759      -0.02034294       0.41455851      -0.00000000
Se       9.37055587       0.06538272       4.08643173      -0.67319886       0.42751162      -0.53250759      -0.00000000
Se       1.07096922       0.33602402       3.93379775      -0.37636139      -0.03444978      -0.15913362      -0.00000000
Se       0.98897605       4.29537183       3.98718562       0.10019810       0.08036045      -0.17471098      -0.00000000
Se       0.83149149       8.30283103       3.72668026      -0.23299846      -0.12869994       0.28336753      -0.00000000
Se       4.98611698      -0.04105298       3.89580505       0.12449173       0.08630790       0.39257725      -0.00000000
Se       5.14339374       4.49023169       3.94621759      -0.31788317      -0.35076444       0.04547813      -0.00000000
Se       5.02102884       8.71240795       3.82467596       0.55254175      -0.12489374      -0.11067289      -0.00000000
Se       2.94926353       0.28439666       7.04835803       0.21685963      -0.25215402       0.08773267      -0.00000000
Se      11.36205770       8.34880401       7.06021736      -0.01849081      -0.11582126      -0.40267445      -0.00000000
Se      11.33596214      10.71023388       1.64997256       0.19128932      -0.28323450      -0.13486288      -0.00000000
Se       3.05637696       2.31433094       1.55909756       0.18229972       0.05757708       0.19037852      -0.00000000
Se      11.37525396       2.29371653       1.57441366      -0.41567467      -0.56561962      -0.00947708      -0.00000000
Se       8.96165132       4.18926606       3.86811697       0.10333534      -0.35585782      -0.00201402      -0.00000000
Se       0.99855077       2.40725101       9.53359513      -0.44047218       0.09512715       0.37390841      -0.00000000
Se       0.96355509       6.45887237       9.66778316       0.46187379      -0.33190737      -0.59839868      -0.00000000
Se       0.99564733      10.50039806       9.41857627       0.29881309      -0.23136792      -0.39548537      -0.00000000
Se       5.00760848       2.28657677       9.59504396      -0.01317039      -0.36297135       0.10617097      -0.00000000
Se       5.03306211       6.23116529       9.36061230       0.30824307       0.60305841       0.30140923      -0.00000000
Se       5.08622560      10.68334968       9.50793162      -0.00161541      -0.25794320      -0.26295700      -0.00000000
Se       9.28240379       2.22352717       9.36324779      -0.15249387       0.00737019       0.52096564      -0.00000000
Se       9.23557448       6.47893293       9.43990683      -0.27937655      -0.86360491      -0.29563479      -0.00000000
Se       9.49168686      10.46536178       9.43900293      -0.31847282      -0.38040233      -0.25785275      -0.00000000
Se       3.12261619       6.40644931       1.70996455      -0.69576505       1.02662407      -0.41155630      -0.00000000
Se       2.81423631      10.63998788       1.73594325       0.14621403      -0.76601374      -0.37854562      -0.00000000
Se       6.91220112       2.05160729       1.66069966       0.45654842      -0.21322275      -0.42074727      -0.00000000
Se       7.12233112       6.52331819       1.60429449      -0.01918369      -0.04223925      -0.69535006      -0.00000000
Se       7.28054726      10.49550490       1.51093475       0.35920209       0.42394553       0.21317342      -0.00000000
Se      11.17435684       6.20488085       1.54755889      -0.09875677       0.14351703       0.41143403      -0.00000000
Se       9.25982561       8.43640945       3.89682922       0.10254693       0.69846779       0.17059057      -0.00000000
72
Lattice="12.425093378623538 3.1345462456e-06 7.208789541e-07 3.1578782092e-06 12.517585498120265 -3.6584670581e-06 8.271240421e-07 -4.1666474191e-06 11.074872210691058" Properties=species:S:1:pos:R:3:forces:R:3:magmoms:R:1 energy=-300.41602975 stress="-0.001000896523630012 -0.00048157235599577164 -0.00016348101488911703 -0.00048157235599577164 -0.004697920842361102 -0.00030868903189527804 -0.00016348101488911703 -0.00030868903189527804 -0.006797185621496744" dipole="_JSON [[0.0, 0.0, 0.0]]" magmom=0.0019874 free_energy=-300.41602975 pbc="T T T"
Ge       1.01976890       0.61199751       1.37043294      -0.33257029       0.03469506      -0.07711297       0.00000000
Ge       2.83541023      11.00069727       4.27265653       0.12678927      -0.02389523      -0.28000563       0.00000000
Ge       6.91056567       2.78815582       4.25741086      -0.20638065      -0.65946502       0.02412292       0.00000000
Ge       6.91075824       6.90588674       4.00049581       0.66517040      -0.01628969      -0.32928287      -0.00000000
Ge       6.91898734      10.80847395       3.90307493      -0.00381243      -0.29742073       0.29628617       0.00000000
Ge      10.84903030       2.46857694       3.98755293       0.14850084      -0.79564580       0.05161482       0.00000000
Ge      11.15485473       6.83035428       4.01108097      -0.44268923      -0.14722881       0.46285981       0.00000000
Ge      11.49732174      10.98623223       4.24342106      -0.55608990       0.19461105      -0.18608991       0.00000000
Ge       0.89575828       1.98772111       6.84178555       0.21399149       0.03832257       0.62601343       0.00000000
Ge       0.52871133       6.27755713       7.02067830       0.15535474       0.01124683      -0.57331677       0.00000000
Ge       0.89714600      10.03092400       6.97267072       0.17763523      -0.03610487      -0.33064055       0.00000000