 running  128 mpi-ranks, with    1 threads/rank, on    2 nodes
 distrk:  each k-point on   64 cores,    2 groups
 distr:  one band on    4 cores,   16 groups
 vasp.6.4.2 20Jul23 (build Oct 12 2023 10:31:02) complex                         
 POSCAR found type information on POSCAR GeSe
 POSCAR found :  2 types and       8 ions
 Reading from existing POTCAR
 scaLAPACK will be used
 Reading from existing POTCAR
 LDA part: xc-table for Pade appr. of Perdew
 POSCAR, INCAR and KPOINTS ok, starting setup
 FFT: planning ... GRIDC
 FFT: planning ... GRID_SOFT
 FFT: planning ... GRID
 WAVECAR not read
 entering main loop
       N       E                     dE             d eps       ncg     rms          rms(c)
DAV:   1     0.134569415363E+03    0.13457E+03   -0.12501E+04  2560   0.759E+02
DAV:   2    -0.241791267921E+02   -0.15875E+03   -0.15425E+03  3760   0.135E+02
DAV:   3    -0.338582723126E+02   -0.96791E+01   -0.96572E+01  3200   0.394E+01
DAV:   4    -0.339324723727E+02   -0.74200E-01   -0.74194E-01  3168   0.396E+00
DAV:   5    -0.339329834288E+02   -0.51106E-03   -0.51105E-03  3216   0.320E-01    0.607E+00
DAV:   6    -0.333537809477E+02    0.57920E+00   -0.13281E+00  2848   0.370E+00    0.374E+00
DAV:   7    -0.333453559636E+02    0.84250E-02   -0.27401E-01  2992   0.184E+00    0.163E+00
DAV:   8    -0.333454655146E+02   -0.10955E-03   -0.28097E-02  2912   0.661E-01    0.184E-01
DAV:   9    -0.333454005348E+02    0.64980E-04   -0.54477E-03  3104   0.298E-01    0.765E-02
DAV:  10    -0.333456317990E+02   -0.23126E-03   -0.64763E-04  2816   0.109E-01    0.259E-02
DAV:  11    -0.333456675665E+02   -0.35767E-04   -0.56859E-05  3072   0.333E-02    0.149E-02
DAV:  12    -0.333456693224E+02   -0.17559E-05   -0.14664E-05  3024   0.158E-02    0.326E-03
DAV:  13    -0.333456701829E+02   -0.86049E-06   -0.16497E-06  2192   0.485E-03
   1 F= -.33345670E+02 E0= -.33345670E+02  d E =-.168779E-12
