 running  128 mpi-ranks, with    1 threads/rank, on    2 nodes
 distrk:  each k-point on   64 cores,    2 groups
 distr:  one band on    8 cores,    8 groups
 vasp.6.4.2 20Jul23 (build Oct 12 2023 10:31:02) complex                         
 POSCAR found type information on POSCAR GeSe
 POSCAR found :  2 types and      72 ions
 Reading from existing POTCAR
 -----------------------------------------------------------------------------
|                                                                             |
|           W    W    AA    RRRRR   N    N  II  N    N   GGGG   !!!           |
|           W    W   A  A   R    R  NN   N  II  NN   N  G    G  !!!           |
|           W    W  A    A  R    R  N N  N  II  N N  N  G       !!!           |
|           W WW W  AAAAAA  RRRRR   N  N N  II  N  N N  G  GGG   !            |
|           WW  WW  A    A  R   R   N   NN  II  N   NN  G    G                |
|           W    W  A    A  R    R  N    N  II  N    N   GGGG   !!!           |
|                                                                             |
|     You use a magnetic or noncollinear calculation, but did not specify     |
|     the initial magnetic moment with the MAGMOM tag. Note that a            |
|     default of 1 will be used for all atoms. This ferromagnetic setup       |
|     may break the symmetry of the crystal, in particular it may rule        |
|     out finding an antiferromagnetic solution. Thence, we recommend         |
|     setting the initial magnetic moment manually or verifying carefully     |
|     that this magnetic setup is desired.                                    |
|                                                                             |
 -----------------------------------------------------------------------------

 scaLAPACK will be used
 Reading from existing POTCAR
 -----------------------------------------------------------------------------
|                                                                             |
|               ----> ADVICE to this user running VASP <----                  |
|                                                                             |
|     You have a (more or less) 'large supercell' and for larger cells it     |
|     might be more efficient to use real-space projection operators.         |
|     Therefore, try LREAL= Auto in the INCAR file.                           |
|     Mind: For very accurate calculation, you might also keep the            |
|     reciprocal projection scheme (i.e. LREAL=.FALSE.).                      |
|                                                                             |
 -----------------------------------------------------------------------------

 LDA part: xc-table for Pade appr. of Perdew
 -----------------------------------------------------------------------------
|                                                                             |
|           W    W    AA    RRRRR   N    N  II  N    N   GGGG   !!!           |
|           W    W   A  A   R    R  NN   N  II  NN   N  G    G  !!!           |
|           W    W  A    A  R    R  N N  N  II  N N  N  G       !!!           |
|           W WW W  AAAAAA  RRRRR   N  N N  II  N  N N  G  GGG   !            |
|           WW  WW  A    A  R   R   N   NN  II  N   NN  G    G                |
|           W    W  A    A  R    R  N    N  II  N    N   GGGG   !!!           |
|                                                                             |
|     The number of bands has been changed from the values supplied in        |
|     the INCAR file. This is a result of running the parallel version.       |
|     The orbitals not found in the WAVECAR file will be initialized with     |
|     random numbers, which is usually adequate. For correlated               |
|     calculations, however, you should redo the groundstate calculation.     |
|     I found NBANDS = 220. Now, NBANDS = 224.                                |
|                                                                             |
 -----------------------------------------------------------------------------

 POSCAR, INCAR and KPOINTS ok, starting setup
 FFT: planning ... GRIDC
 FFT: planning ... GRID_SOFT
 FFT: planning ... GRID
 WAVECAR not read
 WARNING: random wavefunctions but no delay for mixing, default for NELMDL
 entering main loop
       N       E                     dE             d eps       ncg     rms          rms(c)
DAV:   1     0.181123969840E+04    0.18112E+04   -0.14185E+05  7168   0.135E+03
DAV:   2    -0.654087325313E+02   -0.18766E+04   -0.18021E+04  8496   0.204E+02
DAV:   3    -0.281665304378E+03   -0.21626E+03   -0.21037E+03  8568   0.689E+01
DAV:   4    -0.289537603360E+03   -0.78723E+01   -0.77802E+01  8760   0.130E+01
DAV:   5    -0.289831190174E+03   -0.29359E+00   -0.29276E+00  9048   0.213E+00    0.291E+01
DAV:   6    -0.289287673144E+03    0.54352E+00   -0.26948E+01  7928   0.766E+00    0.172E+01
DAV:   7    -0.296707775433E+03   -0.74201E+01   -0.85726E+00  7968   0.446E+00    0.907E+00
DAV:   8    -0.299966148350E+03   -0.32584E+01   -0.17729E+00  8184   0.227E+00    0.327E+00
DAV:   9    -0.300343863055E+03   -0.37771E+00   -0.41920E-01  9024   0.101E+00    0.146E+00
DAV:  10    -0.300444937494E+03   -0.10107E+00   -0.91225E-02  8144   0.455E-01    0.726E-01
DAV:  11    -0.300476090612E+03   -0.31153E-01   -0.35837E-02  8840   0.281E-01    0.277E-01
DAV:  12    -0.300479166839E+03   -0.30762E-02   -0.43517E-03  8720   0.115E-01    0.100E-01
DAV:  13    -0.300479267487E+03   -0.10065E-03   -0.49797E-04  9680   0.347E-02    0.401E-02
DAV:  14    -0.300479280609E+03   -0.13122E-04   -0.72958E-05  8264   0.176E-02    0.152E-02
DAV:  15    -0.300479283776E+03   -0.31670E-05   -0.13998E-05  8624   0.829E-03    0.688E-03
DAV:  16    -0.300479284503E+03   -0.72750E-06   -0.14829E-06  4760   0.271E-03
   1 F= -.30047928E+03 E0= -.30047928E+03  d E =-.131019E-13  mag=     0.0004
