 running  256 mpi-ranks, with    1 threads/rank, on    4 nodes
 distrk:  each k-point on  128 cores,    2 groups
 distr:  one band on   16 cores,    8 groups
 vasp.6.4.1 05Apr23 (build May 18 2023 13:19:41) complex                         
 POSCAR found type information on POSCAR H 
 POSCAR found :  1 types and       1 ions
 Reading from existing POTCAR
 -----------------------------------------------------------------------------
|                                                                             |
|           W    W    AA    RRRRR   N    N  II  N    N   GGGG   !!!           |
|           W    W   A  A   R    R  NN   N  II  NN   N  G    G  !!!           |
|           W    W  A    A  R    R  N N  N  II  N N  N  G       !!!           |
|           W WW W  AAAAAA  RRRRR   N  N N  II  N  N N  G  GGG   !            |
|           WW  WW  A    A  R   R   N   NN  II  N   NN  G    G                |
|           W    W  A    A  R    R  N    N  II  N    N   GGGG   !!!           |
|                                                                             |
|     You use a magnetic or noncollinear calculation, but did not specify     |
|     the initial magnetic moment with the MAGMOM tag. Note that a            |
|     default of 1 will be used for all atoms. This ferromagnetic setup       |
|     may break the symmetry of the crystal, in particular it may rule        |
|     out finding an antiferromagnetic solution. Thence, we recommend         |
|     setting the initial magnetic moment manually or verifying carefully     |
|     that this magnetic setup is desired.                                    |
|                                                                             |
 -----------------------------------------------------------------------------

 scaLAPACK will be used
 Reading from existing POTCAR
 LDA part: xc-table for Pade appr. of Perdew
 POSCAR, INCAR and KPOINTS ok, starting setup
 FFT: planning ... GRIDC
 FFT: planning ... GRID_SOFT
 FFT: planning ... GRID
 WAVECAR not read
 WARNING: random wavefunctions but no delay for mixing, default for NELMDL
 entering main loop
       N       E                     dE             d eps       ncg     rms          rms(c)
DAV:   1     0.226559619819E+01    0.22656E+01   -0.24500E+01  7168   0.158E-01
DAV:   2    -0.739056805329E+00   -0.30047E+01   -0.28381E+01  8112   0.118E-01
DAV:   3    -0.110445681226E+01   -0.36540E+00   -0.36224E+00  8640   0.473E-02
DAV:   4    -0.110779628148E+01   -0.33395E-02   -0.33393E-02  8328   0.547E-03
DAV:   5    -0.110781184486E+01   -0.15563E-04   -0.15563E-04  8464   0.355E-04    0.537E-01
DAV:   6    -0.476061345977E-01    0.10602E+01   -0.10107E-03  8896   0.132E-03    0.288E-01
DAV:   7    -0.721691841659E+00   -0.67409E+00   -0.35470E-04  8304   0.642E-04    0.154E-01
DAV:   8    -0.104357934428E+01   -0.32189E+00   -0.58518E-04  7864   0.870E-04    0.266E-02
DAV:   9    -0.106198727744E+01   -0.18408E-01   -0.10031E-04  8072   0.300E-04    0.162E-02
DAV:  10    -0.107943631707E+01   -0.17449E-01   -0.10519E-05  7544   0.996E-05    0.875E-03
DAV:  11    -0.110401822823E+01   -0.24582E-01   -0.83001E-06  7728   0.704E-05    0.504E-03
DAV:  12    -0.110372977561E+01    0.28845E-03   -0.29978E-06  7376   0.486E-05    0.198E-03
DAV:  13    -0.110607996083E+01   -0.23502E-02   -0.16581E-06  7280   0.398E-05    0.141E-03
DAV:  14    -0.110767925523E+01   -0.15993E-02   -0.30151E-06  7328   0.520E-05    0.687E-04
DAV:  15    -0.110806786036E+01   -0.38861E-03   -0.15628E-06  7456   0.383E-05    0.574E-04
DAV:  16    -0.110814708137E+01   -0.79221E-04   -0.82164E-07  7288   0.213E-05    0.395E-04
DAV:  17    -0.110848455181E+01   -0.33747E-03   -0.70517E-07  7632   0.205E-05    0.153E-04
DAV:  18    -0.110843572578E+01    0.48826E-04   -0.28574E-07  7480   0.178E-05    0.107E-04
DAV:  19    -0.110851464941E+01   -0.78924E-04   -0.88999E-08  7760   0.105E-05    0.836E-05
DAV:  20    -0.110854346721E+01   -0.28818E-04   -0.98859E-08  8248   0.679E-06    0.404E-05
DAV:  21    -0.110856000896E+01   -0.16542E-04   -0.23867E-08  8624   0.592E-06    0.252E-05
DAV:  22    -0.110856512281E+01   -0.51138E-05   -0.13003E-08  7696   0.410E-06    0.195E-05
DAV:  23    -0.110857110934E+01   -0.59865E-05   -0.27292E-09  7976   0.154E-06    0.157E-05
DAV:  24    -0.110857140903E+01   -0.29969E-06   -0.51708E-10  8824   0.859E-07
   1 F= -.11085715E+01 E0= -.11085715E+01  d E =-.145505E-26  mag=     1.0000
 writing wavefunctions
 PROFILE, used timers:     310
