 running  160 mpi-ranks, with    1 threads/rank, on   10 nodes
 distrk:  each k-point on   80 cores,    2 groups
 distr:  one band on    5 cores,   16 groups
 vasp.6.4.2 20Jul23 (build Oct 12 2023 10:31:02) complex                         
 POSCAR found type information on POSCAR GeSe
 POSCAR found :  2 types and       8 ions
 Reading from existing POTCAR
 scaLAPACK will be used
 Reading from existing POTCAR
 LDA part: xc-table for Pade appr. of Perdew
 POSCAR, INCAR and KPOINTS ok, starting setup
 FFT: planning ... GRIDC
 FFT: planning ... GRID_SOFT
 FFT: planning ... GRID
 WAVECAR not read
 entering main loop
       N       E                     dE             d eps       ncg     rms          rms(c)
DAV:   1     0.131967915423E+03    0.13197E+03   -0.12999E+04  2560   0.779E+02
DAV:   2    -0.252270745839E+02   -0.15719E+03   -0.15272E+03  3792   0.141E+02
DAV:   3    -0.335845004424E+02   -0.83574E+01   -0.83438E+01  3184   0.377E+01
DAV:   4    -0.336387834059E+02   -0.54283E-01   -0.54275E-01  3360   0.346E+00
DAV:   5    -0.336391335710E+02   -0.35017E-03   -0.35016E-03  3248   0.269E-01    0.683E+00
DAV:   6    -0.332659026451E+02    0.37323E+00   -0.70866E-01  2960   0.287E+00    0.428E+00
DAV:   7    -0.332527136897E+02    0.13189E-01   -0.25593E-01  3328   0.177E+00    0.125E+00
DAV:   8    -0.332500015665E+02    0.27121E-02   -0.30040E-02  2800   0.653E-01    0.166E-01
DAV:   9    -0.332502198185E+02   -0.21825E-03   -0.37467E-03  3008   0.266E-01    0.596E-02
DAV:  10    -0.332503180068E+02   -0.98188E-04   -0.25437E-04  3232   0.686E-02    0.227E-02
DAV:  11    -0.332503490518E+02   -0.31045E-04   -0.39025E-05  2944   0.280E-02    0.107E-02
DAV:  12    -0.332503507876E+02   -0.17358E-05   -0.73474E-06  3408   0.109E-02    0.248E-03
DAV:  13    -0.332503510742E+02   -0.28667E-06   -0.10482E-06  1808   0.454E-03
   1 F= -.33250351E+02 E0= -.33250351E+02  d E =-.171057E-09
