72
Lattice="12.451029310121262 -7.627580582e-07 -8.181424637e-07 -7.657086697e-07 12.49918956764526 2.1530668053e-06 -9.359455657e-07 2.453592312e-06 11.06514534779108" Properties=species:S:1:pos:R:3:forces:R:3:magmoms:R:1 energy=-300.91380979 stress="0.0034451723788378975 -0.0011975752579899337 0.0005275860220566265 -0.0011975752579899337 -0.006024053337628131 0.00015860171512995782 0.0005275860220566265 0.00015860171512995782 -0.009787195884914513" dipole="_JSON [[0.0, 0.0, 0.0]]" magmom=0.0016909 free_energy=-300.91380979 pbc="T T T"
Ge       1.00882815       0.56609053       1.38597930       0.08627837      -0.03735809       0.05529703       0.00000000
Ge       3.16430974      10.91731300       3.95393923       0.38369852       0.01579306       0.26913466       0.00000000
Ge       6.98492395       2.77852388       3.95247342       0.10620306      -0.49437088       0.07933660       0.00000000
Ge       7.33310723       6.56061174       4.16033801      -0.35894752      -0.15293278       0.04510076       0.00000000
Ge       7.25861531      10.93698120       4.10140141       0.18716611       0.20574815      -0.13093538       0.00000000
Ge      11.59269542       2.61293252       3.90691989      -0.31063451      -0.38934257       0.35862255       0.00000000
Ge      11.21477838       6.90824945       4.08801717       0.00488658      -0.07635882       0.15681084       0.00000000
Ge      11.25157492      11.00599645       3.92105944      -0.23994552       0.21859079       0.32118661       0.00000000
Ge       0.59066383       1.66135611       6.80287783       0.17415136       0.07197165       0.47049805       0.00000000
Ge       0.86808490       5.97628023       6.87500134      -0.24045981       0.04396790       0.08079275       0.00000000
Ge       1.04151902      10.45628875       6.98368338      -0.31562272       0.04515345       0.50499458       0.00000000
Ge       5.19300259       2.17085568       6.83443242       0.32231213      -0.11612240      -0.75706634      -0.00000000
Ge       4.84974293       6.08221624       6.99438050      -0.01594621      -0.19479259      -0.29199727       0.00000000
Ge       5.14590421      10.15731300       6.91392576      -0.03199506       0.40917876      -0.36881676      -0.00000000
Ge       9.17818442       1.79253388       6.84977132       0.24589701       0.16030685      -0.16806157       0.00000000
Ge       9.35907667       6.15527025       6.82685505       0.40074164       0.19550293       0.42316634       0.00000000
Ge       2.79148963       7.15206602       4.42387778       0.36667015      -0.29577727      -0.34709964       0.00000000
Ge       3.08942159       2.56997930       3.97920227      -0.06867644      -0.06201684       0.07452018       0.00000000
Ge       9.19888374       9.98166125       6.72074559      -0.04564300      -0.10640426       0.34641271       0.00000000
Ge      11.45520635       8.04505363       9.80334170      -0.21469602       0.35930993       0.03496025       0.00000000
Ge      10.88714562      11.98206343       9.86907021       0.38330969       0.44506683      -0.17456894       0.00000000
Ge       1.04250689       4.77697470       1.40210996       0.06081065      -0.00758498      -0.20017664       0.00000000
Ge       1.06282843       8.98973204       1.53588174      -0.42095448      -0.25948667      -0.37580744       0.00000000
Ge       5.25807931       0.43341778       1.48893592      -0.44430955      -0.22063609      -0.07524526      -0.00000000
Ge       4.97156738       4.79833549       1.26330217      -0.27157483       0.13538828       0.18842082       0.00000000
Ge       9.10142757       0.82018219       1.30239445       0.38766877      -0.45834366       0.28775891       0.00000000
Ge       9.31454187       4.62522148       1.25275959      -0.10666833      -0.06876711       0.46224724       0.00000000
Ge       5.10559169       8.72185278       1.61076523       0.19371149      -0.01593383      -0.66198967       0.00000000
Ge       2.86142379       3.91906766       9.68680087      -0.38026579      -0.40397659      -0.40799905       0.00000000
Ge       2.66121826       8.34049335       9.70847621       0.13501927      -0.54024018      -0.52680718       0.00000000
Ge       3.22395692      12.57278707       9.57865661      -0.19725099      -0.37399383      -0.19120376      -0.00000000
Ge       7.34775175       4.11299658       9.39915193       0.06002132      -0.04547710       0.38512635       0.00000000
Ge       6.97713352       7.86382426       9.77355615      -0.04264990       0.34211836      -0.18831711       0.00000000
Ge       7.08751724      12.49404387       9.57415393       0.01182069      -0.53542680      -0.54595758      -0.00000000
Ge      11.27384204       3.80582520       9.65378610       0.57168133       0.17083326      -0.17053569       0.00000000
Ge       9.21313086       8.85724652       1.30875767      -0.14739014       0.29326317      -0.03819198       0.00000000
Se      11.04645114       0.03981401       7.28407867       0.03568691      -0.24726017      -0.41027407      -0.00000000
Se       2.69928417       4.23942750       7.12375379       0.45034082       0.03478721       0.10919861      -0.00000000
Se       2.94603437       8.74921711       7.06915045      -0.03107165      -0.50477260       0.42043440      -0.00000000
Se       7.11990897       0.27038741       6.95546112      -0.32405224       0.15618691       0.57905364      -0.00000000
Se       6.90438027       4.27417797       6.92975626      -0.33449210      -0.02893421      -0.04955892      -0.00000000
Se       6.87483982       8.33705346       7.20317034       0.48356139      -0.12043288      -0.01183506      -0.00000000
Se      11.21883443       4.36130221       7.08365110       0.13781550       0.04451324      -0.11781727      -0.00000000
Se       9.29963226       0.21593342       3.89685344      -0.61796243       0.14130252      -0.21447926      -0.00000000
Se       0.70868446       0.29632409       3.98757534       0.16649895      -0.10942984      -0.38234722      -0.00000000
Se       1.02943940       4.28824812       3.86596388       0.23677513       0.14494003       0.30268030      -0.00000000
Se       0.76156625       8.73163657       4.04615022      -0.16467604      -0.07247334       0.21132962      -0.00000000
Se       5.25191548       0.14433237       4.01183731      -0.59570431      -0.07406678      -0.13488063      -0.00000000
Se       4.97766202       4.32040165       3.79977443      -0.30505794       0.37393123       0.08732567      -0.00000000
Se       5.00302150       8.59388384       4.04675205      -0.40108386       0.14186450       0.63137502      -0.00000000
Se       2.62600151      -0.00138839       7.05861775      -0.00184906       0.03480149       0.01960299      -0.00000000
Se      11.10722061       8.25873487       7.28446323      -0.51335389       0.07062688      -0.44796154      -0.00000000
Se      11.07665495      10.68562494       1.43821922       0.16760715      -0.50194878       0.17437603      -0.00000000
Se       3.04926166       2.22419311       1.45619853      -0.21422581      -0.31228644       0.02183185      -0.00000000
Se      11.34315832       2.35131283       1.40795063      -0.41316833      -0.00886378      -0.10207347      -0.00000000
Se       8.90988853       4.44444848       3.83274058       0.53062425      -0.02278594      -0.24750340      -0.00000000
Se       0.72837430       1.99053318       9.38302235       0.07941114       0.73800392       0.09721710      -0.00000000
Se       0.84431424       6.29697347       9.45129127       0.43111407       0.53152862      -0.02086501      -0.00000000
Se       0.48373042      10.28912487       9.76467327       0.26923847       0.11111765      -0.89106360      -0.00000000
Se       4.75015623       2.09491183       9.23776376       0.24147547       0.31990209       0.85765237      -0.00000000
Se       4.73905101       6.49411163       9.45994807      -0.00754696      -0.22987231       0.40173780      -0.00000000
Se       5.09430187      10.69619020       9.34766259      -0.06288554       0.33000761       0.59128885      -0.00000000
Se       9.29918309       2.28319460       9.40135899      -0.83679604      -0.07450091       0.03268943      -0.00000000
Se       8.94971604       6.19424540       9.40886121      -0.16063718      -0.09820719      -0.13737414      -0.00000000
Se       8.90079972      10.58968504       9.23105050      -0.28176926      -0.40276939       0.24796254      -0.00000000
Se       2.88699217       6.60362288       1.71490244      -0.06323841      -0.19619740       0.06148847      -0.00000000
Se       3.02751178      10.54782632       1.47905765      -0.10921044       0.57136340      -0.09347948      -0.00000000
Se       6.92687440       2.30941766       1.39905905       0.44440295       0.37959379       0.09070832      -0.00000000
Se       6.85033779       6.45668246       1.64755019       0.39729186       0.13513956      -0.40910906      -0.00000000
Se       7.05994918      10.57183135       1.55551886       0.27375489      -0.19174150      -0.01807303      -0.00000000
Se      11.23674407       6.22011513       1.62806030       0.24793837       0.60753596      -0.16306915      -0.00000000
Se       9.04144372       8.43836649       3.86437174       0.61682687       0.07254684      -0.00979865      -0.00000000
72
Lattice="12.452666287066345 -7.628583405e-07 -8.182500275e-07 -7.654488582e-07 12.494948485153639 2.1523362512e-06 -9.353633251e-07 2.4520659613e-06 11.05826185206255" Properties=species:S:1:pos:R:3:forces:R:3:magmoms:R:1 energy=-300.57510666 stress="0.0038098183251183294 -0.00031412040561963996 2.2854596381337986e-05 -0.00031412040561963996 -0.0013394190079546067 7.81776979977762e-05 2.2854596381337986e-05 7.81776979977762e-05 -0.01035031834487745" dipole="_JSON [[0.0, 0.0, 0.0]]" magmom=0.0019589 free_energy=-300.57510666 pbc="T T T"
Ge       0.98619332       0.49881848       1.24444816      -0.23127278      -0.52180402       0.45912449       0.00000000
Ge       3.22252729      10.80117042       4.01982642      -0.59153220      -0.26864889       0.17548239       0.00000000
Ge       7.16198555       2.78247579       3.98005457       0.00900255       0.08581334      -0.40197355       0.00000000
Ge       7.28688221       6.54622363       3.86834552       0.37470367       0.36046349       0.17548578      -0.00000000
Ge       7.46241847      10.85957123       3.95365815      -0.61967642      -0.35033734       0.70191568      -0.00000000
Ge      11.57320220       2.39023163       4.11853782      -0.04655824      -0.19564155      -0.12360056       0.00000000
Ge      11.64134137       6.85893827       4.04703315      -0.61690993       0.03016161       0.06496047       0.00000000
Ge      11.11259371      11.12516290       4.06190250       0.19971929       0.10307866      -0.21275688      -0.00000000
Ge       0.67152777       1.82457471       7.02219605       0.20110258      -0.35464595      -0.61402032       0.00000000
Ge       0.71676182       6.08099628       6.98779513       0.58310746       0.31579884      -0.33476753       0.00000000
Ge       0.91410758      10.38849940       7.07352314       0.34619596      -0.00521883      -0.66947458      -0.00000000
Ge       5.37022356       2.03488512       6.52701878      -0.54558364      -0.02881567       0.36400553       0.00000000
Ge       4.67346428       5.85723047       6.91584422       0.30620909       0.42607780      -0.20378642       0.00000000
Ge       5.05738600      10.18006668       7.25588190      -0.19323768      -0.12407954      -0.37741936       0.00000000
Ge       9.11452573       1.95363039       7.05943701       0.10502823      -0.41395271      -0.03230459       0.00000000
Ge       9.29608773       6.17175413       7.04289170      -0.17614688       0.21026324       0.38502807      -0.00000000
Ge       2.95996456       6.76503749       4.23826969       0.23944361       0.67922995      -0.13232475       0.00000000
Ge       3.04985178       2.59253547       3.90605831      -0.10895943      -0.07600125       0.46288092       0.00000000
Ge       9.24210531      10.27740247       6.95693205      -0.42931208      -0.43757529       0.19173214      -0.00000000
Ge      11.15907985       8.29060100       9.58197530       0.35080801      -0.27695285      -0.55629770      -0.00000000
Ge      11.15552308      12.13493662       9.73729536      -0.46576958      -0.11335606      -0.36758539       0.00000000
Ge       1.06924247       4.64010664       1.36601384      -0.27416753       0.28944294       0.39442860       0.00000000
Ge       0.81251672       8.95591701       1.42383223       0.28062847       0.22630675       0.10130999       0.00000000
Ge       5.17019682       0.41629756       1.36064027       0.17073773       0.15479851       0.02207881       0.00000000
Ge       4.96482177       4.77055075       1.32728408       0.31902462       0.19223183       0.17054268       0.00000000
Ge       9.24767448       0.72029852       1.45503945      -0.39138567      -0.13384804      -0.23820100       0.00000000
Ge       9.29728105       4.74115141       1.48550323       0.41740586      -0.12938363      -0.94567141       0.00000000
Ge       5.08416084       8.77757260       1.58772722       0.37649481       0.02305065       0.16295834      -0.00000000
Ge       3.02410683       3.69905172       9.69241189      -0.38382476       0.74203178      -0.21458207       0.00000000
Ge       2.96237110       7.98893668       9.69165546      -0.41867105       0.45413931      -0.43959263      -0.00000000
Ge       3.03193675      12.55574252       9.54283700       0.30025908      -0.05014352      -0.55008835       0.00000000
Ge       7.20500678       3.99841538       9.55334678       0.22939661       0.11617123      -0.02436521       0.00000000
Ge       6.86637384       8.05923435       9.50734847       0.37316066      -0.15212201      -0.03338639      -0.00000000
Ge       7.00470218      12.31856790       9.56748163       0.18495867      -0.07028286       0.00516297       0.00000000
Ge      11.49864257       4.03035881       9.44338036      -0.63504537       0.37675878       0.82865225       0.00000000
Ge       9.35560709       8.78125199       1.31954146      -0.02343397      -0.07280086       0.21885670      -0.00000000
Se      11.05329575       0.01768497       7.01090137      -0.12424813       0.39214453       0.47797888      -0.00000000
Se       2.69474819       4.31865076       7.10197511      -0.21214025      -0.50033129       0.25399123      -0.00000000
Se       2.83281812       8.52404780       7.07838085       0.17113007       0.28246918       0.53377729      -0.00000000
Se       7.01032192       0.16119425       6.97117657       0.45377600      -0.11080787       0.34372758      -0.00000000
Se       6.74104944       4.17082563       6.97681029       0.42391801       0.21580401       0.12887518      -0.00000000
Se       6.96583028       8.38328923       7.01787826      -0.05038405       0.28918699       0.09008457      -0.00000000
Se      11.24204166       4.39096401       7.02316748      -0.32553054      -0.25090060      -0.47706350      -0.00000000
Se       8.85681526       0.45846548       3.96187246       0.91983077      -0.09942660      -0.06763803      -0.00000000
Se       0.72682470       0.24707162       3.84499579      -0.30305457       0.29373632      -0.06049251      -0.00000000
Se       0.93497825       4.23845889       3.99461108       0.35835895      -0.01340873      -0.56281156      -0.00000000
Se       0.79140913       8.79344108       3.97038933       0.36028286      -0.31953539      -0.01409996      -0.00000000
Se       5.11332700      -0.13499392       3.82745130       0.70711303       0.92906176       0.02537644      -0.00000000
Se       4.90346664       4.45201276       3.91364030       0.17055766      -0.03558741      -0.32185515      -0.00000000
Se       4.90642466       8.80171557       4.13766636      -0.30074531      -0.95934491      -0.42777195      -0.00000000
Se       2.62416721       0.10156992       6.94512982      -0.08001782      -0.31636168       0.59205694      -0.00000000
Se      10.95995935       8.27046171       6.90655787       0.00558828       0.25493723       0.79540519      -0.00000000
Se      11.24898515      10.63691472       1.46770195      -0.33061713       0.16831197       0.19996986      -0.00000000
Se       2.98625756       2.04649380       1.42230027       0.40253114       0.59054220      -0.16590410      -0.00000000
Se      11.08527945       2.41649441       1.58552011       0.30901424       0.27530396       0.05571527      -0.00000000
Se       9.11805390       4.55108761       3.87277173      -0.44110880      -0.15445038       1.20805460      -0.00000000
Se       0.81743996       2.23980285       9.45641234      -0.02637885      -0.48014532       0.42728819      -0.00000000
Se       0.79583918       6.47150002       9.45775392      -0.32317757       0.01290564       0.44207414      -0.00000000
Se       0.52514242      10.37279975       9.50430815       0.07014835      -0.06479268       0.49611563      -0.00000000
Se       4.83244665       2.10128611       9.22262757       0.17815768      -0.60680684      -0.27838208      -0.00000000
Se       4.78487174       6.30416636       9.41807725       0.36143106      -0.29057518       0.21205633      -0.00000000
Se       4.93505822      10.67564893       9.77396758      -0.02095393      -0.07258275      -0.40364740      -0.00000000
Se       9.19564212       2.28795428       9.55787363      -0.09127740       0.09023651      -0.26490492      -0.00000000
Se       8.88911066       6.22387935       9.65110568      -0.07286615       0.18431051      -0.83164157      -0.00000000
Se       8.91120377      10.40346616       9.53651270       0.36442149       0.48169038      -0.36252718      -0.00000000
Se       2.95286816       6.45727930       1.65412008      -0.19679027       0.05907643      -0.05905456      -0.00000000
Se       2.72543829      10.86401876       1.52429754      -0.03350256      -0.52584023      -0.31340878      -0.00000000
Se       7.10064415       2.39509005       1.38471389      -0.33411655      -0.15056576       0.45675126      -0.00000000
Se       7.13686182       6.56115924       1.34784353      -0.85839654      -0.20992150       0.29107731      -0.00000000
Se       7.22814077      10.33561701       1.55853136      -0.21864191       0.38828465      -0.66075153      -0.00000000
Se      11.44316813       6.41916281       1.54211980      -0.02976645      -0.25515407      -0.15012535      -0.00000000
Se       9.33265999       8.48003825       3.86558591      -0.09844460      -0.50167093      -0.02070283      -0.00000000
72
Lattice="12.449095861129134 -7.626396139e-07 -8.18015419e-07 -7.66218712e-07 12.507515337828847 2.1545009734e-06 -9.367167064e-07 2.4556138663e-06 11.074262099720958" Properties=species:S:1:pos:R:3:forces:R:3:magmoms:R:1 energy=-301.03503076 stress="0.00014132872559764168 0.00024152965720269733 0.0002484123815271191 0.00024152965720269733 -0.001575509495788044 0.0010466095611623095 0.0002484123815271191 0.0010466095611623095 -0.007289200921037432" dipole="_JSON [[0.0, 0.0, 0.0]]" magmom=0.0019325 free_energy=-301.03503076 pbc="T T T"
Ge       1.07044014       0.27626957       1.28212479      -0.04103659      -0.30372188       0.34966168       0.00000000
Ge       3.04809635      10.76356859       4.05368286       0.14608989      -0.54477591      -0.17340414       0.00000000
Ge       7.24943207       2.63288588       3.90524685      -0.30351042      -0.26723724      -0.20444184       0.00000000
Ge       7.34581835       6.45095112       4.06873956      -0.62448903       0.74960795      -0.15655856       0.00000000
Ge       6.96498089      11.06880776       4.16079628       0.86548452      -0.70714430       0.13842054      -0.00000000
Ge      11.45509893       2.24890203       4.08760547      -0.01692204      -0.13520110      -0.07120940       0.00000000
Ge      11.20959282       6.67454177       3.94587777       0.22269079       0.33596220      -0.12359224       0.00000000
Ge      11.22834711      10.77633787       4.25619123       0.26232684       0.37177698      -0.39353736       0.00000000
Ge       0.82209877       1.83028600       6.99386550       0.07038452      -0.04966390      -0.19183309       0.00000000
Ge       0.89914009       6.29847933       6.93402782       0.32531551      -0.42279502      -0.72757633       0.00000000
Ge       1.28540937      10.38230579       6.87443816      -0.37846077       0.08248275       0.22053944       0.00000000
Ge       5.26330619       2.04899495       7.07568917      -0.01186787       0.17614951       0.24917860       0.00000000
Ge       4.90980917       5.93524624       6.96285689      -0.12949583      -0.19518279      -0.05712640       0.00000000
Ge       5.04021651      10.19583234       6.75273333       0.53251757      -0.11296334       0.53663547       0.00000000
Ge       9.15820493       1.98731143       6.67322695       0.25307389      -0.23984209       0.32174387       0.00000000
Ge       9.53679171       6.19193484       7.00604028      -0.36657422       0.55313947       0.11631223       0.00000000
Ge       2.98197446       6.74963584       4.17439979       0.17023118       0.46588476      -0.52013713       0.00000000
Ge       2.73633455       2.79694386       4.16645336       0.11494868      -0.43281374       0.35631074       0.00000000
Ge       9.14652118      10.24400732       7.01057445      -0.23081480      -0.36004596      -0.21650188      -0.00000000
Ge      11.52992715       8.59297896       9.64966478       0.39470729      -0.43987799      -0.62443725      -0.00000000
Ge      11.24285662      12.35253061       9.46634216      -0.00449159      -0.13805014      -0.44045471       0.00000000
Ge       0.84472983       4.67734262       1.19566604      -0.23157678       0.07323517       0.48527294       0.00000000
Ge       0.70974931       8.86800250       1.52256363      -0.01207696       0.21919630      -0.08745290      -0.00000000
Ge       4.93428919       0.75072338       1.39114241      -0.23385185      -0.56238970      -0.27564724       0.00000000
Ge       4.83267964       4.76506503       1.57601662       0.11184846       0.16828459      -0.41022663       0.00000000
Ge       9.12088712       0.57924626       1.40867300       0.00387608      -0.48198345      -0.27814737       0.00000000
Ge       9.33257369       4.33915284       1.53972977       0.22962486       0.36378145      -0.47345329       0.00000000
Ge       5.32093584       8.59203203       1.28590214       0.03030973       0.40748877       0.19387180       0.00000000
Ge       2.77616097       3.89647710       9.70143661       0.06231207      -0.12802414      -0.21905495       0.00000000
Ge       3.29492641       8.20773141       9.63671339      -0.45802784       0.08304391      -0.11745565      -0.00000000
Ge       3.13107907      12.47999214       9.64015636       0.39503183      -0.08403606      -0.01318421       0.00000000
Ge       7.37659570       4.26092844       9.71299013       0.14651824      -0.04179529      -0.25810366       0.00000000
Ge       7.04576502       8.09336164       9.47543141       0.06653496      -0.11454715      -0.16350628      -0.00000000
Ge       7.26223099      12.30380337       9.56052549      -0.44157268       0.32538343       0.69542116       0.00000000
Ge      11.28806473       4.03519071       9.56416304      -0.05855473      -0.03707622       0.20016218       0.00000000
Ge       9.24956960       8.82836021       1.55636949      -0.38528288       0.16377356      -0.63754323       0.00000000
Se      11.16920300       0.15276144       6.78747327      -0.28726618       0.02600746       0.94231415      -0.00000000
Se       2.72878295       4.18637853       7.15179454       0.23819050       0.44199787      -0.01796097      -0.00000000
Se       3.10072083       8.53871812       7.01549188       0.01286822       0.12668798       0.19741025      -0.00000000
Se       7.25750345       0.25597237       7.12799441      -0.29433327       0.24054562      -0.62860530      -0.00000000
Se       6.83280771       4.21542734       7.14868149      -0.01084925      -0.18574161       0.05553935      -0.00000000
Se       6.98422339       8.36255405       6.92618680      -0.04518240       0.37537160       0.26000088      -0.00000000
Se      11.44218010       4.55084858       7.09743004      -0.03858802      -0.40734073      -0.09814186      -0.00000000
Se       8.98105778       0.34405845       3.90886385      -0.20238192      -0.17514178       0.25405554      -0.00000000
Se       0.68361028       0.21065068       3.86918899      -0.21276432      -0.15266234      -0.06010873      -0.00000000
Se       0.61971586       4.23342592       3.89859209       0.35331037       0.41070227      -0.43261281      -0.00000000
Se       0.79922682       8.58578403       4.00836190      -0.48991820      -0.38006048       0.03251990      -0.00000000
Se       4.97269822      -0.10287653       3.82909383      -0.58660131       1.48436985       0.17958872      -0.00000000
Se       4.87265216       4.35969695       4.04013158      -0.07740748       0.17469825       0.06424360      -0.00000000
Se       4.89155206       8.66669898       3.80368985      -0.72895855      -0.44586825       0.21445200      -0.00000000
Se       2.71583838       0.01934230       7.11067782       0.28306787       0.26894955      -0.01246400      -0.00000000
Se      11.05215657       8.42474580       6.95268223      -0.00147058      -0.00184677       0.82424710      -0.00000000
Se      11.01548760      10.72300674       1.69107229       0.27948285      -0.28112841      -0.01656850      -0.00000000
Se       2.70133475       2.26879578       1.67528027       0.54439609      -0.01464679      -0.30095794      -0.00000000
Se      11.01546759       2.32729016       1.55892856       0.08718442       0.11210633       0.04893567      -0.00000000
Se       8.99631888       4.57055834       4.01633624       0.43136264      -0.82439786       0.06860806      -0.00000000
Se       0.65686764       2.14308945       9.51219465       0.06519051      -0.05250568       0.03921837      -0.00000000
Se       1.09900273       6.62281896       9.29963349      -0.39412462       0.49759318       1.26530002      -0.00000000
Se       0.77634195      10.58642951       9.46961650      -0.44630407      -0.15379854      -0.20739830      -0.00000000
Se       4.70767658       2.09860930       9.66683558       0.01631645       0.13067554      -0.61834722      -0.00000000
Se       4.94406085       6.30190298       9.47887823       0.17367449      -0.06324629       0.07612414      -0.00000000
Se       5.14329220      10.71261424       9.45850536      -0.26367908       0.06326457      -0.54195561      -0.00000000
Se       9.25863433       2.41692162       9.26124480       0.07402492       0.08598224       0.03051977      -0.00000000
Se       9.02290910       6.31442504       9.54480622      -0.09689749       0.09491615      -0.26862413      -0.00000000
Se       8.96771638      10.48046162       9.52187996       0.70975268      -0.30254479      -0.02958344      -0.00000000
Se       2.68023579       6.45172333       1.52541197       0.28982382       0.08948241       0.44064444      -0.00000000
Se       2.65354118      10.59236116       1.56263791      -0.06077468       0.30167284      -0.18348104      -0.00000000
Se       7.04024281       2.19292336       1.27197519      -0.14154109       0.73549451       0.77803646      -0.00000000
Se       6.87678079       6.55549374       1.48206360      -0.04746246      -0.51672004       0.28801282      -0.00000000
Se       7.10969076      10.49350052       1.68279858       0.16082404      -0.15734957      -0.40445574      -0.00000000
Se      11.16214967       6.31621506       1.38724599       0.07953985      -0.11302639       0.27975014      -0.00000000
Se       9.14691491       8.39025881       3.97481503       0.15227524      -0.17251528       0.45279930      -0.00000000
72
Lattice="12.449095747060184 -7.626396069e-07 -8.180154115e-07 -7.662788499e-07 12.508497010230277 2.1546700729e-06 -9.369603555e-07 2.4562525954e-06 11.077142623234671" Properties=species:S:1:pos:R:3:forces:R:3:magmoms:R:1 energy=-300.70455882 stress="-0.0016428319548725749 -0.000484076892604224 0.0009366558471254409 -0.000484076892604224 -0.002535085849631192 0.0004782934540745984 0.0009366558471254409 0.0004782934540745984 -0.010424983583682563" dipole="_JSON [[0.0, 0.0, 0.0]]" magmom=0.0018779 free_energy=-300.70455882 pbc="T T T"
Ge       0.96953449       0.32152655       1.36829321       0.32480561      -0.07674686      -0.08361919       0.00000000
Ge       3.10561496      10.63558873       3.93535048       0.06954295       0.29222582       0.15208478       0.00000000
Ge       7.18250533       2.47564218       3.89894696      -0.31472653       0.32470126       0.51010616       0.00000000
Ge       7.11479529       6.62997369       3.98512070       0.36572703      -0.29032309       0.10501581      -0.00000000
Ge       7.02364313      10.78125601       4.14471849      -0.02966403       0.41338820      -0.20266487       0.00000000
Ge      11.40513932       2.12054419       4.11884709       0.02940236       0.58966107      -0.13389628       0.00000000
Ge      11.41232000       6.80802468       3.90856407      -0.83385879      -0.75803816       0.21391176      -0.00000000
Ge      11.11743938      10.78748842       4.10350218       0.06350951       0.22279810       0.00915413       0.00000000
Ge       0.85521039       1.91408013       6.93282583       0.11400477      -0.04393880       0.17819832       0.00000000
Ge       0.90366947       6.31466357       6.94686451       0.24352223      -0.39007401       0.40441089      -0.00000000
Ge       1.33356560      10.54587646       6.90620230       0.26805849      -0.02898213      -0.45434587       0.00000000
Ge       5.27169183       1.95909453       6.90608673      -0.11855328       0.37804523      -0.19437203       0.00000000