72
Lattice="12.463280873491426 -7.635085969e-07 -8.189474995e-07 -7.645960192e-07 12.481027007238376 2.1499381859e-06 -9.332883261e-07 2.446626327e-06 11.033730333897292" Properties=species:S:1:pos:R:3:forces:R:3:magmoms:R:1 energy=-299.87488626 stress="0.0029925027351890817 -3.955511469662809e-05 0.00030743453849304853 -3.955511469662809e-05 -0.0002798897725620838 -0.0015281570884347784 0.00030743453849304853 -0.0015281570884347784 -0.009416618507681572" dipole="_JSON [[0.0, 0.0, 0.0]]" magmom=0.0019184 free_energy=-299.87488626 pbc="T T T"
Ge       1.14700962       0.14921521       1.23767982       0.12488814       0.37906139       0.62756908       0.00000000
Ge       3.25943951      10.51609616       3.98864303      -0.18447570       0.26773875       0.30345215       0.00000000
Ge       7.03959845       2.58131538       4.00346481      -0.20241565       0.18417784       0.39081481      -0.00000000
Ge       7.52881827       6.43204762       3.96255853      -0.60579556      -0.04942715      -0.50820299      -0.00000000
Ge       7.36783165      10.80597265       4.11021774      -0.83661518       0.09934236      -0.49460688       0.00000000
Ge      11.36007947       2.11875415       4.00679456       0.43845638       0.33188560      -0.17841054       0.00000000
Ge      11.24714639       6.74431450       4.15343774       0.28060789       0.36953607      -0.29076541       0.00000000
Ge      11.19164803      10.88637003       3.92601607       0.01795486       0.03441091       0.19641288       0.00000000
Ge       0.83110630       1.66027154       6.95613693       0.02564697       0.60298367      -0.23328441      -0.00000000
Ge       0.61059949       6.04215153       6.93257309       0.43531773       0.16291930      -0.16033609       0.00000000
Ge       0.73674765      10.34413376       7.06235159       0.13233781      -0.23674914      -0.00715317       0.00000000
Ge       4.74156952       2.24246823       6.87716660       0.14506758       0.02453000       0.17394450      -0.00000000
Ge       4.72406767       6.39325481       6.93034409       0.04814926      -0.20872424       0.28901422      -0.00000000
Ge       5.32183706      10.38898106       6.96002483      -0.46487283      -0.15279694      -0.08887736       0.00000000
Ge       8.99713147       1.97942857       6.99986799      -0.01583722      -0.06874159      -0.37845755       0.00000000
Ge       9.11460423       6.00630363       6.98009563       0.24832820      -0.00645855       0.52953461       0.00000000
Ge       2.62563322       6.92609544       4.01795650       0.49047899      -0.49646589       0.85235559      -0.00000000
Ge       2.83242159       2.61315996       4.00535920       0.48709020       0.04279987       0.40680229      -0.00000000
Ge       9.25305714      10.14554007       6.95484216       0.12357075      -0.22893839      -0.66761972       0.00000000
Ge      11.13764276       7.99595916       9.79411702       0.14144457      -0.35016407      -0.41113968       0.00000000
Ge      11.25805761      12.25435224       9.64056703      -0.41960817       0.24215151      -0.05007835       0.00000000
Ge       0.68685833       4.92649354       1.37408654       1.40449874      -0.92206873      -0.05670492       0.00000000
Ge       1.05309483       8.68461947       1.19799789      -0.11357169      -0.12512968       0.67721023       0.00000000
Ge       4.95825982       0.27923484       1.45074206       0.08392956       0.63376535       0.27732947      -0.00000000
Ge       5.12651519       4.50117503       1.54702439      -0.00082608       0.09347850       0.18076448      -0.00000000
Ge       9.15519818       0.42787368       1.35211857      -0.01540984       0.03899635       0.11845742       0.00000000
Ge       9.60988958       4.37958873       1.51592840      -0.41926770       0.13694809      -0.56497507       0.00000000
Ge       5.18787665       8.69616245       1.56390836       0.24708313      -0.38982354       0.04524899      -0.00000000
Ge       2.91347610       4.05754417       9.70391217      -0.12787575       0.23275062      -0.27922856      -0.00000000
Ge       3.10762085       8.37737573       9.24023800      -0.05232750       0.06633701       0.24093869       0.00000000
Ge       2.86728530      12.32228120       9.52412721       0.52899074       0.07023975      -0.30197497       0.00000000
Ge       7.09546841       4.01559322       9.45443407       0.22285457      -0.10051377       0.28113769      -0.00000000
Ge       7.25059216       8.22812496       9.57336314      -0.20116939      -0.40735852      -0.29029959       0.00000000
Ge       7.02680756      12.40366401       9.23431360       0.10317166       0.06213647       0.10457345       0.00000000
Ge      11.49337020       4.09286701       9.60842507      -0.26640258       0.03142615      -0.22169357       0.00000000
Ge       9.08339117       8.91004429       1.36697279       0.31647689       0.20139733      -0.08577239       0.00000000
Se      11.13678743       0.17707719       7.11962118       0.21973559      -0.33947628      -0.23235827      -0.00000000
Se       2.85726667       4.51374009       7.10643091       0.05689826      -0.14611345       0.19080244      -0.00000000
Se       3.06876261       8.69824750       6.74697863      -0.39939648      -0.15925099       0.55602365      -0.00000000
Se       6.75370301       0.23863050       6.71418773       0.62006701       0.25824185       0.63580783      -0.00000000
Se       7.12849725       4.41238744       6.98883205      -0.12417476      -0.14273103      -0.13773351      -0.00000000
Se       7.07115603       8.48337852       6.95714152       0.53713209      -0.05234094       0.45906685      -0.00000000
Se      11.22571294       4.31263265       7.04777580      -0.37302285      -0.33680217       0.07467544      -0.00000000
Se       8.99713153       0.20710489       3.91905033       0.51009528       0.36115598      -0.01977807      -0.00000000
Se       0.61657017       0.15430194       3.83396819       0.28705832       0.09097197      -0.12574822      -0.00000000
Se       0.88533022       4.22932610       3.87440035      -0.61186241       0.14475278      -0.06645755      -0.00000000
Se       0.71242632       8.60569004       4.03048774      -0.55397754       0.24083819      -0.66058831      -0.00000000
Se       4.93781124       0.02525728       3.98108741       0.41000425      -0.25723632      -0.37412201      -0.00000000
Se       4.92079652       4.48723281       4.08815954       0.00373193      -0.49550888      -0.41658907      -0.00000000
Se       4.85728377       8.48539208       4.10465456       0.28631061       0.10123376      -0.62029942      -0.00000000
Se       3.07263578       0.27438205       6.93044624      -0.65225511      -0.41346326       0.63378281      -0.00000000
Se      11.43636805       8.44142995       7.18854218      -0.70511378       0.33920552       0.14766127      -0.00000000
Se      11.13340371      10.77394370       1.45192013      -0.37229995      -0.47407929      -0.22933116      -0.00000000
Se       2.99763334       2.14842151       1.57616400      -0.19112682      -0.47740830      -0.48901589      -0.00000000
Se      11.10628285       2.21851104       1.45880820       0.08963756      -0.02703933       0.25738298      -0.00000000
Se       9.11678024       4.35547226       3.95826523       0.01965945      -0.08500336       0.28212726      -0.00000000
Se       0.87237034       2.30843443       9.46075278       0.28682940      -0.37179561       0.01532817      -0.00000000
Se       0.76382576       6.29778036       9.45462994      -0.14588513       0.35643883       0.17900567      -0.00000000
Se       0.87281453      10.65717399       9.64300811       0.03622126      -0.26712653      -0.66228042      -0.00000000
Se       4.94904042       2.48981010       9.44962664       0.16453965      -0.56815736      -0.21837847      -0.00000000
Se       4.94334687       6.63010992       9.53323302       0.24329677      -0.16264082      -0.40673468      -0.00000000
Se       5.03567418      10.49071313       9.48702656      -0.25959122       0.31838468       0.00465702      -0.00000000
Se       9.17110888       2.08450294       9.42307724      -0.36705750       0.48621597       0.47337854      -0.00000000
Se       9.19457592       6.18462524       9.65107357      -0.08683956       0.81515967      -0.77124420      -0.00000000
Se       9.02105982      10.57118151       9.34173361       0.20987090       0.26527003       0.62761318      -0.00000000
Se       2.86564221       6.67506976       1.61450862      -0.44758720      -0.24516702      -0.99625339      -0.00000000
Se       2.85170451      10.48249175       1.45109601       0.20885699       0.31775838      -0.13038850      -0.00000000
Se       6.90111458       2.22671440       1.56177161      -0.07532916      -0.00065528      -0.51771368      -0.00000000
Se       6.95780667       6.28862768       1.33216695       0.10457157       0.47460081       0.82301488      -0.00000000
Se       7.12673987      10.63482963       1.40157574      -0.07339096      -0.44065181       0.71626195      -0.00000000
Se      11.36423426       6.50076153       1.52367180      -1.09097527       0.39958409       0.64138144      -0.00000000
Se       9.19650177       8.45306153       3.89669507       0.11549506      -0.07281723      -0.06893594      -0.00000000
