72
Lattice="12.449656498090995 -7.626739589e-07 -8.180522578e-07 -7.667529649e-07 12.51623631531338 2.1560032186e-06 -9.381825696e-07 2.459456644e-06 11.091592156251103" Properties=species:S:1:pos:R:3:forces:R:3:magmoms:R:1 energy=-300.53259465 stress="-6.590121128298517e-05 0.002150665597828701 -0.001007717875195199 0.002150665597828701 -0.008182730112148194 0.0008481459736452048 -0.001007717875195199 0.0008481459736452048 -0.005764144839030721" dipole="_JSON [[0.0, 0.0, 0.0]]" magmom=0.0016325 free_energy=-300.53259465 pbc="T T T"
Ge       0.97009683       0.34673579       1.36337374      -0.20194234      -0.49982543      -0.07710892       0.00000000
Ge       3.01735911      10.53854075       4.10699751       0.21565961       0.37778533      -0.40792310       0.00000000
Ge       6.90949151       2.64231707       3.97623809      -0.02279702       0.09832360       1.03767401       0.00000000
Ge       7.19290531       6.45555055       4.10389542       0.28506145      -0.05848734       0.05909351       0.00000000
Ge       7.29332184      10.77033529       4.06710326      -0.80934220      -0.03979407       0.27779700       0.00000000
Ge      11.51181608       2.43877507       4.19514504      -0.65748028      -0.30244797       0.01897090       0.00000000
Ge      10.98240238       6.82206257       4.14197563       0.42846857      -0.16495419      -0.28403627       0.00000000
Ge      10.99457263      10.97724007       4.24598232       0.39273837      -0.07360167      -0.44266866       0.00000000
Ge       0.90864743       1.79027366       7.07560199      -0.68542878       0.46784107      -0.05325348       0.00000000
Ge       1.12241277       5.97341341       6.74050065      -1.02323749       0.66731161       0.19798555       0.00000000
Ge       1.12099140      10.42988886       6.84867947      -0.22864629       0.27280951       0.52597770       0.00000000
Ge       5.57282921       2.24349773       7.09024240      -0.22617657       0.18117474      -0.35909097      -0.00000000
Ge       5.08750755       6.38989868       6.91127060       0.35170456      -0.43765923       0.21624299       0.00000000
Ge       5.03197399      10.35149267       6.80716262       0.28727866       0.05754718       0.70360145       0.00000000
Ge       9.44228148       2.03196962       7.03374741      -0.07243601       0.31549389      -0.40639923       0.00000000
Ge       9.57424620       6.29975673       6.90801783       0.09050767      -0.23056355      -0.19750870       0.00000000
Ge       2.54096588       6.84171831       4.33287782       0.18263279       0.35750443      -0.89203459       0.00000000
Ge       2.96719083       2.49356643       3.97873240       0.39881608      -0.61755199       0.08578587      -0.00000000
Ge       9.14811914      10.17711274       6.78740201       0.34689164      -0.02340789       0.32608534       0.00000000
Ge      11.58523774       8.36938821       9.78302639       0.22911533       0.10795344      -0.61183951       0.00000000
Ge      11.18459970      12.18466866       9.88424378       0.30491800       0.10105680      -0.21041134       0.00000000
Ge       0.71007521       4.41394927       1.44120461       0.18541571       0.37614668       0.14995174       0.00000000
Ge       0.81162234       8.85247776       1.37564008      -0.39599328      -0.25686587      -0.56648585       0.00000000
Ge       4.99377640       0.35399858       1.51993312       0.27980113      -0.48347848       0.18755328      -0.00000000
Ge       4.62917723       4.87611955       1.13349065       0.50565222      -0.36583380       0.13716663       0.00000000
Ge       9.16970564       0.53261998       1.54013587      -0.42840167      -0.10231582      -0.61599252       0.00000000
Ge       9.22805272       4.36947690       1.42406320       0.37492888      -0.02907459       0.74829327       0.00000000
Ge       4.95427154       8.45338104       1.47779660       0.41946711       0.16967120       0.15092417       0.00000000
Ge       3.04605809       4.10820304       9.37383592      -0.24144893       0.02794010       0.47352034       0.00000000
Ge       2.82840290       8.37055087       9.46107449       0.14902093      -0.27134021       0.44187503       0.00000000
Ge       3.14498989      12.71652227       9.47508960       0.21163856      -0.34272524       0.38422232      -0.00000000
Ge       7.27754613       4.27956234       9.69398581       0.11994904       0.19381357      -0.39495593       0.00000000
Ge       7.20355942       8.00766309       9.71461701      -0.71118796       0.70463611      -0.28211167       0.00000000
Ge       7.31374465      12.43180100       9.61979002      -0.52796294       0.11989442       0.20711584      -0.00000000
Ge      11.31580656       4.08105226       9.72462903       0.29460690      -0.16756592      -0.26680228       0.00000000
Ge       9.07872329       8.90313667       1.08376578       0.12362205      -0.13853721       0.02292736       0.00000000
Se      11.24124365       0.24590795       7.28962164       0.16187986      -0.34284873       0.11576601      -0.00000000
Se       3.11079752       4.59757983       6.86402673       0.46661489      -0.98364357       0.09263481      -0.00000000
Se       2.96771794       8.60751947       6.96635355       0.18718545       0.09683826      -0.14938778      -0.00000000
Se       7.39447730       0.42846993       7.14657972      -0.26954537      -0.21767117      -0.06956196      -0.00000000
Se       7.05311264       4.45133045       7.11805499      -0.37444486      -0.10364765       0.18927981      -0.00000000
Se       7.08281881       8.68409132       7.08425775      -0.32620014      -0.36539957       0.31516904      -0.00000000
Se      11.46785499       4.41080528       7.17109765      -0.34130490       0.25835296      -0.05002062      -0.00000000
Se       9.04567707       0.07541742       3.97545394      -0.04236680       0.48011102       0.24567646      -0.00000000
Se       0.40123762       0.27679381       3.88666910       0.54446124      -0.37833020       0.28950053      -0.00000000
Se       0.94113480       4.05427352       3.99477487       0.12642772       0.78771098      -0.40341215      -0.00000000
Se       0.67822888       8.63748022       3.81160188      -0.24581687      -0.74002706       0.82373261      -0.00000000
Se       4.88988668      -0.09860232       4.04556413       0.36391853      -0.10946867      -0.22237548      -0.00000000
Se       4.86592251       4.19858134       3.65384729      -0.18348439       0.40639991       0.12193554      -0.00000000
Se       4.70683370       8.53705652       4.00922314      -0.23350069      -0.23277896      -0.12414778      -0.00000000
Se       2.68332025       0.05869218       7.02000580       0.49738387      -0.24146783      -0.29931438      -0.00000000
Se      11.10519578       8.40321368       7.05634471      -0.08939793       0.43231929       0.45621693      -0.00000000
Se      11.15963271      10.44063207       1.55771470      -0.46321151       0.38049702       0.24182239      -0.00000000
Se       2.96710814       1.89248094       1.42248421      -0.22661261       0.81513792       0.39669431      -0.00000000
Se      11.05527901       2.26204762       1.62327225      -0.24290731       0.47694384       0.02576740      -0.00000000
Se       9.00475260       4.39654130       4.08790549      -0.56615081       0.02087394      -0.80468475      -0.00000000
Se       0.84726579       2.31332771       9.59364077       0.12275826       0.22974454      -0.17425325      -0.00000000
Se       0.90570054       6.54826578       9.28811396       0.26284133       0.14691492       0.14690919      -0.00000000
Se       0.88619965      10.57553357       9.59827820      -0.62948233      -0.25036439      -0.61325078      -0.00000000
Se       4.84079544       2.28507159       9.57459356       0.34362595      -0.03674073      -0.33565743      -0.00000000
Se       4.91062076       6.52097091       9.46093490       0.15060921       0.17172864      -0.02788066      -0.00000000
Se       5.03644159      10.87983628       9.42239271       0.15760279      -0.04315492      -0.47384507      -0.00000000
Se       9.19374753       2.51293796       9.50284652       0.15037820      -0.12033641       0.40264162      -0.00000000
Se       9.05730566       6.46001520       9.38322749       0.45015166      -0.72289353       0.32800431      -0.00000000
Se       9.11983172      10.67941074       9.39348809       0.21283947      -0.52409366      -0.20445879      -0.00000000
Se       2.68344049       6.40686033       1.51242595      -0.34478573       0.05314284       0.60747370      -0.00000000
Se       2.57746679      10.60436368       1.52508315       0.51288870       0.39941162       0.32900957      -0.00000000
Se       6.89452794       2.14477698       1.63570222       0.54854079      -0.17833848      -0.98468906      -0.00000000
Se       6.78814096       6.41236957       1.61200099      -0.36421712       0.08217645      -0.39068701      -0.00000000
Se       7.02166411      10.36251116       1.61229683      -0.20291370       0.18391699      -0.40660211      -0.00000000
Se      11.19154379       6.09517481       1.62499627      -0.03976037       0.25718212       0.03061230      -0.00000000
Se       9.03796104       8.35394973       3.62908087      -0.01941797      -0.07907096       0.29124128      -0.00000000
