72
Lattice="12.453581489544115 -7.629144064e-07 -8.183101644e-07 -7.654375265e-07 12.4947635095653 2.1523043879e-06 -9.35173896e-07 2.4515693706e-06 11.056022340490774" Properties=species:S:1:pos:R:3:forces:R:3:magmoms:R:1 energy=-300.71591589 stress="0.0034960633348919733 0.0007985505052252976 0.0009548370573751916 0.0007985505052252976 -0.0001803186654014119 -0.0005905500228355349 0.0009548370573751916 -0.0005905500228355349 -0.012482506660229504" dipole="_JSON [[0.0, 0.0, 0.0]]" magmom=0.0018239 free_energy=-300.71591589 pbc="T T T"
Ge       0.96285778       0.35938242       1.22780890       0.20135326      -0.09257598       0.40988082      -0.00000000
Ge       3.18431050      10.75160702       4.03241771       0.12822602       0.10561316      -0.07015600       0.00000000
Ge       7.19558711       2.81613433       3.95188687      -0.14400883      -0.23556908       0.07080599       0.00000000
Ge       7.40993682       6.57064944       3.80223225       0.05645264       0.36021966       0.69576774       0.00000000
Ge       7.30938212      10.84082474       3.99256340       0.03000184       0.05462511       0.22222721      -0.00000000
Ge      11.59064719       2.34061695       4.15116610      -0.62591523      -0.16604500       0.11597134       0.00000000
Ge      11.76567194       6.75123515       4.01170460      -1.01610499      -0.26544458       0.31964919       0.00000000
Ge      11.06942738      11.19166701       4.14704951       0.12208096      -0.01888501      -0.21736500      -0.00000000
Ge       0.76756216       1.79011464       7.01080364      -0.15558300       0.02524709       0.13763928       0.00000000
Ge       0.78576532       6.13623279       7.01039257       0.25819660      -0.11058346      -0.38830027       0.00000000
Ge       0.89408699      10.27318164       6.85896806       0.17349624       0.20303419       0.64410217      -0.00000000
Ge       5.29506137       1.97049523       6.57900800      -0.05702856      -0.01429536       0.15298642       0.00000000
Ge       4.76251130       5.85784924       6.94574134      -0.21018769       0.01968562      -0.60034174       0.00000000
Ge       5.02062287      10.19813441       7.28413302      -0.21527616       0.16598715      -0.55337677       0.00000000
Ge       9.11749777       1.95900278       7.11905705       0.15439970      -0.34694269      -0.70477466       0.00000000
Ge       9.25237477       6.22719997       7.08622033      -0.01811437      -0.06708034       0.02214387       0.00000000
Ge       2.97629630       6.69781642       4.21538515       0.21700553       0.69531112      -0.59086697       0.00000000
Ge       3.11758901       2.53661553       3.98269683      -0.11845605       0.10277010       0.05039283       0.00000000
Ge       9.03642149      10.29482201       7.02141000       0.06028381      -0.25919571       0.17141933      -0.00000000
Ge      11.10805114       8.35591197       9.44079002       0.41665642      -0.14644498       0.07684508      -0.00000000
Ge      11.17347157      12.19599919       9.65196423      -0.45302244       0.19256175      -0.41201158      -0.00000000
Ge       1.01246110       4.71216391       1.44790680      -0.09441542      -0.17165779      -0.23408667       0.00000000
Ge       0.79046211       8.98288604       1.44886853       0.19287131       0.17843130      -0.57339639      -0.00000000
Ge       5.15600304       0.52126557       1.32032582       0.22615935      -0.20597753       0.02164321       0.00000000
Ge       4.98650725       4.79372005       1.38251003       0.13042865       0.06197327      -0.07696680       0.00000000
Ge       9.26106780       0.63437248       1.41098261      -0.50155493      -0.05107080       0.10679672      -0.00000000
Ge       9.43641210       4.73985905       1.52590449       0.29365027      -0.19528468       0.02654745       0.00000000
Ge       5.18143001       8.80313269       1.60085054       0.28446300      -0.17873914      -1.13231353       0.00000000
Ge       3.05209475       3.78221394       9.67509771      -0.69969389       0.09065964      -0.41486714       0.00000000
Ge       3.11799169       7.90833601       9.77038272      -0.93081708       0.61285427      -0.33046821       0.00000000
Ge       3.02655201      12.56629533       9.46008578       0.02448001      -0.15770397       0.02648870       0.00000000
Ge       7.07846033       3.99278277       9.59807226       0.52224734      -0.08697996      -0.01326769       0.00000000
Ge       6.82945865       8.06365320       9.42072879       0.59965491       0.11433913       0.07302290       0.00000000
Ge       7.03508149      12.22653660       9.67092309       0.04903690      -0.10236772      -0.29057326       0.00000000
Ge      11.33201317       4.23524699       9.45843486       0.08200538      -0.36050841       0.54829219       0.00000000
Ge       9.39681551       8.63637252       1.37584864      -0.12319622       0.55412633      -0.23111535      -0.00000000
Se      11.07423890       0.05699239       6.91405727      -0.09766694       0.38733920       0.81142782      -0.00000000
Se       2.66972807       4.21897801       7.04649502       0.23677680       0.20021457       0.41773454      -0.00000000
Se       2.80152128       8.54070905       7.07333860       0.27847500      -0.07178877       0.39565391      -0.00000000
Se       7.07420147       0.09291142       6.96785549      -0.03147145       0.14700055       0.62896665      -0.00000000
Se       6.74666489       4.22410172       7.05562526       0.29892335      -0.19598605      -0.13870765      -0.00000000
Se       7.00068605       8.51737669       6.91131918      -0.15957891      -0.15644223       0.28240437      -0.00000000
Se      11.20872555       4.39568162       7.01659502      -0.17170608       0.07873418      -0.31435400      -0.00000000
Se       9.00822649       0.40486558       3.97499837       0.12942205      -0.39558354      -0.28740826      -0.00000000
Se       0.68183326       0.32562727       3.83257984       0.01512514      -0.14653729      -0.05918576      -0.00000000
Se       0.84324444       4.17371746       3.96460967       0.92927419       0.47730256      -0.16282309      -0.00000000
Se       0.80705967       8.66753879       3.89332781       0.79286671       0.11156757       0.73887747      -0.00000000
Se       5.19395414      -0.06608427       3.80172585      -0.27297191       0.34846228       0.13781441      -0.00000000
Se       4.93485512       4.46527908       3.91562404      -0.03562894      -0.01565113      -0.07976778      -0.00000000
Se       4.88378647       8.71967956       3.96894067      -0.41961063      -0.54293786       1.06328290      -0.00000000
Se       2.68411873       0.08311873       6.97025388       0.02007528      -0.38755367      -0.04707425      -0.00000000
Se      10.93278896       8.30659840       6.92147220       0.05331582       0.37015225       0.15603065      -0.00000000
Se      11.26107392      10.67112848       1.53616895      -0.50553715      -0.04142353       0.14127235      -0.00000000
Se       3.06452362       2.04261518       1.46298424      -0.18872382       0.46373344      -0.00377198      -0.00000000
Se      10.97180256       2.42280485       1.66391174       0.41633952       0.40791589      -0.28064903      -0.00000000
Se       9.09044671       4.54819233       4.05792350      -0.07657886       0.08212871      -0.31663915      -0.00000000
Se       0.81299406       2.21532838       9.56283993      -0.18296318       0.20060516      -0.20187662      -0.00000000
Se       0.70619631       6.46138614       9.45641744       0.10618388       0.16674021       0.38059213      -0.00000000
Se       0.51938812      10.51753568       9.54398653       0.39506856      -0.57647447      -0.72287548      -0.00000000
Se       4.82974389       2.07956358       9.15163809       0.23404542      -0.30436313       0.13405633      -0.00000000
Se       4.89817480       6.23714589       9.40384803       0.22461334      -0.23365595       0.33983976      -0.00000000
Se       4.91612099      10.55281054       9.77189594       0.07593200       0.15704743      -0.29149642      -0.00000000
Se       9.19014096       2.31179693       9.52464190      -0.36382560       0.22224944       0.44020075      -0.00000000
Se       8.89134331       6.30521174       9.62023435      -0.08001182       0.00719008      -0.37367858      -0.00000000
Se       9.01776255      10.42518284       9.61989008      -0.08475326       0.32221140      -0.50948335      -0.00000000
Se       2.90805193       6.45198710       1.48300552       0.03147464       0.06223790       0.62217118      -0.00000000
Se       2.65504414      10.80944762       1.52238683       0.21479982      -0.14385944      -0.04417354      -0.00000000
Se       7.03458358       2.34652151       1.44244414       0.10337891       0.06353044       0.08025804      -0.00000000
Se       7.02076660       6.62943887       1.34984096      -0.49716606      -0.27302772      -0.11662415      -0.00000000
Se       7.20283676      10.42729151       1.52412632       0.15077544       0.00894457      -0.18738551      -0.00000000
Se      11.51605836       6.54667573       1.51437822      -0.40315546      -0.69520906      -0.22330573      -0.00000000
Se       9.32027334       8.44506775       3.81459257       0.00470890      -0.40890068       0.53232268      -0.00000000
