 running  128 mpi-ranks, with    1 threads/rank, on    2 nodes
 distrk:  each k-point on   64 cores,    2 groups
 distr:  one band on    4 cores,   16 groups
 vasp.6.4.2 20Jul23 (build Oct 12 2023 10:31:02) complex                         
 POSCAR found type information on POSCAR GeSe
 POSCAR found :  2 types and       8 ions
 Reading from existing POTCAR
 scaLAPACK will be used
 Reading from existing POTCAR
 LDA part: xc-table for Pade appr. of Perdew
 POSCAR, INCAR and KPOINTS ok, starting setup
 FFT: planning ... GRIDC
 FFT: planning ... GRID_SOFT
 FFT: planning ... GRID
 WAVECAR not read
 entering main loop
       N       E                     dE             d eps       ncg     rms          rms(c)
DAV:   1     0.133205758679E+03    0.13321E+03   -0.12579E+04  2560   0.760E+02
DAV:   2    -0.243434655765E+02   -0.15755E+03   -0.15278E+03  3776   0.137E+02
DAV:   3    -0.338639246138E+02   -0.95205E+01   -0.94993E+01  3200   0.391E+01
DAV:   4    -0.339352279896E+02   -0.71303E-01   -0.71297E-01  3152   0.390E+00
DAV:   5    -0.339357006372E+02   -0.47265E-03   -0.47265E-03  3200   0.311E-01    0.606E+00
DAV:   6    -0.333561502907E+02    0.57955E+00   -0.13078E+00  2896   0.369E+00    0.373E+00
DAV:   7    -0.333477836586E+02    0.83666E-02   -0.27513E-01  2960   0.184E+00    0.161E+00
DAV:   8    -0.333476263455E+02    0.15731E-03   -0.28037E-02  2896   0.655E-01    0.181E-01
DAV:   9    -0.333475205590E+02    0.10579E-03   -0.52486E-03  3152   0.295E-01    0.752E-02
DAV:  10    -0.333477069372E+02   -0.18638E-03   -0.59094E-04  2816   0.106E-01    0.252E-02
DAV:  11    -0.333477363128E+02   -0.29376E-04   -0.50016E-05  3072   0.319E-02    0.145E-02
DAV:  12    -0.333477368921E+02   -0.57934E-06   -0.12501E-05  3008   0.146E-02    0.350E-03
DAV:  13    -0.333477377221E+02   -0.83001E-06   -0.14562E-06  2000   0.452E-03
   1 F= -.33347738E+02 E0= -.33347738E+02  d E =-.191803E-11
