 vasp.6.4.2 20Jul23 (build Oct 12 2023 10:31:02) complex                         
 executed on              LinuxNV date 2024.11.01  22:40:21
 running  128 mpi-ranks, with    1 threads/rank, on    2 nodes
 distrk:  each k-point on   64 cores,    2 groups
 distr:  one band on NCORE=   8 cores,    8 groups


--------------------------------------------------------------------------------------------------------


 INCAR:
   ENCUT = 520.000000
   SIGMA = 0.050000
   EDIFF = 1.00e-06
   ALGO = N
   GGA = PE
   PREC = Accurate
   SYSTEM = 01_AOPT
   ICHARG = 0
   ISMEAR = 0
   ISPIN = 2
   ISTART = 1
   ISYM = -1
   KPAR = 2
   LORBIT = 11
   NBANDS = 220
   NELM = 100
   NELMIN = 5
   NPAR = 8
   LASPH = .TRUE.
   LCHARG = .FALSE.
   LWAVE = .FALSE.
   LREAL = .FALSE.

 POTCAR:    PAW_PBE Ge 05Jan2001                  
 POTCAR:    PAW_PBE Se 06Sep2000                  
 -----------------------------------------------------------------------------
|                                                                             |
|           W    W    AA    RRRRR   N    N  II  N    N   GGGG   !!!           |
|           W    W   A  A   R    R  NN   N  II  NN   N  G    G  !!!           |
|           W    W  A    A  R    R  N N  N  II  N N  N  G       !!!           |
|           W WW W  AAAAAA  RRRRR   N  N N  II  N  N N  G  GGG   !            |
|           WW  WW  A    A  R   R   N   NN  II  N   NN  G    G                |
|           W    W  A    A  R    R  N    N  II  N    N   GGGG   !!!           |
|                                                                             |
|     You use a magnetic or noncollinear calculation, but did not specify     |
|     the initial magnetic moment with the MAGMOM tag. Note that a            |
|     default of 1 will be used for all atoms. This ferromagnetic setup       |
|     may break the symmetry of the crystal, in particular it may rule        |
|     out finding an antiferromagnetic solution. Thence, we recommend         |
|     setting the initial magnetic moment manually or verifying carefully     |
|     that this magnetic setup is desired.                                    |
|                                                                             |
 -----------------------------------------------------------------------------

 POTCAR:    PAW_PBE Ge 05Jan2001                  
   VRHFIN =Ge: s2p2                                                                                 
   LEXCH  = PE                                                                                      
   EATOM  =   104.9960 eV,    7.7170 Ry                                                             
                                                                                                    
   TITEL  = PAW_PBE Ge 05Jan2001                                                                    
   LULTRA =        F    use ultrasoft PP ?                                                          
   IUNSCR =        1    unscreen: 0-lin 1-nonlin 2-no                                               
   RPACOR =    2.170    partial core radius                                                         
   POMASS =   72.610; ZVAL   =    4.000    mass and valenz                                          
   RCORE  =    2.300    outmost cutoff radius                                                       
   RWIGS  =    2.300; RWIGS  =    1.217    wigner-seitz radius (au A)                               
   ENMAX  =  173.807; ENMIN  =  130.355 eV                                                          
   ICORE  =        3    local potential                                                             
   LCOR   =        T    correct aug charges                                                         
   LPAW   =        T    paw PP                                                                      
   EAUG   =  385.843                                                                                
   DEXC   =    0.000                                                                                
   RMAX   =    2.342    core radius for proj-oper                                                   
   RAUG   =    1.300    factor for augmentation sphere                                              
   RDEP   =    2.318    radius for radial grids                                                     
   RDEPT  =    2.103    core radius for aug-charge                                                  
                                                                                                    
   Atomic configuration                                                                             
   10 entries                                                                                       
     n  l   j            E        occ.                                                              
     1  0  0.50    -10959.8463   2.0000                                                             
     2  0  0.50     -1371.6056   2.0000                                                             
     2  1  1.50     -1198.4791   6.0000                                                             
     3  0  0.50      -168.4733   2.0000                                                             
     3  1  1.50      -115.6019   6.0000                                                             
     3  2  2.50       -29.3106  10.0000                                                             
     4  0  0.50       -11.7309   2.0000                                                             
     4  1  0.50        -3.8952   2.0000                                                             
     4  2  1.50        -4.0817   0.0000                                                             
     4  3  2.50        -4.0817   0.0000                                                             
   Description                                                                                      
     l       E           TYP  RCUT    TYP  RCUT                                                     
     0    -11.7309493     23  2.300                                                                 
     0     -7.4578696     23  2.300                                                                 
     1     -3.8952261     23  2.300                                                                 
     1      6.1178114     23  2.300                                                                 
     2     -4.0817478     23  2.300                                                                 
     3     -1.3605826      7  2.300                                                                 
  local pseudopotential read in
  partial core-charges read in
  partial kinetic energy density read in
  atomic valenz-charges read in
  non local Contribution for L=            0  read in
    real space projection operators read in
  non local Contribution for L=            0  read in
    real space projection operators read in
  non local Contribution for L=            1  read in
    real space projection operators read in
  non local Contribution for L=            1  read in
    real space projection operators read in
  non local Contribution for L=            2  read in
    real space projection operators read in
    PAW grid and wavefunctions read in
 
   number of l-projection  operators is LMAX  =            5
   number of lm-projection operators is LMMAX =           13
 
 POTCAR:    PAW_PBE Se 06Sep2000                  
   VRHFIN =Se: s2p4                                                                                 
   LEXCH  = PE                                                                                      
   EATOM  =   257.1286 eV,   18.8984 Ry                                                             
                                                                                                    
   TITEL  = PAW_PBE Se 06Sep2000                                                                    
   LULTRA =        F    use ultrasoft PP ?                                                          
   IUNSCR =        1    unscreen: 0-lin 1-nonlin 2-no                                               
   RPACOR =    1.900    partial core radius                                                         
   POMASS =   78.960; ZVAL   =    6.000    mass and valenz                                          
   RCORE  =    2.100    outmost cutoff radius                                                       
   RWIGS  =    2.200; RWIGS  =    1.164    wigner-seitz radius (au A)                               
   ENMAX  =  211.555; ENMIN  =  158.666 eV                                                          
   ICORE  =        3    local potential                                                             
   LCOR   =        T    correct aug charges                                                         
   LPAW   =        T    paw PP                                                                      
   EAUG   =  446.842                                                                                
   DEXC   =    0.000                                                                                
   RMAX   =    2.147    core radius for proj-oper                                                   
   RAUG   =    1.300    factor for augmentation sphere                                              
   RDEP   =    2.177    radius for radial grids                                                     
   RDEPT  =    1.928    core radius for aug-charge                                                  
                                                                                                    
   Atomic configuration                                                                             
   10 entries                                                                                       
     n  l   j            E        occ.                                                              
     1  0  0.50    -12503.4787   2.0000                                                             
     2  0  0.50     -1606.9547   2.0000                                                             
     2  1  1.50     -1413.3140   6.0000                                                             
     3  0  0.50      -213.4885   2.0000                                                             
     3  1  1.50      -152.9538   6.0000                                                             
     3  2  2.50       -53.1221  10.0000                                                             
     4  0  0.50       -17.2865   2.0000                                                             
     4  1  0.50        -6.5110   4.0000                                                             
     4  2  2.50        -6.8029   0.0000                                                             
     4  3  2.50        -6.8029   0.0000                                                             
   Description                                                                                      
     l       E           TYP  RCUT    TYP  RCUT                                                     
     0    -17.2865377     23  2.100                                                                 
     0    -15.3094411     23  2.100                                                                 
     1     -6.5110275     23  2.100                                                                 
     1     -0.0695192     23  2.100                                                                 
     2     -6.8029130     23  2.100                                                                 
     3     -1.3605826      7  2.100                                                                 
  local pseudopotential read in
  partial core-charges read in
  partial kinetic energy density read in
  atomic valenz-charges read in
  non local Contribution for L=            0  read in
    real space projection operators read in
  non local Contribution for L=            0  read in
    real space projection operators read in
  non local Contribution for L=            1  read in
    real space projection operators read in
  non local Contribution for L=            1  read in
    real space projection operators read in
  non local Contribution for L=            2  read in
    real space projection operators read in
    PAW grid and wavefunctions read in
 
   number of l-projection  operators is LMAX  =            5
   number of lm-projection operators is LMMAX =           13
 
 -----------------------------------------------------------------------------
|                                                                             |
|               ----> ADVICE to this user running VASP <----                  |
|                                                                             |
|     You have a (more or less) 'large supercell' and for larger cells it     |
|     might be more efficient to use real-space projection operators.         |
|     Therefore, try LREAL= Auto in the INCAR file.                           |
|     Mind: For very accurate calculation, you might also keep the            |
|     reciprocal projection scheme (i.e. LREAL=.FALSE.).                      |
|                                                                             |
 -----------------------------------------------------------------------------

  PAW_PBE Ge 05Jan2001                  :
 energy of atom  1       EATOM= -104.9960
 kinetic energy error for atom=    0.0002 (will be added to EATOM!!)
  PAW_PBE Se 06Sep2000                  :
 energy of atom  2       EATOM= -257.1286
 kinetic energy error for atom=    0.0007 (will be added to EATOM!!)
 
 
 POSCAR: Ge Se
  positions in cartesian coordinates
  No initial velocities read in
 exchange correlation table for  LEXCH =        8
   RHO(1)=    0.500       N(1)  =     2000
   RHO(2)=  100.500       N(2)  =     4000
 


--------------------------------------------------------------------------------------------------------


 ion  position               nearest neighbor table
   1  0.068  0.052  0.137-  45 2.54  55 2.55  54 2.67
   2  0.247  0.874  0.362-  48 2.62  67 2.66  45 2.76
   3  0.545  0.205  0.375-  56 2.66  68 2.68  49 2.71
   4  0.586  0.552  0.368-  69 2.48  72 2.50  50 2.71
   5  0.565  0.853  0.373-  70 2.58  50 2.67  48 2.82
   6  0.869  0.193  0.367-  44 2.57  55 2.62  56 2.67
   7  0.908  0.536  0.377-  71 2.51  47 2.61  72 2.85
   8  0.905  0.882  0.368-  45 2.59  53 2.62  44 2.70
   9  0.051  0.173  0.629-  57 2.44  37 2.69  51 2.76
  10  0.065  0.494  0.639-  58 2.39  43 2.80
  11  0.082  0.822  0.623-  59 2.58  39 2.63
  12  0.402  0.151  0.637-  60 2.63  40 2.78  51 2.80
  13  0.397  0.489  0.601-  38 2.50  61 2.75  41 2.83
  14  0.435  0.828  0.635-  42 2.52  62 2.70  39 2.82
  15  0.746  0.161  0.630-  63 2.61  40 2.71  37 2.73
  16  0.736  0.475  0.648-  64 2.49  43 2.57  41 2.70
  17  0.223  0.535  0.355-  66 2.54  47 2.58  46 2.75
  18  0.223  0.215  0.386-  46 2.57  54 2.65  49 2.79
  19  0.742  0.835  0.625-  65 2.52  42 2.59  52 2.82
  20  0.880  0.664  0.880-  52 2.54  64 2.68  65 2.78
  21  0.905  0.987  0.890-  65 2.61  37 2.66  59 2.80
  22  0.055  0.376  0.126-  46 2.56  71 2.60
  23  0.057  0.710  0.100-  53 2.56  47 2.59  67 2.82
  24  0.392  0.045  0.155-  54 2.57  48 2.59  68 2.65
  25  0.418  0.395  0.140-  69 2.48  49 2.58  66 2.58
  26  0.729  0.025  0.131-  44 2.57  68 2.58
  27  0.739  0.359  0.118-  56 2.74  71 2.75  69 2.84
  28  0.406  0.715  0.112-  67 2.66  50 2.75  70 2.77
  29  0.229  0.321  0.885-  57 2.63  38 2.69
  30  0.223  0.643  0.867-  39 2.63  58 2.64  61 2.73
  31  0.219  0.993  0.863-  59 2.51  51 2.67  62 2.72
  32  0.547  0.317  0.854-  60 2.51  41 2.63  63 2.76
  33  0.560  0.651  0.866-  42 2.55  61 2.66  64 2.70
  34  0.567  0.010  0.868-  40 2.54  62 2.67  60 2.86
  35  0.891  0.317  0.863-  63 2.45  43 2.61  57 2.78
  36  0.748  0.708  0.132-  53 2.61  70 2.66  72 2.68
  37  0.907  0.014  0.652-  21 2.66   9 2.69  15 2.73
  38  0.254  0.355  0.647-  13 2.50  29 2.69
  39  0.251  0.697  0.639-  11 2.63  30 2.63  14 2.82
  40  0.582  0.019  0.639-  34 2.54  15 2.71  12 2.78
  41  0.568  0.341  0.619-  32 2.63  16 2.70  13 2.83
  42  0.588  0.697  0.644-  14 2.52  33 2.55  19 2.59
  43  0.896  0.346  0.630-  16 2.57  35 2.61  10 2.80
  44  0.746  0.029  0.362-   6 2.57  26 2.57   8 2.70
  45  0.071  0.007  0.361-   1 2.54   8 2.59   2 2.76
  46  0.084  0.364  0.354-  22 2.56  18 2.57  17 2.75
  47  0.066  0.667  0.329-  17 2.58  23 2.59   7 2.61
  48  0.404  0.012  0.385-  24 2.59   2 2.62   5 2.82
  49  0.393  0.360  0.367-  25 2.58   3 2.71  18 2.79
  50  0.421  0.694  0.358-   5 2.67   4 2.71  28 2.75
  51  0.216  0.025  0.626-  31 2.67   9 2.76  12 2.80
  52  0.904  0.679  0.653-  20 2.54  19 2.82
  53  0.906  0.846  0.134-  23 2.56  36 2.61   8 2.62
  54  0.238  0.183  0.150-  24 2.57  18 2.65   1 2.67
  55  0.913  0.185  0.136-   1 2.55   6 2.62
  56  0.712  0.338  0.362-   3 2.66   6 2.67  27 2.74
  57  0.071  0.185  0.848-   9 2.44  29 2.63  35 2.78
  58  0.064  0.504  0.854-  10 2.39  30 2.64
  59  0.079  0.849  0.854-  31 2.51  11 2.58  21 2.80
  60  0.407  0.174  0.874-  32 2.51  12 2.63  34 2.86
  61  0.398  0.512  0.848-  33 2.66  30 2.73  13 2.75
  62  0.402  0.873  0.871-  34 2.67  14 2.70  31 2.72
  63  0.734  0.199  0.861-  35 2.45  15 2.61  32 2.76
  64  0.727  0.514  0.867-  16 2.49  20 2.68  33 2.70
  65  0.754  0.846  0.853-  19 2.52  21 2.61  20 2.78
  66  0.261  0.529  0.130-  17 2.54  25 2.58
  67  0.237  0.845  0.124-  28 2.66   2 2.66  23 2.82
  68  0.571  0.159  0.141-  26 2.58  24 2.65   3 2.68
  69  0.576  0.516  0.148-   4 2.48  25 2.48  27 2.84
  70  0.584  0.844  0.141-   5 2.58  36 2.66  28 2.77
  71  0.897  0.510  0.154-   7 2.51  22 2.60  27 2.75
  72  0.735  0.685  0.372-   4 2.50  36 2.68   7 2.85
 

IMPORTANT INFORMATION: All symmetrisations will be switched off!
NOSYMM: (Re-)initialisation of all symmetry stuff for point group C_1.


----------------------------------------------------------------------------------------

                                     Primitive cell                                     

  volume of cell :    1722.8785

  direct lattice vectors                    reciprocal lattice vectors
    12.425342040  0.000001240 -0.000001820     0.080480682 -0.000000008  0.000000015
     0.000001249 12.515483610 -0.000000954    -0.000000008  0.079901027  0.000000008
    -0.000002089 -0.000001087 11.078951822     0.000000013  0.000000007  0.090261246

  length of vectors
    12.425342040 12.515483610 11.078951822     0.080480682  0.079901027  0.090261246

  position of ions in fractional coordinates (direct lattice)
     0.068086718  0.052391730  0.137114765
     0.247330282  0.873521995  0.361701675
     0.545068821  0.205138763  0.375134767
     0.585664811  0.551895929  0.367664211
     0.564780156  0.852605883  0.372542099
     0.869466478  0.193207372  0.367181194
     0.907982724  0.536271573  0.377424137
     0.905070934  0.882031029  0.367628880
     0.050753923  0.173185765  0.628716529
     0.065300949  0.493591196  0.638869618
     0.081833156  0.821552769  0.623380302
     0.401915169  0.151005792  0.637250480
     0.397316435  0.489400056  0.601286416
     0.434683003  0.828440032  0.635056642
     0.746191136  0.161339180  0.630340267
     0.736126125  0.475307430  0.647523335
     0.223203370  0.534634493  0.355114920
     0.223104484  0.214838449  0.385720616
     0.742467285  0.835180714  0.625444815
     0.880279210  0.664355729  0.880258780
     0.904869116  0.986759224  0.889882800
     0.054812594  0.375914382  0.125831344
     0.056926785  0.710024200  0.100014708
     0.391507558  0.045203497  0.155081765
     0.418131012  0.394993888  0.139618538
     0.728648239  0.025427226  0.130887033
     0.739189917  0.359395877  0.117563612
     0.406017308  0.714796194  0.111931560
     0.228899785  0.320932125  0.884695463
     0.222896612  0.642738057  0.866593195
     0.219017011  0.993080444  0.863491041
     0.546580656  0.317499768  0.854163518
     0.559714364  0.651248004  0.865798492
     0.566522879  0.009524674  0.867906753
     0.891441230  0.317020762  0.863140510
     0.748361494  0.708209641  0.131953623
     0.906906049  0.014280785  0.652263179
     0.254479995  0.354521896  0.646877864
     0.250979184  0.696513555  0.639400142
     0.581862379  0.019439539  0.639258300
     0.568184288  0.340984421  0.619497118
     0.587923105  0.697243544  0.644263954
     0.896462978  0.345994768  0.629542259
     0.745863342  0.028758580  0.361947679
     0.070907704  0.007108785  0.360530566
     0.083633114  0.364396787  0.354457112
     0.065953111  0.667120783  0.328655883
     0.404235866  0.011622808  0.384953193
     0.392646585  0.360378411  0.367090158
     0.421057753  0.694030494  0.358190381
     0.215876551  0.025142168  0.625613869
     0.903608423  0.678951136  0.652988982
     0.906119252  0.846399201  0.134400098
     0.237609398  0.182823955  0.150029980
     0.912609887  0.185310339  0.136092819
     0.712133675  0.338062480  0.361648131
     0.071091171  0.185292812  0.847653364
     0.063577172  0.504123475  0.854176925
     0.079465961  0.848736312  0.854453955
     0.406766235  0.173557415  0.873602829
     0.398369087  0.512411147  0.848214819
     0.401568173  0.872938477  0.870695125
     0.733657299  0.199442884  0.861487391
     0.727349870  0.513763607  0.867408541
     0.753641083  0.845616460  0.852523245
     0.260856070  0.528988654  0.130061399
     0.237425049  0.845050090  0.123914558
     0.570757574  0.159028328  0.140827152
     0.576329050  0.516225595  0.147622987
     0.584365484  0.844447688  0.141203615
     0.897175251  0.509757573  0.153588382
     0.734946684  0.685434719  0.371666033

  ion indices of the primitive-cell ions
   primitive index   ion index
                 1           1
                 2           2
                 3           3
                 4           4
                 5           5
                 6           6
                 7           7
                 8           8
                 9           9
                10          10
                11          11
                12          12
                13          13
                14          14
                15          15
                16          16
                17          17
                18          18
                19          19
                20          20
                21          21
                22          22
                23          23
                24          24
                25          25
                26          26
                27          27
                28          28
                29          29
                30          30
                31          31
                32          32
                33          33
                34          34
                35          35
                36          36
                37          37
                38          38
                39          39
                40          40
                41          41
                42          42
                43          43
                44          44
                45          45
                46          46
                47          47
                48          48
                49          49
                50          50
                51          51
                52          52
                53          53
                54          54
                55          55
                56          56
                57          57
                58          58
                59          59
                60          60
                61          61
                62          62
                63          63
                64          64
                65          65
                66          66
                67          67
                68          68
                69          69
                70          70
                71          71
                72          72

----------------------------------------------------------------------------------------

 
 
 KPOINTS: KPOINTS created by Atomic Simulation Env

Automatic generation of k-mesh.
 Grid dimensions read from file:
 generate k-points for:    2    2    2

 Generating k-lattice:

  Cartesian coordinates                     Fractional coordinates (reciprocal lattice)
     0.040240341 -0.000000004  0.000000008     0.500000000 -0.000000000  0.000000000
    -0.000000004  0.039950514  0.000000004    -0.000000000  0.500000000  0.000000000
     0.000000007  0.000000003  0.045130623     0.000000000  0.000000000  0.500000000

  Length of vectors
     0.040240341  0.039950514  0.045130623

  Shift w.r.t. Gamma in fractional coordinates (k-lattice)
     0.000000000  0.000000000  0.000000000

 
 Subroutine IBZKPT returns following result:
 ===========================================
 
 Found      8 irreducible k-points:
 
 Following reciprocal coordinates:
            Coordinates               Weight
  0.000000  0.000000  0.000000      1.000000
  0.500000  0.000000  0.000000      1.000000
  0.000000  0.500000  0.000000      1.000000
  0.500000  0.500000  0.000000      1.000000
  0.000000  0.000000  0.500000      1.000000
  0.500000  0.000000  0.500000      1.000000
  0.000000  0.500000  0.500000      1.000000
  0.500000  0.500000  0.500000      1.000000
 
 Following cartesian coordinates:
            Coordinates               Weight
  0.000000  0.000000  0.000000      1.000000
  0.040240 -0.000000  0.000000      1.000000
 -0.000000  0.039951  0.000000      1.000000
  0.040240  0.039951  0.000000      1.000000
  0.000000  0.000000  0.045131      1.000000
  0.040240 -0.000000  0.045131      1.000000
  0.000000  0.039951  0.045131      1.000000
  0.040240  0.039951  0.045131      1.000000
 
 -----------------------------------------------------------------------------
|                                                                             |
|           W    W    AA    RRRRR   N    N  II  N    N   GGGG   !!!           |
|           W    W   A  A   R    R  NN   N  II  NN   N  G    G  !!!           |
|           W    W  A    A  R    R  N N  N  II  N N  N  G       !!!           |
|           W WW W  AAAAAA  RRRRR   N  N N  II  N  N N  G  GGG   !            |
|           WW  WW  A    A  R   R   N   NN  II  N   NN  G    G                |
|           W    W  A    A  R    R  N    N  II  N    N   GGGG   !!!           |
|                                                                             |
|     The number of bands has been changed from the values supplied in        |
|     the INCAR file. This is a result of running the parallel version.       |
|     The orbitals not found in the WAVECAR file will be initialized with     |
|     random numbers, which is usually adequate. For correlated               |
|     calculations, however, you should redo the groundstate calculation.     |
|     I found NBANDS = 220. Now, NBANDS = 224.                                |
|                                                                             |
 -----------------------------------------------------------------------------



--------------------------------------------------------------------------------------------------------




 Dimension of arrays:
   k-points           NKPTS =      8   k-points in BZ     NKDIM =      8   number of bands    NBANDS=    224
   number of dos      NEDOS =    301   number of ions     NIONS =     72
   non local maximal  LDIM  =      5   non local SUM 2l+1 LMDIM =     13
   total plane-waves  NPLWV = 774144
   max r-space proj   IRMAX =      1   max aug-charges    IRDMAX=  24618
   dimension x,y,z NGX =    96 NGY =   96 NGZ =   84
   dimension x,y,z NGXF=   192 NGYF=  192 NGZF=  168
   support grid    NGXF=   192 NGYF=  192 NGZF=  168
   ions per type =              36  36
   NGX,Y,Z   is equivalent  to a cutoff of  12.84, 12.75, 12.60 a.u.
   NGXF,Y,Z  is equivalent  to a cutoff of  25.69, 25.50, 25.21 a.u.

 SYSTEM =  01_AOPT                                 
 POSCAR =  Ge Se                                   

 Startparameter for this run:
   NWRITE =      2    write-flag & timer
   PREC   = accura    normal or accurate (medium, high low for compatibility)
   ISTART =      0    job   : 0-new  1-cont  2-samecut
   ICHARG =      2    charge: 1-file 2-atom 10-const
   ISPIN  =      2    spin polarized calculation?
   LNONCOLLINEAR =      F non collinear calculations
   LSORBIT =      F    spin-orbit coupling
   INIWAV =      1    electr: 0-lowe 1-rand  2-diag
   LASPH  =      T    aspherical Exc in radial PAW
 Electronic Relaxation 1
   ENCUT  =  520.0 eV  38.22 Ry    6.18 a.u.  23.10 23.27 20.60*2*pi/ulx,y,z
   ENINI  =  520.0     initial cutoff
   ENAUG  =  446.8 eV  augmentation charge cutoff
   NELM   =    100;   NELMIN=  5; NELMDL=  0     # of ELM steps 
   EDIFF  = 0.1E-05   stopping-criterion for ELM
   LREAL  =      F    real-space projection
   NLSPLINE    = F    spline interpolate recip. space projectors
   LCOMPAT=      F    compatible to vasp.4.4
   GGA_COMPAT  = T    GGA compatible to vasp.4.4-vasp.4.6
   LMAXPAW     = -100 max onsite density
   LMAXMIX     =    2 max onsite mixed and CHGCAR
   VOSKOWN=      0    Vosko Wilk Nusair interpolation
   ROPT   =    0.00000   0.00000
 Ionic relaxation
   EDIFFG = 0.1E-04   stopping-criterion for IOM
   NSW    =      0    number of steps for IOM
   NBLOCK =      1;   KBLOCK =      1    inner block; outer block 
   IBRION =     -1    ionic relax: 0-MD 1-quasi-New 2-CG
   NFREE  =      0    steps in history (QN), initial steepest desc. (CG)
   ISIF   =      2    stress and relaxation
   IWAVPR =     10    prediction:  0-non 1-charg 2-wave 3-comb
   ISYM   =     -1    0-nonsym 1-usesym 2-fastsym
   LCORR  =      T    Harris-Foulkes like correction to forces

   POTIM  = 0.5000    time-step for ionic-motion
   TEIN   =    0.0    initial temperature
   TEBEG  =    0.0;   TEEND  =   0.0 temperature during run
   SMASS  =  -3.00    Nose mass-parameter (am)
   estimated Nose-frequenzy (Omega)   =  0.10E-29 period in steps = 0.13E+47 mass=  -0.353E-26a.u.
   SCALEE = 1.0000    scale energy and forces
   NPACO  =    256;   APACO  = 10.0  distance and # of slots for P.C.
   PSTRESS=    0.0 pullay stress

  Mass of Ions in am
   POMASS =  72.61 78.96
  Ionic Valenz
   ZVAL   =   4.00  6.00
  Atomic Wigner-Seitz radii
   RWIGS  =  -1.00 -1.00
  virtual crystal weights 
   VCA    =   1.00  1.00
   NELECT =     360.0000    total number of electrons
   NUPDOWN=      -1.0000    fix difference up-down

 DOS related values:
   EMIN   =  10.00;   EMAX   =-10.00  energy-range for DOS
   EFERMI =   0.00;   METHOD = LEGACY      
   ISMEAR =     0;   SIGMA  =   0.05  broadening in eV -4-tet -1-fermi 0-gaus

 Electronic relaxation 2 (details)
   IALGO  =     38    algorithm
   LDIAG  =      T    sub-space diagonalisation (order eigenvalues)
   LSUBROT=      F    optimize rotation matrix (better conditioning)
   TURBO    =      0    0=normal 1=particle mesh
   IRESTART =      0    0=no restart 2=restart with 2 vectors
   NREBOOT  =      0    no. of reboots
   NMIN     =      0    reboot dimension
   EREF     =   0.00    reference energy to select bands
   IMIX   =      4    mixing-type and parameters
     AMIX     =   0.40;   BMIX     =  1.00
     AMIX_MAG =   1.60;   BMIX_MAG =  1.00
     AMIN     =   0.10
     WC   =   100.;   INIMIX=   1;  MIXPRE=   1;  MAXMIX= -45

 Intra band minimization:
   WEIMIN = 0.0000     energy-eigenvalue tresh-hold
   EBREAK =  0.11E-08  absolut break condition
   DEPER  =   0.30     relativ break condition  

   TIME   =   0.40     timestep for ELM

  volume/ion in A,a.u.               =      23.93       161.48
  Fermi-wavevector in a.u.,A,eV,Ry     =   0.971458  1.835790 12.840240  0.943731
  Thomas-Fermi vector in A             =   2.101677
 
 Write flags
   LWAVE        =      F    write WAVECAR
   LDOWNSAMPLE  =      F    k-point downsampling of WAVECAR
   LCHARG       =      F    write CHGCAR
   LVTOT        =      F    write LOCPOT, total local potential
   LVHAR        =      F    write LOCPOT, Hartree potential only
   LELF         =      F    write electronic localiz. function (ELF)
   LORBIT       =     11    0 simple, 1 ext, 2 COOP (PROOUT), +10 PAW based schemes


 Dipole corrections
   LMONO  =      F    monopole corrections only (constant potential shift)
   LDIPOL =      F    correct potential (dipole corrections)
   IDIPOL =      0    1-x, 2-y, 3-z, 4-all directions 
   EPSILON=  1.0000000 bulk dielectric constant

 Exchange correlation treatment:
   GGA     =    PE    GGA type
   LEXCH   =     8    internal setting for exchange type
   LIBXC   =     F    Libxc                    
   VOSKOWN =     0    Vosko Wilk Nusair interpolation
   LHFCALC =     F    Hartree Fock is set to
   LHFONE  =     F    Hartree Fock one center treatment
   AEXX    =    0.0000 exact exchange contribution

 Linear response parameters
   LEPSILON=     F    determine dielectric tensor
   LRPA    =     F    only Hartree local field effects (RPA)
   LNABLA  =     F    use nabla operator in PAW spheres
   LVEL    =     F    velocity operator in full k-point grid
   CSHIFT  =0.1000    complex shift for real part using Kramers Kronig
   OMEGAMAX=  -1.0    maximum frequency
   DEG_THRESHOLD= 0.2000000E-02 threshold for treating states as degnerate
   RTIME   =   -0.100 relaxation time in fs
  (WPLASMAI=    0.000 imaginary part of plasma frequency in eV, 0.658/RTIME)
   DFIELD  = 0.0000000 0.0000000 0.0000000 field for delta impulse in time
 
  Optional k-point grid parameters
   LKPOINTS_OPT  =     F    use optional k-point grid
   KPOINTS_OPT_MODE=     1    mode for optional k-point grid
 
 Orbital magnetization related:
   ORBITALMAG=     F  switch on orbital magnetization
   LCHIMAG   =     F  perturbation theory with respect to B field
   DQ        =  0.001000  dq finite difference perturbation B field
   LLRAUG    =     F  two centre corrections for induced B field
   LBONE     =     F  B-component reconstruction in AE one-centre
   LVGVCALC  =     T  calculate vGv susceptibility
   LVGVAPPL  =     F  apply vGv susceptibility instead of pGv for G=0

 Random number generation:
   RANDOM_GENERATOR = DEFAULT
   PCG_SEED         = not used


--------------------------------------------------------------------------------------------------------


 Static calculation
 charge density and potential will be updated during run
 spin polarized calculation
 Variant of blocked Davidson
 Davidson routine will perform the subspace rotation
 perform sub-space diagonalisation
    after iterative eigenvector-optimisation
 modified Broyden-mixing scheme, WC =      100.0
 initial mixing is a Kerker type mixing with AMIX =  0.4000 and BMIX =      1.0000
 Hartree-type preconditioning will be used
 using additional bands            44
 reciprocal scheme for non local part
 use partial core corrections
 calculate Harris-corrections to forces 
   (improved forces if not selfconsistent)
 use gradient corrections 
 use of overlap-Matrix (Vanderbilt PP)
 Gauss-broadening in eV      SIGMA  =   0.05


--------------------------------------------------------------------------------------------------------


  energy-cutoff  :      520.00
  volume of cell :     1722.88
      direct lattice vectors                 reciprocal lattice vectors
    12.425342040  0.000001240 -0.000001820     0.080480682 -0.000000008  0.000000015
     0.000001249 12.515483610 -0.000000954    -0.000000008  0.079901027  0.000000008
    -0.000002089 -0.000001087 11.078951822     0.000000013  0.000000007  0.090261246

  length of vectors
    12.425342040 12.515483610 11.078951822     0.080480682  0.079901027  0.090261246


 
 k-points in units of 2pi/SCALE and weight: KPOINTS created by Atomic Simulation Env
   0.00000000  0.00000000  0.00000000       0.125
   0.04024034 -0.00000000  0.00000001       0.125
  -0.00000000  0.03995051  0.00000000       0.125
   0.04024034  0.03995051  0.00000001       0.125
   0.00000001  0.00000000  0.04513062       0.125
   0.04024035 -0.00000000  0.04513063       0.125
   0.00000000  0.03995052  0.04513063       0.125
   0.04024034  0.03995051  0.04513063       0.125
 
 k-points in reciprocal lattice and weights: KPOINTS created by Atomic Simulation Env
   0.00000000  0.00000000  0.00000000       0.125
   0.50000000  0.00000000  0.00000000       0.125
   0.00000000  0.50000000  0.00000000       0.125
   0.50000000  0.50000000  0.00000000       0.125
   0.00000000  0.00000000  0.50000000       0.125
   0.50000000  0.00000000  0.50000000       0.125
   0.00000000  0.50000000  0.50000000       0.125
   0.50000000  0.50000000  0.50000000       0.125
 
 position of ions in fractional coordinates (direct lattice) 
   0.06808672  0.05239173  0.13711476
   0.24733028  0.87352199  0.36170167
   0.54506882  0.20513876  0.37513477
   0.58566481  0.55189593  0.36766421
   0.56478016  0.85260588  0.37254210
   0.86946648  0.19320737  0.36718119
   0.90798272  0.53627157  0.37742414
   0.90507093  0.88203103  0.36762888
   0.05075392  0.17318577  0.62871653
   0.06530095  0.49359120  0.63886962
   0.08183316  0.82155277  0.62338030
   0.40191517  0.15100579  0.63725048
   0.39731643  0.48940006  0.60128642
   0.43468300  0.82844003  0.63505664
   0.74619114  0.16133918  0.63034027
   0.73612613  0.47530743  0.64752334
   0.22320337  0.53463449  0.35511492
   0.22310448  0.21483845  0.38572062
   0.74246728  0.83518071  0.62544482
   0.88027921  0.66435573  0.88025878
   0.90486912  0.98675922  0.88988280
   0.05481259  0.37591438  0.12583134
   0.05692679  0.71002420  0.10001471
   0.39150756  0.04520350  0.15508177
   0.41813101  0.39499389  0.13961854
   0.72864824  0.02542723  0.13088703
   0.73918992  0.35939588  0.11756361
   0.40601731  0.71479619  0.11193156
   0.22889978  0.32093213  0.88469546
   0.22289661  0.64273806  0.86659319
   0.21901701  0.99308044  0.86349104
   0.54658066  0.31749977  0.85416352
   0.55971436  0.65124800  0.86579849
   0.56652288  0.00952467  0.86790675
   0.89144123  0.31702076  0.86314051
   0.74836149  0.70820964  0.13195362
   0.90690605  0.01428079  0.65226318
   0.25447999  0.35452190  0.64687786
   0.25097918  0.69651355  0.63940014
   0.58186238  0.01943954  0.63925830
   0.56818429  0.34098442  0.61949712
   0.58792310  0.69724354  0.64426395
   0.89646298  0.34599477  0.62954226
   0.74586334  0.02875858  0.36194768
   0.07090770  0.00710878  0.36053057
   0.08363311  0.36439679  0.35445711
   0.06595311  0.66712078  0.32865588
   0.40423587  0.01162281  0.38495319
   0.39264658  0.36037841  0.36709016
   0.42105775  0.69403049  0.35819038
   0.21587655  0.02514217  0.62561387
   0.90360842  0.67895114  0.65298898
   0.90611925  0.84639920  0.13440010
   0.23760940  0.18282395  0.15002998
   0.91260989  0.18531034  0.13609282
   0.71213368  0.33806248  0.36164813
   0.07109117  0.18529281  0.84765336
   0.06357717  0.50412347  0.85417693
   0.07946596  0.84873631  0.85445395
   0.40676624  0.17355741  0.87360283
   0.39836909  0.51241115  0.84821482
   0.40156817  0.87293848  0.87069513
   0.73365730  0.19944288  0.86148739
   0.72734987  0.51376361  0.86740854
   0.75364108  0.84561646  0.85252325
   0.26085607  0.52898865  0.13006140
   0.23742505  0.84505009  0.12391456
   0.57075757  0.15902833  0.14082715
   0.57632905  0.51622560  0.14762299
   0.58436548  0.84444769  0.14120361
   0.89717525  0.50975757  0.15358838
   0.73494668  0.68543472  0.37166603
 
 position of ions in cartesian coordinates  (Angst):
   0.84600054  0.65570778  1.51908770
   3.07316368 10.93255012  4.00727415
   6.77266601  2.56741109  4.15609883
   7.27708551  6.90724479  4.07333249
   7.01758690 10.67077525  4.12737412
  10.80341786  2.41808438  4.06798100
  11.28199579  6.71169880  4.18146167
  11.24581625 11.03904561  4.07294016
   0.63063375  2.16750299  6.96551988
   0.81138591  6.17753191  7.07800513
   1.01680467 10.28212964  6.90639940
   4.99393230  1.88991032  7.06006649
   4.93679196  6.12507822  6.66162205
   5.40108470 10.36832749  7.03576036
   9.27167898  2.01923810  6.98350794
   9.14661813  5.94870256  7.17387804
   2.77337814  6.69120912  3.93430018
   2.77214899  2.68880694  4.27337951
   9.22540970 10.45269078  6.92927083
  10.93776926  8.31473337  9.75234237
  11.24330764 12.34976905  9.85896608
   0.68106544  4.70475022  1.39407894
   0.70733545  8.88629620  1.10805736
   4.86461505  0.56574394  1.71814265
   5.19542104  4.94353990  1.54682592
   9.05370336  0.31823479  1.45008978
   9.18468776  4.49801400  1.30247991
   5.04490459  8.94602043  1.24008294
   2.84415667  4.01662008  9.80149769
   2.76956564  8.04417696  9.60094323
   2.72136071 12.42888135  9.56657430
   6.79145022  3.97366290  9.46323516
   6.95464143  8.15068347  9.59213814
   7.03923875  0.11920566  9.61549607
  11.07646079  3.96766831  9.56269020
   9.29864814  8.86358694  1.46190580
  11.26861651  0.17873135  7.22639067
   3.16200007  4.43701259  7.16672789
   3.11850174  8.71720360  7.08388225
   7.22983777  0.24329526  7.08231083
   7.05988325  4.26758496  6.86337737
   7.30514520  8.72634018  7.13776757
  11.13885824  4.33029228  6.97466640
   9.26760642  0.35992807  4.00999952
   0.88105173  0.08896957  3.99430064
   1.03916977  4.56060173  3.92701277
   0.81949011  8.34933895  3.64116193
   5.02276811  0.14546515  4.26487713
   4.87876780  4.51031018  4.06697311
   5.23178672  8.68612741  3.96837255
   2.68233871  0.31466598  6.93114550
  11.22764321  8.49740223  7.23443118
  11.25884241 10.59309631  1.48900976
   2.95237796  2.28813034  1.66217431
  11.33948994  2.31924950  1.50776395
   8.84850416  4.23101592  4.00668060
   0.88333058  2.31902831  9.39111047
   0.78996696  6.30934824  9.46338440
   0.98739102 10.62234457  9.46645324
   5.05420800  2.17215454  9.67860274
   4.94987103  6.41307289  9.39732990
   4.98962118 10.92524675  9.64638778
   9.11594132  2.49612412  9.54437577
   9.03756975  6.42999997  9.60997562
   9.36424751 10.58329895  9.44506178
   3.24122628  6.62054902  1.44094299
   2.95008824 10.57621071  1.37284219
   7.09185799  1.99031699  1.56021605
   7.16108591  6.46081353  1.63550642
   7.26094178 10.56867177  1.56438618
  11.14770968  6.37986349  1.70159617
   9.13196401  8.57854750  4.11766808
 


--------------------------------------------------------------------------------------------------------


 k-point   1 :   0.0000 0.0000 0.0000  plane waves:   46369
 k-point   2 :   0.5000 0.0000 0.0000  plane waves:   46442
 k-point   3 :   0.0000 0.5000 0.0000  plane waves:   46358
 k-point   4 :   0.5000 0.5000 0.0000  plane waves:   46464
 k-point   5 :   0.0000 0.0000 0.5000  plane waves:   46422
 k-point   6 :   0.5000 0.0000 0.5000  plane waves:   46368
 k-point   7 :   0.0000 0.5000 0.5000  plane waves:   46376
 k-point   8 :   0.5000 0.5000 0.5000  plane waves:   46344

 maximum and minimum number of plane-waves per node :      5838     5747

 maximum number of plane-waves:     46464
 maximum index in each direction: 
   IXMAX=   23   IYMAX=   23   IZMAX=   20
   IXMIN=  -23   IYMIN=  -23   IZMIN=  -21


 parallel 3D FFT for wavefunctions:
    minimum data exchange during FFTs selected (reduces bandwidth)
 parallel 3D FFT for charge:
    minimum data exchange during FFTs selected (reduces bandwidth)


 total amount of memory used by VASP MPI-rank0   110925. kBytes
=======================================================================

   base      :      30000. kBytes
   nonl-proj :      16400. kBytes
   fftplans  :       6180. kBytes
   grid      :      15593. kBytes
   one-center:        146. kBytes
   wavefun   :      42606. kBytes
 
     INWAV:  cpu time      0.0000: real time      0.0001
 Broyden mixing: mesh for mixing (old mesh)
   NGX = 47   NGY = 47   NGZ = 41
  (NGX  =192   NGY  =192   NGZ  =168)
  gives a total of  90569 points

 initial charge density was supplied:
 charge density of overlapping atoms calculated
 number of electron     360.0000000 magnetization      72.0000000
 keeping initial charge density in first step


--------------------------------------------------------------------------------------------------------


 Maximum index for augmentation-charges           701 (set IRDMAX)


--------------------------------------------------------------------------------------------------------


 First call to EWALD:  gamma=   0.148
 Maximum number of real-space cells 3x 3x 3
 Maximum number of reciprocal cells 3x 3x 3

    FEWALD:  cpu time      0.0037: real time      0.0037


--------------------------------------- Ionic step        1  -------------------------------------------




--------------------------------------- Iteration      1(   1)  ---------------------------------------


    POTLOK:  cpu time      0.1388: real time      0.1402
    SETDIJ:  cpu time      0.6015: real time      0.6034
     EDDAV:  cpu time      8.7337: real time      8.7795
       DOS:  cpu time      0.0017: real time      0.0017
    --------------------------------------------
      LOOP:  cpu time      9.4758: real time      9.5248

 eigenvalue-minimisations  :  7168
 total energy-change (2. order) : 0.1812129E+04  (-0.1417975E+05)
 number of electron     360.0000000 magnetization      72.0000000
 augmentation part      360.0000000 magnetization      72.0000000

 Free energy of the ion-electron system (eV)
  ---------------------------------------------------
  alpha Z        PSCENC =       796.63194262
  Ewald energy   TEWEN  =    -12892.83802650
  -Hartree energ DENC   =     -1089.00056444
  -exchange      EXHF   =         0.00000000
  -V(xc)+E(xc)   XCENC  =      -294.39315766
  PAW double counting   =     10738.42099860    -9719.93139476
  entropy T*S    EENTRO =        -0.02467564
  eigenvalues    EBANDS =      1236.81198743
  atomic energy  EATOM  =     13036.45147835
  Solvation  Ediel_sol  =         0.00000000
  ---------------------------------------------------
  free energy    TOTEN  =      1812.12858801 eV

  energy without entropy =     1812.15326365  energy(sigma->0) =     1812.14092583


--------------------------------------------------------------------------------------------------------




--------------------------------------- Iteration      1(   2)  ---------------------------------------


     EDDAV:  cpu time      9.7714: real time      9.8276
       DOS:  cpu time      0.0013: real time      0.0013
    --------------------------------------------
      LOOP:  cpu time      9.7727: real time      9.8289

 eigenvalue-minimisations  :  8488
 total energy-change (2. order) :-0.1876176E+04  (-0.1801299E+04)
 number of electron     360.0000000 magnetization      72.0000000
 augmentation part      360.0000000 magnetization      72.0000000

 Free energy of the ion-electron system (eV)
  ---------------------------------------------------
  alpha Z        PSCENC =       796.63194262
  Ewald energy   TEWEN  =    -12892.83802650
  -Hartree energ DENC   =     -1089.00056444
  -exchange      EXHF   =         0.00000000
  -V(xc)+E(xc)   XCENC  =      -294.39315766
  PAW double counting   =     10738.42099860    -9719.93139476
  entropy T*S    EENTRO =        -0.01581633
  eigenvalues    EBANDS =      -639.37305460
  atomic energy  EATOM  =     13036.45147835
  Solvation  Ediel_sol  =         0.00000000
  ---------------------------------------------------
  free energy    TOTEN  =       -64.04759471 eV

  energy without entropy =      -64.03177838  energy(sigma->0) =      -64.03968655


--------------------------------------------------------------------------------------------------------




--------------------------------------- Iteration      1(   3)  ---------------------------------------


     EDDAV:  cpu time      9.8383: real time      9.9040
       DOS:  cpu time      0.0015: real time      0.0015
    --------------------------------------------
      LOOP:  cpu time      9.8399: real time      9.9056

 eigenvalue-minimisations  :  8568
 total energy-change (2. order) :-0.2174721E+03  (-0.2115077E+03)
 number of electron     360.0000000 magnetization      72.0000000
 augmentation part      360.0000000 magnetization      72.0000000

 Free energy of the ion-electron system (eV)
  ---------------------------------------------------
  alpha Z        PSCENC =       796.63194262
  Ewald energy   TEWEN  =    -12892.83802650
  -Hartree energ DENC   =     -1089.00056444
  -exchange      EXHF   =         0.00000000
  -V(xc)+E(xc)   XCENC  =      -294.39315766
  PAW double counting   =     10738.42099860    -9719.93139476
  entropy T*S    EENTRO =        -0.00042659
  eigenvalues    EBANDS =      -856.86055520
  atomic energy  EATOM  =     13036.45147835
  Solvation  Ediel_sol  =         0.00000000
  ---------------------------------------------------
  free energy    TOTEN  =      -281.51970557 eV

  energy without entropy =     -281.51927898  energy(sigma->0) =     -281.51949227


--------------------------------------------------------------------------------------------------------




--------------------------------------- Iteration      1(   4)  ---------------------------------------


     EDDAV:  cpu time     10.0049: real time     10.0570
       DOS:  cpu time      0.0014: real time      0.0014
    --------------------------------------------
      LOOP:  cpu time     10.0064: real time     10.0585

 eigenvalue-minimisations  :  8744
 total energy-change (2. order) :-0.7892395E+01  (-0.7801064E+01)
 number of electron     360.0000000 magnetization      72.0000000
 augmentation part      360.0000000 magnetization      72.0000000

 Free energy of the ion-electron system (eV)
  ---------------------------------------------------
  alpha Z        PSCENC =       796.63194262
  Ewald energy   TEWEN  =    -12892.83802650
  -Hartree energ DENC   =     -1089.00056444
  -exchange      EXHF   =         0.00000000
  -V(xc)+E(xc)   XCENC  =      -294.39315766
  PAW double counting   =     10738.42099860    -9719.93139476
  entropy T*S    EENTRO =        -0.00008379
  eigenvalues    EBANDS =      -864.75329338
  atomic energy  EATOM  =     13036.45147835
  Solvation  Ediel_sol  =         0.00000000
  ---------------------------------------------------
  free energy    TOTEN  =      -289.41210095 eV

  energy without entropy =     -289.41201717  energy(sigma->0) =     -289.41205906


--------------------------------------------------------------------------------------------------------




--------------------------------------- Iteration      1(   5)  ---------------------------------------


     EDDAV:  cpu time     10.1860: real time     10.2504
       DOS:  cpu time      0.0012: real time      0.0012
    CHARGE:  cpu time      0.4222: real time      0.4240
    MIXING:  cpu time      0.0077: real time      0.0078
    --------------------------------------------
      LOOP:  cpu time     10.6171: real time     10.6833

 eigenvalue-minimisations  :  9032
 total energy-change (2. order) :-0.2925655E+00  (-0.2917622E+00)
 number of electron     360.0000000 magnetization      48.8103689
 augmentation part      -66.8530782 magnetization      49.0221333

 Broyden mixing:
  rms(total) = 0.28979E+01    rms(broyden)= 0.28979E+01
  rms(prec ) = 0.30596E+01
  weight for this iteration     100.00

 Free energy of the ion-electron system (eV)
  ---------------------------------------------------
  alpha Z        PSCENC =       796.63194262
  Ewald energy   TEWEN  =    -12892.83802650
  -Hartree energ DENC   =     -1089.00056444
  -exchange      EXHF   =         0.00000000
  -V(xc)+E(xc)   XCENC  =      -294.39315766
  PAW double counting   =     10738.42099860    -9719.93139476
  entropy T*S    EENTRO =        -0.00010363
  eigenvalues    EBANDS =      -865.04583901
  atomic energy  EATOM  =     13036.45147835
  Solvation  Ediel_sol  =         0.00000000
  ---------------------------------------------------
  free energy    TOTEN  =      -289.70466642 eV

  energy without entropy =     -289.70456279  energy(sigma->0) =     -289.70461461


--------------------------------------------------------------------------------------------------------




--------------------------------------- Iteration      1(   6)  ---------------------------------------


    POTLOK:  cpu time      0.1341: real time      0.1354
    SETDIJ:  cpu time      0.6025: real time      0.6049
     EDDAV:  cpu time      9.4604: real time      9.5160
       DOS:  cpu time      0.0020: real time      0.0020
    CHARGE:  cpu time      0.4175: real time      0.4194
    MIXING:  cpu time      0.0075: real time      0.0076
    --------------------------------------------
      LOOP:  cpu time     10.6241: real time     10.6853

 eigenvalue-minimisations  :  8056
 total energy-change (2. order) : 0.6736169E+00  (-0.2752020E+01)
 number of electron     360.0000000 magnetization      28.0636443
 augmentation part      -66.2339837 magnetization      29.2488462

 Broyden mixing:
  rms(total) = 0.17141E+01    rms(broyden)= 0.17141E+01
  rms(prec ) = 0.17499E+01
  weight for this iteration     100.00

 eigenvalues of (default mixing * dielectric matrix)
  average eigenvalue GAMMA=   1.0058
  1.0058

 Free energy of the ion-electron system (eV)
  ---------------------------------------------------
  alpha Z        PSCENC =       796.63194262
  Ewald energy   TEWEN  =    -12892.83802650
  -Hartree energ DENC   =     -1142.89384078
  -exchange      EXHF   =         0.00000000
  -V(xc)+E(xc)   XCENC  =      -287.95980240
  PAW double counting   =     12967.84697768   -11952.77891634
  entropy T*S    EENTRO =        -0.00020034
  eigenvalues    EBANDS =      -813.49066186
  atomic energy  EATOM  =     13036.45147835
  Solvation  Ediel_sol  =         0.00000000
  ---------------------------------------------------
  free energy    TOTEN  =      -289.03104956 eV

  energy without entropy =     -289.03084921  energy(sigma->0) =     -289.03094939


--------------------------------------------------------------------------------------------------------




--------------------------------------- Iteration      1(   7)  ---------------------------------------


    POTLOK:  cpu time      0.1306: real time      0.1313
    SETDIJ:  cpu time      0.6014: real time      0.6038
     EDDAV:  cpu time      9.4367: real time      9.4924
       DOS:  cpu time      0.0014: real time      0.0014
    CHARGE:  cpu time      0.4175: real time      0.4192
    MIXING:  cpu time      0.0075: real time      0.0075
    --------------------------------------------
      LOOP:  cpu time     10.5951: real time     10.6557

 eigenvalue-minimisations  :  8032
 total energy-change (2. order) :-0.7378102E+01  (-0.8614017E+00)
 number of electron     360.0000001 magnetization       9.4502956
 augmentation part      -66.2277903 magnetization      10.1302131

 Broyden mixing:
  rms(total) = 0.90758E+00    rms(broyden)= 0.90758E+00
  rms(prec ) = 0.92329E+00
  weight for this iteration     100.00

 eigenvalues of (default mixing * dielectric matrix)
  average eigenvalue GAMMA=   1.4404
  0.8624  2.0185

 Free energy of the ion-electron system (eV)
  ---------------------------------------------------
  alpha Z        PSCENC =       796.63194262
  Ewald energy   TEWEN  =    -12892.83802650
  -Hartree energ DENC   =     -1159.05349041
  -exchange      EXHF   =         0.00000000
  -V(xc)+E(xc)   XCENC  =      -290.96887444
  PAW double counting   =     14989.00883562   -13975.46403817
  entropy T*S    EENTRO =        -0.00000031
  eigenvalues    EBANDS =      -800.17697858
  atomic energy  EATOM  =     13036.45147835
  Solvation  Ediel_sol  =         0.00000000
  ---------------------------------------------------
  free energy    TOTEN  =      -296.40915182 eV

  energy without entropy =     -296.40915150  energy(sigma->0) =     -296.40915166


--------------------------------------------------------------------------------------------------------




--------------------------------------- Iteration      1(   8)  ---------------------------------------


    POTLOK:  cpu time      0.1296: real time      0.1305
    SETDIJ:  cpu time      0.6038: real time      0.6059
     EDDAV:  cpu time      9.4947: real time      9.5440
       DOS:  cpu time      0.0013: real time      0.0013
    CHARGE:  cpu time      0.4328: real time      0.4346
    MIXING:  cpu time      0.0077: real time      0.0077
    --------------------------------------------
      LOOP:  cpu time     10.6699: real time     10.7239

 eigenvalue-minimisations  :  8120
 total energy-change (2. order) :-0.3266471E+01  (-0.1714718E+00)
 number of electron     360.0000001 magnetization       4.4096134
 augmentation part      -66.2474489 magnetization       4.7235816

 Broyden mixing:
  rms(total) = 0.33712E+00    rms(broyden)= 0.33712E+00
  rms(prec ) = 0.34218E+00
  weight for this iteration     100.00

 eigenvalues of (default mixing * dielectric matrix)
  average eigenvalue GAMMA=   1.3570
  2.4953  0.9255  0.6503

 Free energy of the ion-electron system (eV)
  ---------------------------------------------------
  alpha Z        PSCENC =       796.63194262
  Ewald energy   TEWEN  =    -12892.83802650
  -Hartree energ DENC   =     -1162.67063509
  -exchange      EXHF   =         0.00000000
  -V(xc)+E(xc)   XCENC  =      -290.80774238
  PAW double counting   =     16696.28827274   -15683.59257427
  entropy T*S    EENTRO =        -0.00000000
  eigenvalues    EBANDS =      -799.13833839
  atomic energy  EATOM  =     13036.45147835
  Solvation  Ediel_sol  =         0.00000000
  ---------------------------------------------------
  free energy    TOTEN  =      -299.67562291 eV

  energy without entropy =     -299.67562291  energy(sigma->0) =     -299.67562291


--------------------------------------------------------------------------------------------------------




--------------------------------------- Iteration      1(   9)  ---------------------------------------


    POTLOK:  cpu time      0.1295: real time      0.1302
    SETDIJ:  cpu time      0.6047: real time      0.6069
     EDDAV:  cpu time     10.3241: real time     10.3789
       DOS:  cpu time      0.0011: real time      0.0011
    CHARGE:  cpu time      0.4322: real time      0.4348
    MIXING:  cpu time      0.0075: real time      0.0075
    --------------------------------------------
      LOOP:  cpu time     11.4990: real time     11.5594

 eigenvalue-minimisations  :  9112
 total energy-change (2. order) :-0.4020391E+00  (-0.4409892E-01)
 number of electron     360.0000001 magnetization       2.2800715
 augmentation part      -66.2868942 magnetization       2.4346792

 Broyden mixing:
  rms(total) = 0.14805E+00    rms(broyden)= 0.14805E+00
  rms(prec ) = 0.14973E+00
  weight for this iteration     100.00

 eigenvalues of (default mixing * dielectric matrix)
  average eigenvalue GAMMA=   1.3310
  2.6358  1.2352  0.8340  0.6191

 Free energy of the ion-electron system (eV)
  ---------------------------------------------------
  alpha Z        PSCENC =       796.63194262
  Ewald energy   TEWEN  =    -12892.83802650
  -Hartree energ DENC   =     -1161.61566994
  -exchange      EXHF   =         0.00000000
  -V(xc)+E(xc)   XCENC  =      -290.85453415
  PAW double counting   =     16992.64494020   -15980.29001882
  entropy T*S    EENTRO =        -0.00000000
  eigenvalues    EBANDS =      -800.20777382
  atomic energy  EATOM  =     13036.45147835
  Solvation  Ediel_sol  =         0.00000000
  ---------------------------------------------------
  free energy    TOTEN  =      -300.07766205 eV

  energy without entropy =     -300.07766205  energy(sigma->0) =     -300.07766205


--------------------------------------------------------------------------------------------------------




--------------------------------------- Iteration      1(  10)  ---------------------------------------


    POTLOK:  cpu time      0.1293: real time      0.1300
    SETDIJ:  cpu time      0.6033: real time      0.6053
     EDDAV:  cpu time      9.5295: real time      9.5795
       DOS:  cpu time      0.0011: real time      0.0011
    CHARGE:  cpu time      0.4222: real time      0.4239
    MIXING:  cpu time      0.0074: real time      0.0074
    --------------------------------------------
      LOOP:  cpu time     10.6928: real time     10.7472

 eigenvalue-minimisations  :  8144
 total energy-change (2. order) :-0.1081152E+00  (-0.9796064E-02)
 number of electron     360.0000001 magnetization       0.7156163
 augmentation part      -66.2887187 magnetization       0.7839067

 Broyden mixing:
  rms(total) = 0.73199E-01    rms(broyden)= 0.73199E-01
  rms(prec ) = 0.74245E-01
  weight for this iteration     100.00

 eigenvalues of (default mixing * dielectric matrix)
  average eigenvalue GAMMA=   1.3769
  2.7118  1.7469  0.9745  0.8255  0.6257

 Free energy of the ion-electron system (eV)
  ---------------------------------------------------
  alpha Z        PSCENC =       796.63194262
  Ewald energy   TEWEN  =    -12892.83802650
  -Hartree energ DENC   =     -1161.83175571
  -exchange      EXHF   =         0.00000000
  -V(xc)+E(xc)   XCENC  =      -290.85203099
  PAW double counting   =     17001.67412314   -15989.33173405
  entropy T*S    EENTRO =        -0.00000000
  eigenvalues    EBANDS =      -800.08977414
  atomic energy  EATOM  =     13036.45147835
  Solvation  Ediel_sol  =         0.00000000
  ---------------------------------------------------
  free energy    TOTEN  =      -300.18577728 eV

  energy without entropy =     -300.18577728  energy(sigma->0) =     -300.18577728


--------------------------------------------------------------------------------------------------------




--------------------------------------- Iteration      1(  11)  ---------------------------------------


    POTLOK:  cpu time      0.1291: real time      0.1300
    SETDIJ:  cpu time      0.6001: real time      0.6030
     EDDAV:  cpu time     10.2906: real time     10.3479
       DOS:  cpu time      0.0010: real time      0.0010
    CHARGE:  cpu time      0.4181: real time      0.4198
    MIXING:  cpu time      0.0082: real time      0.0082
    --------------------------------------------
      LOOP:  cpu time     11.4470: real time     11.5099

 eigenvalue-minimisations  :  9040
 total energy-change (2. order) :-0.3152671E-01  (-0.3831107E-02)
 number of electron     360.0000001 magnetization       0.1813010
 augmentation part      -66.2741783 magnetization       0.1991176

 Broyden mixing:
  rms(total) = 0.28353E-01    rms(broyden)= 0.28353E-01
  rms(prec ) = 0.28968E-01
  weight for this iteration     100.00

 eigenvalues of (default mixing * dielectric matrix)
  average eigenvalue GAMMA=   1.4070
  2.9196  2.1762  1.1701  0.8566  0.6957  0.6237

 Free energy of the ion-electron system (eV)
  ---------------------------------------------------
  alpha Z        PSCENC =       796.63194262
  Ewald energy   TEWEN  =    -12892.83802650
  -Hartree energ DENC   =     -1162.95010369
  -exchange      EXHF   =         0.00000000
  -V(xc)+E(xc)   XCENC  =      -290.81495055
  PAW double counting   =     16922.56902028   -15910.19949304
  entropy T*S    EENTRO =        -0.00000000
  eigenvalues    EBANDS =      -799.06717147
  atomic energy  EATOM  =     13036.45147835
  Solvation  Ediel_sol  =         0.00000000
  ---------------------------------------------------
  free energy    TOTEN  =      -300.21730399 eV

  energy without entropy =     -300.21730399  energy(sigma->0) =     -300.21730399


--------------------------------------------------------------------------------------------------------




--------------------------------------- Iteration      1(  12)  ---------------------------------------


    POTLOK:  cpu time      0.1294: real time      0.1309
    SETDIJ:  cpu time      0.6017: real time      0.6036
     EDDAV:  cpu time     10.0080: real time     10.0590
       DOS:  cpu time      0.0010: real time      0.0010
    CHARGE:  cpu time      0.4312: real time      0.4328
    MIXING:  cpu time      0.0083: real time      0.0083
    --------------------------------------------
      LOOP:  cpu time     11.1795: real time     11.2356

 eigenvalue-minimisations  :  8488
 total energy-change (2. order) :-0.3034224E-02  (-0.4276813E-03)
 number of electron     360.0000001 magnetization       0.0630718
 augmentation part      -66.2737946 magnetization       0.0676114

 Broyden mixing:
  rms(total) = 0.10969E-01    rms(broyden)= 0.10969E-01
  rms(prec ) = 0.11666E-01
  weight for this iteration     100.00

 eigenvalues of (default mixing * dielectric matrix)
  average eigenvalue GAMMA=   1.3624
  3.0051  2.3227  1.1908  0.8776  0.8776  0.6081  0.6549

 Free energy of the ion-electron system (eV)
  ---------------------------------------------------
  alpha Z        PSCENC =       796.63194262
  Ewald energy   TEWEN  =    -12892.83802650
  -Hartree energ DENC   =     -1163.02034440
  -exchange      EXHF   =         0.00000000
  -V(xc)+E(xc)   XCENC  =      -290.82143756
  PAW double counting   =     16886.63631999   -15874.24423145
  entropy T*S    EENTRO =        -0.00000000
  eigenvalues    EBANDS =      -799.01603927
  atomic energy  EATOM  =     13036.45147835
  Solvation  Ediel_sol  =         0.00000000
  ---------------------------------------------------
  free energy    TOTEN  =      -300.22033821 eV

  energy without entropy =     -300.22033821  energy(sigma->0) =     -300.22033821


--------------------------------------------------------------------------------------------------------




--------------------------------------- Iteration      1(  13)  ---------------------------------------


    POTLOK:  cpu time      0.1293: real time      0.1300
    SETDIJ:  cpu time      0.6014: real time      0.6033
     EDDAV:  cpu time     11.0697: real time     11.1278
       DOS:  cpu time      0.0009: real time      0.0009
    CHARGE:  cpu time      0.4305: real time      0.4322
    MIXING:  cpu time      0.0084: real time      0.0085
    --------------------------------------------
      LOOP:  cpu time     12.2402: real time     12.3026

 eigenvalue-minimisations  :  9840
 total energy-change (2. order) :-0.1059957E-03  (-0.6983938E-04)
 number of electron     360.0000001 magnetization       0.0167170
 augmentation part      -66.2750477 magnetization       0.0175527

 Broyden mixing:
  rms(total) = 0.46425E-02    rms(broyden)= 0.46425E-02
  rms(prec ) = 0.48405E-02
  weight for this iteration     100.00

 eigenvalues of (default mixing * dielectric matrix)
  average eigenvalue GAMMA=   1.3474
  3.0551  2.4269  1.0717  1.0717  1.0303  0.8647  0.6496  0.6090

 Free energy of the ion-electron system (eV)
  ---------------------------------------------------
  alpha Z        PSCENC =       796.63194262
  Ewald energy   TEWEN  =    -12892.83802650
  -Hartree energ DENC   =     -1162.91975255
  -exchange      EXHF   =         0.00000000
  -V(xc)+E(xc)   XCENC  =      -290.83214581
  PAW double counting   =     16873.27120170   -15860.86840662
  entropy T*S    EENTRO =        -0.00000000
  eigenvalues    EBANDS =      -799.11673540
  atomic energy  EATOM  =     13036.45147835
  Solvation  Ediel_sol  =         0.00000000
  ---------------------------------------------------
  free energy    TOTEN  =      -300.22044421 eV

  energy without entropy =     -300.22044421  energy(sigma->0) =     -300.22044421


--------------------------------------------------------------------------------------------------------




--------------------------------------- Iteration      1(  14)  ---------------------------------------


    POTLOK:  cpu time      0.1285: real time      0.1291
    SETDIJ:  cpu time      0.5839: real time      0.6032
     EDDAV:  cpu time      9.7155: real time      9.7720
       DOS:  cpu time      0.0010: real time      0.0010
    CHARGE:  cpu time      0.4190: real time      0.4206
    MIXING:  cpu time      0.0085: real time      0.0086
    --------------------------------------------
      LOOP:  cpu time     10.8563: real time     10.9344

 eigenvalue-minimisations  :  8344
 total energy-change (2. order) :-0.1900409E-04  (-0.9645790E-05)
 number of electron     360.0000001 magnetization       0.0054602
 augmentation part      -66.2746722 magnetization       0.0057900

 Broyden mixing:
  rms(total) = 0.17526E-02    rms(broyden)= 0.17526E-02
  rms(prec ) = 0.18579E-02
  weight for this iteration     100.00

 eigenvalues of (default mixing * dielectric matrix)
  average eigenvalue GAMMA=   1.3288
  3.0822  2.4577  1.4238  1.1978  0.8831  0.8831  0.7754  0.6142  0.6423

 Free energy of the ion-electron system (eV)
  ---------------------------------------------------
  alpha Z        PSCENC =       796.63194262
  Ewald energy   TEWEN  =    -12892.83802650
  -Hartree energ DENC   =     -1162.92742305
  -exchange      EXHF   =         0.00000000
  -V(xc)+E(xc)   XCENC  =      -290.83253015
  PAW double counting   =     16868.86453484   -15856.45898972
  entropy T*S    EENTRO =        -0.00000000
  eigenvalues    EBANDS =      -799.11144960
  atomic energy  EATOM  =     13036.45147835
  Solvation  Ediel_sol  =         0.00000000
  ---------------------------------------------------
  free energy    TOTEN  =      -300.22046321 eV

  energy without entropy =     -300.22046321  energy(sigma->0) =     -300.22046321


--------------------------------------------------------------------------------------------------------




--------------------------------------- Iteration      1(  15)  ---------------------------------------


    POTLOK:  cpu time      0.1284: real time      0.1292
    SETDIJ:  cpu time      0.6043: real time      0.6061
     EDDAV:  cpu time      9.9704: real time     10.0275
       DOS:  cpu time      0.0011: real time      0.0011
    CHARGE:  cpu time      0.4078: real time      0.4097
    MIXING:  cpu time      0.0081: real time      0.0082
    --------------------------------------------
      LOOP:  cpu time     11.1201: real time     11.1818

 eigenvalue-minimisations  :  8616
 total energy-change (2. order) :-0.2919538E-05  (-0.1602649E-05)
 number of electron     360.0000001 magnetization       0.0018416
 augmentation part      -66.2748497 magnetization       0.0020434

 Broyden mixing:
  rms(total) = 0.78238E-03    rms(broyden)= 0.78238E-03
  rms(prec ) = 0.83084E-03
  weight for this iteration     100.00

 eigenvalues of (default mixing * dielectric matrix)
  average eigenvalue GAMMA=   1.2972
  3.0938  2.4309  1.6398  1.0972  0.9704  0.9704  0.8379  0.6954  0.6179  0.6179

 Free energy of the ion-electron system (eV)
  ---------------------------------------------------
  alpha Z        PSCENC =       796.63194262
  Ewald energy   TEWEN  =    -12892.83802650
  -Hartree energ DENC   =     -1162.91077749
  -exchange      EXHF   =         0.00000000
  -V(xc)+E(xc)   XCENC  =      -290.83321533
  PAW double counting   =     16868.30842281   -15855.90196989
  entropy T*S    EENTRO =        -0.00000000
  eigenvalues    EBANDS =      -799.12832071
  atomic energy  EATOM  =     13036.45147835
  Solvation  Ediel_sol  =         0.00000000
  ---------------------------------------------------
  free energy    TOTEN  =      -300.22046613 eV

  energy without entropy =     -300.22046613  energy(sigma->0) =     -300.22046613


--------------------------------------------------------------------------------------------------------




--------------------------------------- Iteration      1(  16)  ---------------------------------------


    POTLOK:  cpu time      0.1289: real time      0.1295
    SETDIJ:  cpu time      0.6009: real time      0.6029
     EDDAV:  cpu time      6.6625: real time      6.6996
       DOS:  cpu time      0.0008: real time      0.0008
    --------------------------------------------
      LOOP:  cpu time      7.3931: real time      7.4328

 eigenvalue-minimisations  :  4888
 total energy-change (2. order) :-0.5216255E-06  (-0.1417042E-06)
 number of electron     360.0000001 magnetization       0.0018416
 augmentation part      -66.2748497 magnetization       0.0020434

 Free energy of the ion-electron system (eV)
  ---------------------------------------------------
  alpha Z        PSCENC =       796.63194262
  Ewald energy   TEWEN  =    -12892.83802650
  -Hartree energ DENC   =     -1162.90199874
  -exchange      EXHF   =         0.00000000
  -V(xc)+E(xc)   XCENC  =      -290.83365687
  PAW double counting   =     16868.22512230   -15855.81833293
  entropy T*S    EENTRO =        -0.00000000
  eigenvalues    EBANDS =      -799.13699489
  atomic energy  EATOM  =     13036.45147835
  Solvation  Ediel_sol  =         0.00000000
  ---------------------------------------------------
  free energy    TOTEN  =      -300.22046665 eV

  energy without entropy =     -300.22046665  energy(sigma->0) =     -300.22046665


--------------------------------------------------------------------------------------------------------




 average (electrostatic) potential at core
  the test charge radii are     1.1631  1.0808
  (the norm of the test charge is              1.0000)
       1 -33.3683       2 -33.4750       3 -33.5076       4 -33.2124       5 -33.5321
       6 -33.4468       7 -33.5436       8 -33.5560       9 -33.3667      10 -33.5546
      11 -33.4604      12 -33.6414      13 -33.5036      14 -33.4778      15 -33.5675
      16 -33.3441      17 -33.3800      18 -33.5613      19 -33.4741      20 -33.5612
      21 -33.5935      22 -33.6766      23 -33.5726      24 -33.3405      25 -33.1860
      26 -33.6131      27 -33.7912      28 -33.5623      29 -33.7290      30 -33.4714
      31 -33.2669      32 -33.4102      33 -33.5049      34 -33.5591      35 -33.5023
      36 -33.5818      37 -54.7659      38 -54.7217      39 -54.6397      40 -54.9091
      41 -54.7994      42 -54.9671      43 -55.0527      44 -54.9853      45 -54.8058
      46 -54.8257      47 -54.7867      48 -54.8661      49 -54.8201      50 -54.6489
      51 -54.5191      52 -54.6465      53 -55.0865      54 -54.8036      55 -54.9018
      56 -54.7193      57 -54.9327      58 -54.8939      59 -54.8742      60 -55.0067
      61 -54.7203      62 -54.6506      63 -54.9169      64 -54.9766      65 -54.8607
      66 -54.6763      67 -54.7328      68 -54.7373      69 -54.8353      70 -54.8719
      71 -55.0131      72 -54.9027
 
 
 
 E-fermi :   3.5124     XC(G=0):  -9.3834     alpha+bet : -8.8181

 Fermi energy:         3.5123977291

 spin component 1

 k-point     1 :       0.0000    0.0000    0.0000
  band No.  band energies     occupation 
      1     -10.8531      1.00000
      2     -10.5081      1.00000
      3     -10.3576      1.00000
      4     -10.3271      1.00000
      5     -10.2759      1.00000
      6     -10.1921      1.00000
      7     -10.0675      1.00000
      8     -10.0148      1.00000
      9      -9.9573      1.00000
     10      -9.8951      1.00000
     11      -9.8738      1.00000
     12      -9.8412      1.00000
     13      -9.7860      1.00000
     14      -9.7308      1.00000
     15      -9.6671      1.00000
     16      -9.6174      1.00000
     17      -9.5990      1.00000
     18      -9.5565      1.00000
     19      -9.5387      1.00000
     20      -9.4786      1.00000
     21      -9.4418      1.00000
     22      -9.3690      1.00000
     23      -9.2992      1.00000
     24      -9.2712      1.00000
     25      -9.2427      1.00000
     26      -9.2158      1.00000
     27      -9.1988      1.00000
     28      -9.1632      1.00000
     29      -9.1132      1.00000
     30      -9.1003      1.00000
     31      -9.0630      1.00000
     32      -8.9931      1.00000
     33      -8.9783      1.00000
     34      -8.9244      1.00000
     35      -8.8592      1.00000
     36      -8.8129      1.00000
     37      -5.4424      1.00000
     38      -5.3792      1.00000
     39      -5.2708      1.00000
     40      -5.2081      1.00000
     41      -5.0529      1.00000
     42      -5.0299      1.00000
     43      -5.0188      1.00000
     44      -4.9434      1.00000
     45      -4.7918      1.00000
     46      -4.6950      1.00000
     47      -4.5825      1.00000
     48      -4.5366      1.00000
     49      -4.4856      1.00000
     50      -4.4561      1.00000
     51      -4.4220      1.00000
     52      -4.3814      1.00000
     53      -4.3768      1.00000
     54      -4.3368      1.00000
     55      -4.3114      1.00000
     56      -4.2730      1.00000
     57      -4.2088      1.00000
     58      -4.1903      1.00000
     59      -4.1801      1.00000
     60      -4.1224      1.00000
     61      -4.1102      1.00000
     62      -4.0415      1.00000
     63      -4.0064      1.00000
     64      -3.9511      1.00000
     65      -3.9094      1.00000
     66      -3.7588      1.00000
     67      -3.7286      1.00000
     68      -3.6873      1.00000
     69      -3.5339      1.00000
     70      -3.5080      1.00000
     71      -2.4835      1.00000
     72      -2.4282      1.00000
     73      -1.8436      1.00000
     74      -1.5789      1.00000
     75      -1.5588      1.00000
     76      -1.4977      1.00000
     77      -1.4382      1.00000
     78      -1.4129      1.00000
     79      -1.4041      1.00000
     80      -1.2675      1.00000
     81      -1.1990      1.00000
     82      -1.1329      1.00000
     83      -1.1022      1.00000
     84      -1.0829      1.00000
     85      -1.0117      1.00000
     86      -0.8086      1.00000
     87      -0.7659      1.00000
     88      -0.7457      1.00000
     89      -0.7267      1.00000
     90      -0.5846      1.00000
     91      -0.5310      1.00000
     92      -0.4835      1.00000
     93      -0.4689      1.00000
     94      -0.3057      1.00000
     95      -0.1560      1.00000
     96      -0.1138      1.00000
     97      -0.0432      1.00000
     98       0.0122      1.00000
     99       0.0619      1.00000
    100       0.0806      1.00000
    101       0.1369      1.00000
    102       0.1499      1.00000
    103       0.2095      1.00000
    104       0.2639      1.00000
    105       0.2872      1.00000
    106       0.3247      1.00000
    107       0.3425      1.00000
    108       0.3746      1.00000
    109       0.4234      1.00000
    110       0.4531      1.00000
    111       0.4848      1.00000
    112       0.5746      1.00000
    113       0.5956      1.00000
    114       0.6095      1.00000
    115       0.6532      1.00000
    116       0.7007      1.00000
    117       0.7328      1.00000
    118       0.7504      1.00000
    119       0.7785      1.00000
    120       0.7974      1.00000
    121       0.8279      1.00000
    122       0.8515      1.00000
    123       0.8904      1.00000
    124       0.9269      1.00000
    125       0.9636      1.00000
    126       1.0188      1.00000
    127       1.0631      1.00000
    128       1.1063      1.00000
    129       1.1262      1.00000
    130       1.1505      1.00000
    131       1.1929      1.00000
    132       1.2316      1.00000
    133       1.2907      1.00000
    134       1.3061      1.00000
    135       1.3513      1.00000
    136       1.3663      1.00000
    137       1.4267      1.00000
    138       1.4416      1.00000
    139       1.5207      1.00000
    140       1.5297      1.00000
    141       1.5663      1.00000
    142       1.6296      1.00000
    143       1.6747      1.00000
    144       1.7238      1.00000
    145       1.7670      1.00000
    146       1.7832      1.00000
    147       1.8119      1.00000
    148       1.8462      1.00000
    149       1.8896      1.00000
[...]
   -.110E+02 -.138E+02 -.254E+02   0.119E+02 0.162E+02 0.279E+02   -.208E+00 -.190E+01 -.259E+01   -.180E-04 0.671E-04 -.290E-03
   0.304E+01 0.125E+02 0.194E+02   -.330E+01 -.147E+02 -.218E+02   -.117E+00 0.223E+01 0.277E+01   0.271E-05 0.219E-03 0.188E-03
   -.556E+01 0.143E+02 0.245E+02   0.563E+01 -.152E+02 -.257E+02   -.159E+00 0.148E+01 0.135E+01   0.229E-03 0.134E-03 -.389E-03
   0.154E+02 0.716E+01 0.148E+02   -.163E+02 -.835E+01 -.160E+02   0.140E+00 0.661E+00 0.142E+01   -.460E-04 0.240E-03 -.284E-03
   -.156E+01 0.756E+01 0.292E+02   0.208E+01 -.837E+01 -.309E+02   -.654E+00 0.539E+00 0.184E+01   -.826E-04 -.640E-04 -.668E-04
   0.283E+01 0.744E+01 0.223E+02   -.301E+01 -.783E+01 -.241E+02   0.717E-01 0.429E+00 0.192E+01   -.140E-03 -.183E-03 -.186E-03
   0.447E+01 -.498E+01 0.131E+02   -.444E+01 0.454E+01 -.147E+02   -.124E+00 0.585E+00 0.231E+01   0.624E-04 0.461E-03 -.156E-04
   0.702E+01 0.250E+02 0.145E+02   -.694E+01 -.266E+02 -.163E+02   -.311E+00 0.104E+01 0.178E+01   -.273E-03 -.343E-03 -.102E-03
   -.137E+02 -.668E+01 0.348E+02   0.141E+02 0.630E+01 -.369E+02   -.363E-01 0.558E+00 0.243E+01   -.638E-04 0.883E-04 -.210E-03
   0.117E+02 0.978E+01 -.222E+02   -.130E+02 -.103E+02 0.238E+02   0.140E+01 -.301E-01 -.175E+01   0.448E-03 0.694E-05 0.782E-04
   -.528E+01 -.379E+01 -.230E+02   0.580E+01 0.489E+01 0.249E+02   -.387E+00 -.859E+00 -.203E+01   -.114E-03 -.584E-04 -.163E-03
   0.158E+02 0.621E+01 -.262E+02   -.172E+02 -.624E+01 0.279E+02   0.121E+01 0.921E-01 -.170E+01   0.475E-04 0.828E-04 0.108E-03
   -.842E+01 -.235E+02 -.366E+02   0.855E+01 0.252E+02 0.380E+02   -.258E+00 -.132E+01 -.109E+01   0.366E-03 0.136E-03 0.482E-03
   0.250E+01 -.487E+01 -.183E+02   -.224E+01 0.546E+01 0.200E+02   -.307E+00 -.793E+00 -.229E+01   -.232E-03 -.280E-03 -.319E-03
   0.293E+01 -.377E+01 -.978E+01   -.288E+01 0.426E+01 0.113E+02   0.203E+00 -.116E+01 -.167E+01   -.495E-04 0.395E-03 -.601E-03
   0.293E+02 0.684E+01 -.233E+02   -.306E+02 -.748E+01 0.245E+02   0.128E+01 0.701E+00 -.171E+01   -.342E-04 -.314E-03 0.777E-04
   -.887E+01 0.104E+02 0.206E+02   0.906E+01 -.110E+02 -.222E+02   0.211E+00 0.613E+00 0.224E+01   -.161E-03 -.117E-03 0.128E-03
   -.139E+02 0.829E+01 0.373E+02   0.140E+02 -.868E+01 -.391E+02   0.111E+00 0.538E+00 0.153E+01   0.234E-03 -.854E-04 -.216E-03
   -.543E+01 -.139E+02 0.111E+02   0.534E+01 0.151E+02 -.125E+02   -.118E-01 -.940E+00 0.162E+01   0.883E-04 0.127E-04 0.202E-03
   -.245E+01 -.156E+02 0.255E+02   0.251E+01 0.170E+02 -.268E+02   -.314E+00 -.130E+01 0.162E+01   0.702E-04 -.755E-04 0.101E-03
   0.134E+01 -.786E+01 0.196E+02   -.197E+01 0.802E+01 -.213E+02   0.358E+00 0.324E+00 0.190E+01   0.246E-03 -.190E-03 0.427E-03
   -.108E+02 -.184E+02 -.102E+02   0.109E+02 0.195E+02 0.114E+02   0.452E+00 -.133E+01 -.197E+01   0.234E-03 0.177E-03 0.198E-03
   -.581E+01 0.412E+01 -.341E+02   0.553E+01 -.520E+01 0.361E+02   0.135E+00 0.131E+01 -.118E+01   -.127E-03 -.181E-03 -.134E-03
   0.378E+01 0.159E+01 -.314E+02   -.441E+01 -.185E+01 0.335E+02   0.889E+00 0.466E+00 -.121E+01   -.354E-04 0.366E-03 -.105E-03
   0.344E+00 0.154E+02 -.168E+02   -.591E+00 -.167E+02 0.182E+02   -.381E+00 0.112E+01 -.142E+01   0.357E-03 -.151E-03 -.260E-04
   0.178E+02 0.360E+01 -.299E+02   -.185E+02 -.417E+01 0.316E+02   0.381E+00 0.409E+00 -.217E+01   -.159E-03 0.132E-03 0.164E-03
   -.195E+01 0.123E+01 -.184E+02   0.185E+01 -.202E+01 0.193E+02   0.467E+00 0.106E+01 -.121E+01   0.745E-04 0.305E-03 0.112E-03
   0.197E+01 0.169E+02 -.169E+02   -.219E+01 -.179E+02 0.185E+02   0.632E+00 0.759E+00 -.217E+01   -.328E-03 -.334E-03 0.205E-04
   0.799E+01 0.148E+02 -.324E+02   -.851E+01 -.161E+02 0.341E+02   0.106E+00 0.484E+00 -.200E+01   0.349E-03 0.277E-03 -.894E-04
   0.493E+01 0.681E+01 -.276E+02   -.509E+01 -.766E+01 0.299E+02   0.193E+00 0.938E+00 -.179E+01   0.912E-04 0.675E-04 -.198E-03
   0.213E+02 -.677E+00 -.282E+02   -.224E+02 0.554E+00 0.298E+02   0.993E+00 0.298E+00 -.119E+01   0.906E-04 -.338E-03 0.180E-03
   0.131E+02 -.184E+01 0.274E+02   -.139E+02 0.234E+01 -.291E+02   0.560E+00 -.487E+00 0.177E+01   0.361E-03 -.226E-03 0.262E-03
   0.379E+01 -.745E+01 0.117E+02   -.391E+01 0.850E+01 -.135E+02   0.506E-01 -.103E+01 0.232E+01   0.608E-04 0.163E-03 0.556E-04
   0.592E+01 -.178E+02 0.237E+02   -.609E+01 0.193E+02 -.254E+02   0.855E-01 -.908E+00 0.194E+01   -.381E-03 0.168E-03 0.101E-03
   -.559E+01 -.473E+01 0.340E+02   0.622E+01 0.578E+01 -.360E+02   -.137E-02 -.826E+00 0.141E+01   -.531E-03 -.804E-04 0.313E-03
   0.102E+02 -.947E+01 0.329E+02   -.107E+02 0.101E+02 -.346E+02   0.748E+00 -.203E+00 0.174E+01   -.822E-04 -.211E-03 0.161E-04
   0.377E+01 -.347E+01 0.254E+02   -.402E+01 0.451E+01 -.270E+02   -.437E-01 -.136E+01 0.114E+01   0.842E-04 0.143E-03 -.143E-04
   -.225E+02 -.539E+01 -.247E+02   0.234E+02 0.631E+01 0.263E+02   -.613E-01 -.793E+00 -.225E+01   -.182E-03 -.211E-03 0.347E-04
 -----------------------------------------------------------------------------------------------
   0.664E+01 0.149E+01 -.117E-01   0.131E-12 -.409E-13 -.711E-14   -.664E+01 -.149E+01 0.115E-01   0.836E-04 -.813E-04 0.554E-05
 
 
 POSITION                                       TOTAL-FORCE (eV/Angst)
 -----------------------------------------------------------------------------------
      0.84600      0.65571      1.51909         0.488111     -0.291577     -0.135382
      3.07316     10.93255      4.00727        -0.275650     -0.173540     -0.204250
      6.77267      2.56741      4.15610         0.180056      0.348664     -0.271421
      7.27709      6.90724      4.07333        -0.593833     -0.273190      0.571635
      7.01759     10.67078      4.12737        -0.344943      0.027297     -0.238189
     10.80342      2.41808      4.06798         0.124046      0.384845     -0.085322
     11.28200      6.71170      4.18146        -0.107212      0.215232      0.223836
     11.24582     11.03905      4.07294         0.014075      0.000636      0.058719
      0.63063      2.16750      6.96552         0.307452     -0.748569     -0.616627
      0.81139      6.17753      7.07801         0.010401     -0.079488     -0.797708
      1.01680     10.28213      6.90640        -0.093511     -0.068966      0.182785
      4.99393      1.88991      7.06007        -0.329532     -0.032466      0.150922
      4.93679      6.12508      6.66162         0.358103      0.002150      0.451633
      5.40108     10.36833      7.03576        -0.751955      0.311911      0.465255
      9.27168      2.01924      6.98351        -0.038110     -0.329454      0.338147
      9.14662      5.94870      7.17388        -0.325143      0.373858     -0.791130
      2.77338      6.69121      3.93430        -0.025935     -0.106520     -0.057872
      2.77215      2.68881      4.27338         0.370570      0.296435     -0.417013
      9.22541     10.45269      6.92927         0.372757     -0.142219     -0.004255
     10.93777      8.31473      9.75234         0.012256     -0.118623     -0.321615
     11.24331     12.34977      9.85897         0.183505     -0.283292     -0.546354
      0.68107      4.70475      1.39408         0.117028     -0.252107      0.239983
      0.70734      8.88630      1.10806         0.545655      0.002019      0.160501
      4.86462      0.56574      1.71814         0.065782     -0.488350     -0.151876
      5.19542      4.94354      1.54683        -0.517977     -0.588087     -0.204087
      9.05370      0.31823      1.45009        -0.334045      0.090104      0.155047
      9.18469      4.49801      1.30248        -0.305848      0.419749      0.864338
      5.04490      8.94602      1.24008        -0.337260     -0.163330      0.506553
      2.84416      4.01662      9.80150         0.020038      0.144493     -0.457946
      2.76957      8.04418      9.60094         0.291703      0.110281     -0.242332
      2.72136     12.42888      9.56657         0.469056      0.310671     -0.350965
      6.79145      3.97366      9.46324         0.375641      0.618728     -0.108802
      6.95464      8.15068      9.59214        -0.139574     -0.087035      0.334986
      7.03924      0.11921      9.61550        -0.291922     -0.353818     -0.002357
     11.07646      3.96767      9.56269         0.662901      0.508006     -0.082050
      9.29865      8.86359      1.46191        -0.378480      0.021439      0.415541
     11.26862      0.17873      7.22639        -0.094851      0.605374      0.158375
      3.16200      4.43701      7.16673        -0.721905     -0.531496      0.159608
      3.11850      8.71720      7.08388        -0.135170     -0.275629      0.135719
      7.22984      0.24330      7.08231        -0.116094      0.041174      0.127426
      7.05988      4.26758      6.86338        -0.090487      0.141458      0.728137
      7.30515      8.72634      7.13777        -0.227679     -0.590680     -0.052054
     11.13886      4.33029      6.97467         0.310455      0.173201      0.332823
      9.26761      0.35993      4.01000         0.146793     -0.546844     -0.185863
      0.88105      0.08897      3.99430         0.131896      0.240111     -0.075000
      1.03917      4.56060      3.92701        -0.170524      0.065277     -0.086526
      0.81949      8.34934      3.64116        -0.119134      0.381268      0.380859
      5.02277      0.14547      4.26488        -0.042349     -0.209392     -0.515767
      4.87877      4.51031      4.06697         0.251069     -0.673110     -0.105657
      5.23179      8.68613      3.96837        -0.013050      0.052339     -0.478055
      2.68234      0.31467      6.93115         0.397563      0.052965      0.629598
     11.22764      8.49740      7.23443         0.233240      0.147499     -0.178025
     11.25884     10.59310      1.48901        -0.109367      0.259784      0.228238
      2.95238      2.28813      1.66217        -0.246947      0.119246      0.309983
     11.33949      2.31925      1.50776        -0.262715      0.481321      0.196972
      8.84850      4.23102      4.00668         0.532723     -0.176063     -0.722211
      0.88333      2.31903      9.39111        -0.147572      0.232564      0.790541
      0.78997      6.30935      9.46338         0.258664      0.203634      0.831737
      0.98739     10.62234      9.46645        -0.627844     -0.145826     -0.068253
      5.05421      2.17215      9.67860        -0.326042     -0.158904     -0.471414
      4.94987      6.41307      9.39733         0.370767      0.263353     -0.344539
      4.98962     10.92525      9.64639         0.408702     -0.231764     -0.643048
      9.11594      2.49612      9.54438        -0.404009     -0.854692     -0.266537
      9.03757      6.43000      9.60998         0.039814      0.081876      0.470145
      9.36425     10.58330      9.44506        -0.175804      0.174387      0.426728
      3.24123      6.62055      1.44094        -0.190240      0.015828      0.044414
      2.95009     10.57621      1.37284        -0.067136      0.010902      0.548399
      7.09186      1.99032      1.56022        -0.082475      0.593049      0.189115
      7.16109      6.46081      1.63551         0.629640      0.223260     -0.572007
      7.26094     10.56867      1.56439         0.309227      0.428381      0.108112
     11.14771      6.37986      1.70160        -0.295564     -0.325999     -0.445264
      9.13196      8.57855      4.11767         0.868197      0.126261     -0.619037
 -----------------------------------------------------------------------------------
    total drift:                               -0.000534     -0.000406     -0.000111


--------------------------------------------------------------------------------------------------------



  FREE ENERGIE OF THE ION-ELECTRON SYSTEM (eV)
  ---------------------------------------------------
  free  energy   TOTEN  =      -300.22046665 eV

  energy  without entropy=     -300.22046665  energy(sigma->0) =     -300.22046665
 


--------------------------------------------------------------------------------------------------------


    POTLOK:  cpu time      0.7325: real time      0.7353


--------------------------------------------------------------------------------------------------------


     LOOP+:  cpu time    182.2608: real time    183.2721
    4ORBIT:  cpu time      0.0000: real time      0.0000



 total charge

# of ion       s       p       d       tot
------------------------------------------
    1        1.309   0.801   0.058   2.168
    2        1.333   0.728   0.048   2.109
    3        1.332   0.729   0.052   2.113
    4        1.312   0.820   0.064   2.196
    5        1.324   0.743   0.055   2.122
    6        1.319   0.772   0.054   2.145
    7        1.328   0.752   0.054   2.134
    8        1.328   0.751   0.052   2.130
    9        1.316   0.787   0.061   2.164
   10        1.325   0.761   0.055   2.141
   11        1.328   0.731   0.050   2.109
   12        1.340   0.698   0.047   2.085
   13        1.335   0.720   0.053   2.108
   14        1.325   0.749   0.052   2.127
   15        1.326   0.741   0.055   2.122
   16        1.319   0.798   0.058   2.175
   17        1.318   0.773   0.059   2.149
   18        1.333   0.725   0.051   2.108
   19        1.325   0.759   0.061   2.144
   20        1.313   0.760   0.054   2.128
   21        1.331   0.722   0.050   2.103
   22        1.328   0.733   0.050   2.111
   23        1.324   0.748   0.054   2.127
   24        1.326   0.775   0.055   2.156
   25        1.306   0.828   0.061   2.194
   26        1.326   0.746   0.055   2.126
   27        1.342   0.675   0.043   2.061
   28        1.339   0.697   0.049   2.085
   29        1.341   0.693   0.047   2.082
   30        1.326   0.742   0.050   2.118
   31        1.321   0.772   0.056   2.149
   32        1.324   0.771   0.055   2.150
   33        1.324   0.757   0.051   2.132
   34        1.330   0.737   0.052   2.118
   35        1.314   0.795   0.061   2.170
   36        1.322   0.755   0.054   2.131
   37        1.476   2.283   0.028   3.787
   38        1.473   2.298   0.028   3.798
   39        1.477   2.277   0.025   3.780
   40        1.479   2.288   0.032   3.800
   41        1.482   2.264   0.030   3.776
   42        1.476   2.324   0.036   3.836
   43        1.484   2.284   0.037   3.805
   44        1.478   2.301   0.034   3.813
   45        1.477   2.298   0.031   3.806
   46        1.474   2.308   0.031   3.813
   47        1.473   2.315   0.030   3.818
   48        1.483   2.278   0.033   3.794
   49        1.477   2.284   0.031   3.791
   50        1.478   2.276   0.027   3.780
   51        1.480   2.265   0.025   3.770
   52        1.477   2.278   0.026   3.780
   53        1.476   2.310   0.035   3.821
   54        1.476   2.295   0.029   3.800
   55        1.477   2.292   0.030   3.799
   56        1.480   2.272   0.028   3.781
   57        1.477   2.316   0.035   3.827
   58        1.478   2.313   0.035   3.826
   59        1.476   2.306   0.033   3.815
   60        1.480   2.289   0.034   3.804
   61        1.479   2.275   0.026   3.780
   62        1.479   2.265   0.025   3.770
   63        1.477   2.313   0.035   3.825
   64        1.477   2.297   0.033   3.808
   65        1.474   2.306   0.031   3.812
   66        1.476   2.297   0.030   3.803
   67        1.481   2.262   0.027   3.770
   68        1.477   2.296   0.029   3.801
   69        1.474   2.326   0.035   3.835
   70        1.477   2.291   0.030   3.798
   71        1.476   2.308   0.033   3.818
   72        1.479   2.293   0.033   3.804
--------------------------------------------------
tot        100.901 109.588   3.047 213.537



 magnetization (x)

# of ion       s       p       d       tot
------------------------------------------
    1       -0.000   0.000   0.000   0.000
    2       -0.000  -0.000  -0.000  -0.000
    3       -0.000   0.000   0.000   0.000
    4       -0.000   0.000   0.000   0.000
    5       -0.000   0.000  -0.000   0.000
    6       -0.000   0.000   0.000   0.000
    7       -0.000   0.000   0.000   0.000
    8       -0.000   0.000   0.000   0.000
    9       -0.000   0.000   0.000   0.000
   10       -0.000   0.000  -0.000  -0.000
   11       -0.000   0.000  -0.000  -0.000
   12       -0.000  -0.000  -0.000  -0.000
   13       -0.000  -0.000  -0.000  -0.000
   14        0.000  -0.000  -0.000  -0.000
   15       -0.000   0.000   0.000   0.000
   16       -0.000   0.000   0.000   0.000
   17       -0.000  -0.000  -0.000  -0.000
   18       -0.000  -0.000  -0.000  -0.000
   19       -0.000   0.000   0.000   0.000
   20       -0.000   0.000   0.000   0.000
   21       -0.000   0.000   0.000   0.000
   22       -0.000   0.000   0.000   0.000
   23       -0.000   0.000   0.000   0.000
   24       -0.000   0.000  -0.000  -0.000
   25       -0.000   0.000  -0.000   0.000
   26       -0.000   0.000   0.000   0.000
   27       -0.000   0.000   0.000   0.000
   28       -0.000   0.000  -0.000  -0.000
   29       -0.000   0.000   0.000   0.000
   30       -0.000  -0.000  -0.000  -0.000
   31       -0.000   0.000  -0.000   0.000
   32       -0.000   0.000   0.000   0.000
   33       -0.000   0.000  -0.000  -0.000
   34       -0.000   0.000   0.000   0.000
   35       -0.000   0.000   0.000   0.000
   36       -0.000   0.000   0.000   0.000
   37       -0.000  -0.000   0.000  -0.000
   38       -0.000  -0.000  -0.000  -0.000
   39       -0.000  -0.000  -0.000  -0.000
   40       -0.000  -0.000   0.000  -0.000
   41       -0.000  -0.000   0.000  -0.000
   42       -0.000  -0.000  -0.000  -0.000
   43       -0.000  -0.000   0.000  -0.000
   44       -0.000  -0.000   0.000  -0.000
   45       -0.000  -0.000   0.000  -0.000
   46       -0.000  -0.000   0.000  -0.000
   47       -0.000  -0.000  -0.000  -0.000
   48       -0.000  -0.000  -0.000  -0.000
   49       -0.000  -0.000  -0.000  -0.000
   50       -0.000  -0.000  -0.000  -0.000
   51       -0.000  -0.000  -0.000  -0.000
   52       -0.000  -0.000   0.000  -0.000
   53       -0.000  -0.000   0.000  -0.000
   54       -0.000  -0.000   0.000  -0.000
   55       -0.000  -0.000   0.000  -0.000
   56       -0.000  -0.000   0.000  -0.000
   57       -0.000  -0.000   0.000  -0.000
   58       -0.000  -0.000   0.000  -0.000
   59       -0.000  -0.000   0.000  -0.000
   60       -0.000  -0.000  -0.000  -0.000
   61       -0.000  -0.000  -0.000  -0.000
   62       -0.000  -0.000  -0.000  -0.000
   63       -0.000  -0.000   0.000  -0.000
   64       -0.000  -0.000   0.000  -0.000
   65       -0.000  -0.000   0.000  -0.000
   66       -0.000  -0.000  -0.000  -0.000
   67       -0.000  -0.000  -0.000  -0.000
   68       -0.000  -0.000   0.000  -0.000
   69       -0.000  -0.000   0.000  -0.000
   70       -0.000  -0.000   0.000  -0.000
   71       -0.000  -0.000   0.000  -0.000
   72       -0.000  -0.000   0.000  -0.000
--------------------------------------------------
tot         -0.000  -0.000   0.000  -0.000
 

 total amount of memory used by VASP MPI-rank0   110925. kBytes
=======================================================================

   base      :      30000. kBytes
   nonl-proj :      16400. kBytes
   fftplans  :       6180. kBytes
   grid      :      15593. kBytes
   one-center:        146. kBytes
   wavefun   :      42606. kBytes
 
  
  
 General timing and accounting informations for this job:
 ========================================================
  
                  Total CPU time used (sec):      193.988
                            User time (sec):      187.683
                          System time (sec):        6.305
                         Elapsed time (sec):      196.243
  
                   Maximum memory used (kb):      312088.
                   Average memory used (kb):          N/A
  
                          Minor page faults:       105313
                          Major page faults:           41
                 Voluntary context switches:         3951
