 running  160 mpi-ranks, with    1 threads/rank, on   10 nodes
 distrk:  each k-point on   80 cores,    2 groups
 distr:  one band on    5 cores,   16 groups
 vasp.6.4.2 20Jul23 (build Oct 12 2023 10:31:02) complex                         
 POSCAR found type information on POSCAR GeSe
 POSCAR found :  2 types and       8 ions
 Reading from existing POTCAR
 scaLAPACK will be used
 Reading from existing POTCAR
 LDA part: xc-table for Pade appr. of Perdew
 POSCAR, INCAR and KPOINTS ok, starting setup
 FFT: planning ... GRIDC
 FFT: planning ... GRID_SOFT
 FFT: planning ... GRID
 WAVECAR not read
 entering main loop
       N       E                     dE             d eps       ncg     rms          rms(c)
DAV:   1     0.130705801531E+03    0.13071E+03   -0.13003E+04  2560   0.779E+02
DAV:   2    -0.252430496936E+02   -0.15595E+03   -0.15152E+03  3728   0.141E+02
DAV:   3    -0.335549912814E+02   -0.83119E+01   -0.82957E+01  3264   0.375E+01
DAV:   4    -0.336068043123E+02   -0.51813E-01   -0.51807E-01  3328   0.339E+00
DAV:   5    -0.336070989308E+02   -0.29462E-03   -0.29462E-03  3232   0.248E-01    0.679E+00
DAV:   6    -0.332840778062E+02    0.32302E+00   -0.63942E-01  3216   0.269E+00    0.428E+00
DAV:   7    -0.332635851012E+02    0.20493E-01   -0.20864E-01  2960   0.167E+00    0.117E+00
DAV:   8    -0.332624156938E+02    0.11694E-02   -0.17142E-02  3104   0.513E-01    0.179E-01
DAV:   9    -0.332626468188E+02   -0.23112E-03   -0.30147E-03  3120   0.238E-01    0.611E-02
DAV:  10    -0.332627160128E+02   -0.69194E-04   -0.21816E-04  3312   0.601E-02    0.227E-02
DAV:  11    -0.332627413881E+02   -0.25375E-04   -0.33693E-05  2832   0.268E-02    0.110E-02
DAV:  12    -0.332627419765E+02   -0.58841E-06   -0.46131E-06  3600   0.962E-03
   1 F= -.33262742E+02 E0= -.33262635E+02  d E =-.214776E-03
