 vasp.6.4.2 20Jul23 (build Oct 12 2023 10:31:02) complex                         
 executed on              LinuxNV date 2025.05.28  23:50:28
 running  128 mpi-ranks, with    1 threads/rank, on    2 nodes
 distrk:  each k-point on   64 cores,    2 groups
 distr:  one band on NCORE=   4 cores,   16 groups


--------------------------------------------------------------------------------------------------------


 INCAR:
   ENCUT = 360.000000
   SIGMA = 0.050000
   EDIFF = 1.00e-06
   ALGO = Normal
   GGA = PE
   PREC = Normal
   SYSTEM = ./
   ICHARG = 2
   ISMEAR = 0
   ISPIN = 1
   ISTART = 0
   ISYM = 0
   KPAR = 2
   LMAXMIX = 4
   NELM = 100
   NPAR = 16
   LASPH = .TRUE.
   LCHARG = .FALSE.
   LWAVE = .FALSE.

 POTCAR:    PAW_PBE Ge 05Jan2001                  
 POTCAR:    PAW_PBE Se 06Sep2000                  
 POTCAR:    PAW_PBE Ge 05Jan2001                  
   VRHFIN =Ge: s2p2                                                                                 
   LEXCH  = PE                                                                                      
   EATOM  =   104.9960 eV,    7.7170 Ry                                                             
                                                                                                    
   TITEL  = PAW_PBE Ge 05Jan2001                                                                    
   LULTRA =        F    use ultrasoft PP ?                                                          
   IUNSCR =        1    unscreen: 0-lin 1-nonlin 2-no                                               
   RPACOR =    2.170    partial core radius                                                         
   POMASS =   72.610; ZVAL   =    4.000    mass and valenz                                          
   RCORE  =    2.300    outmost cutoff radius                                                       
   RWIGS  =    2.300; RWIGS  =    1.217    wigner-seitz radius (au A)                               
   ENMAX  =  173.807; ENMIN  =  130.355 eV                                                          
   ICORE  =        3    local potential                                                             
   LCOR   =        T    correct aug charges                                                         
   LPAW   =        T    paw PP                                                                      
   EAUG   =  385.843                                                                                
   DEXC   =    0.000                                                                                
   RMAX   =    2.342    core radius for proj-oper                                                   
   RAUG   =    1.300    factor for augmentation sphere                                              
   RDEP   =    2.318    radius for radial grids                                                     
   RDEPT  =    2.103    core radius for aug-charge                                                  
                                                                                                    
   Atomic configuration                                                                             
   10 entries                                                                                       
     n  l   j            E        occ.                                                              
     1  0  0.50    -10959.8463   2.0000                                                             
     2  0  0.50     -1371.6056   2.0000                                                             
     2  1  1.50     -1198.4791   6.0000                                                             
     3  0  0.50      -168.4733   2.0000                                                             
     3  1  1.50      -115.6019   6.0000                                                             
     3  2  2.50       -29.3106  10.0000                                                             
     4  0  0.50       -11.7309   2.0000                                                             
     4  1  0.50        -3.8952   2.0000                                                             
     4  2  1.50        -4.0817   0.0000                                                             
     4  3  2.50        -4.0817   0.0000                                                             
   Description                                                                                      
     l       E           TYP  RCUT    TYP  RCUT                                                     
     0    -11.7309493     23  2.300                                                                 
     0     -7.4578696     23  2.300                                                                 
     1     -3.8952261     23  2.300                                                                 
     1      6.1178114     23  2.300                                                                 
     2     -4.0817478     23  2.300                                                                 
     3     -1.3605826      7  2.300                                                                 
  local pseudopotential read in
  partial core-charges read in
  partial kinetic energy density read in
  atomic valenz-charges read in
  non local Contribution for L=            0  read in
    real space projection operators read in
  non local Contribution for L=            0  read in
    real space projection operators read in
  non local Contribution for L=            1  read in
    real space projection operators read in
  non local Contribution for L=            1  read in
    real space projection operators read in
  non local Contribution for L=            2  read in
    real space projection operators read in
    PAW grid and wavefunctions read in
 
   number of l-projection  operators is LMAX  =            5
   number of lm-projection operators is LMMAX =           13
 
 POTCAR:    PAW_PBE Se 06Sep2000                  
   VRHFIN =Se: s2p4                                                                                 
   LEXCH  = PE                                                                                      
   EATOM  =   257.1286 eV,   18.8984 Ry                                                             
                                                                                                    
   TITEL  = PAW_PBE Se 06Sep2000                                                                    
   LULTRA =        F    use ultrasoft PP ?                                                          
   IUNSCR =        1    unscreen: 0-lin 1-nonlin 2-no                                               
   RPACOR =    1.900    partial core radius                                                         
   POMASS =   78.960; ZVAL   =    6.000    mass and valenz                                          
   RCORE  =    2.100    outmost cutoff radius                                                       
   RWIGS  =    2.200; RWIGS  =    1.164    wigner-seitz radius (au A)                               
   ENMAX  =  211.555; ENMIN  =  158.666 eV                                                          
   ICORE  =        3    local potential                                                             
   LCOR   =        T    correct aug charges                                                         
   LPAW   =        T    paw PP                                                                      
   EAUG   =  446.842                                                                                
   DEXC   =    0.000                                                                                
   RMAX   =    2.147    core radius for proj-oper                                                   
   RAUG   =    1.300    factor for augmentation sphere                                              
   RDEP   =    2.177    radius for radial grids                                                     
   RDEPT  =    1.928    core radius for aug-charge                                                  
                                                                                                    
   Atomic configuration                                                                             
   10 entries                                                                                       
     n  l   j            E        occ.                                                              
     1  0  0.50    -12503.4787   2.0000                                                             
     2  0  0.50     -1606.9547   2.0000                                                             
     2  1  1.50     -1413.3140   6.0000                                                             
     3  0  0.50      -213.4885   2.0000                                                             
     3  1  1.50      -152.9538   6.0000                                                             
     3  2  2.50       -53.1221  10.0000                                                             
     4  0  0.50       -17.2865   2.0000                                                             
     4  1  0.50        -6.5110   4.0000                                                             
     4  2  2.50        -6.8029   0.0000                                                             
     4  3  2.50        -6.8029   0.0000                                                             
   Description                                                                                      
     l       E           TYP  RCUT    TYP  RCUT                                                     
     0    -17.2865377     23  2.100                                                                 
     0    -15.3094411     23  2.100                                                                 
     1     -6.5110275     23  2.100                                                                 
     1     -0.0695192     23  2.100                                                                 
     2     -6.8029130     23  2.100                                                                 
     3     -1.3605826      7  2.100                                                                 
  local pseudopotential read in
  partial core-charges read in
  partial kinetic energy density read in
  atomic valenz-charges read in
  non local Contribution for L=            0  read in
    real space projection operators read in
  non local Contribution for L=            0  read in
    real space projection operators read in
  non local Contribution for L=            1  read in
    real space projection operators read in
  non local Contribution for L=            1  read in
    real space projection operators read in
  non local Contribution for L=            2  read in
    real space projection operators read in
    PAW grid and wavefunctions read in
 
   number of l-projection  operators is LMAX  =            5
   number of lm-projection operators is LMMAX =           13
 
  PAW_PBE Ge 05Jan2001                  :
 energy of atom  1       EATOM= -104.9960
 kinetic energy error for atom=    0.0005 (will be added to EATOM!!)
  PAW_PBE Se 06Sep2000                  :
 energy of atom  2       EATOM= -257.1286
 kinetic energy error for atom=    0.0030 (will be added to EATOM!!)
 
 
 POSCAR: Ge Se
  positions in cartesian coordinates
  No initial velocities read in
 exchange correlation table for  LEXCH =        8
   RHO(1)=    0.500       N(1)  =     2000
   RHO(2)=  100.500       N(2)  =     4000
 


--------------------------------------------------------------------------------------------------------


 ion  position               nearest neighbor table
   1  0.114  0.250  0.124-   6 2.58   6 2.58   5 2.60
   2  0.614  0.750  0.376-   5 2.58   5 2.58   6 2.60
   3  0.886  0.750  0.876-   8 2.58   8 2.58   7 2.60
   4  0.386  0.250  0.624-   7 2.58   7 2.58   8 2.60
   5  0.982  0.250  0.350-   2 2.58   2 2.58   1 2.60
   6  0.482  0.750  0.150-   1 2.58   1 2.58   2 2.60
   7  0.018  0.750  0.650-   4 2.58   4 2.58   3 2.60
   8  0.518  0.250  0.850-   3 2.58   3 2.58   4 2.60
 

IMPORTANT INFORMATION: All symmetrisations will be switched off!
NOSYMM: (Re-)initialisation of all symmetry stuff for point group C_1.


----------------------------------------------------------------------------------------

                                     Primitive cell                                     

  volume of cell :     199.0001

  direct lattice vectors                    reciprocal lattice vectors
     4.700000000  0.000000000  0.000000000     0.212765957  0.000000000  0.000000000
     0.000000000  3.800000000  0.000000000     0.000000000  0.263157895  0.000000000
     0.000000000  0.000000000 11.142221000     0.000000000  0.000000000  0.089748713

  length of vectors
     4.700000000  3.800000000 11.142221000     0.212765957  0.263157895  0.089748713

  position of ions in fractional coordinates (direct lattice)
     0.114454499  0.250000000  0.123748863
     0.614454499  0.750000000  0.376251137
     0.885545501  0.750000000  0.876251137
     0.385545501  0.250000000  0.623748863
     0.981914826  0.250000000  0.350486281
     0.481914826  0.750000000  0.149513719
     0.018085174  0.750000000  0.649513719
     0.518085174  0.250000000  0.850486281

  ion indices of the primitive-cell ions
   primitive index   ion index
                 1           1
                 2           2
                 3           3
                 4           4
                 5           5
                 6           6
                 7           7
                 8           8

----------------------------------------------------------------------------------------

 
 
 KPOINTS: KPOINTS created by Atomic Simulation Env

Automatic generation of k-mesh.
 Grid dimensions read from file:
 generate k-points for:    6    6    2

 Generating k-lattice:

  Cartesian coordinates                     Fractional coordinates (reciprocal lattice)
     0.035460993  0.000000000  0.000000000     0.166666667  0.000000000  0.000000000
     0.000000000  0.043859649  0.000000000     0.000000000  0.166666667  0.000000000
     0.000000000  0.000000000  0.044874357     0.000000000  0.000000000  0.500000000

  Length of vectors
     0.035460993  0.043859649  0.044874357

  Shift w.r.t. Gamma in fractional coordinates (k-lattice)
     0.000000000  0.000000000  0.000000000

 
 Subroutine IBZKPT returns following result:
 ===========================================
 
 Found     40 irreducible k-points:
 
 Following reciprocal coordinates:
            Coordinates               Weight
  0.000000  0.000000  0.000000      1.000000
  0.166667  0.000000  0.000000      2.000000
  0.333333  0.000000  0.000000      2.000000
  0.500000  0.000000  0.000000      1.000000
  0.000000  0.166667  0.000000      2.000000
  0.166667  0.166667  0.000000      2.000000
 -0.166667  0.166667  0.000000      2.000000
  0.333333  0.166667  0.000000      2.000000
 -0.333333  0.166667  0.000000      2.000000
  0.500000  0.166667  0.000000      2.000000
  0.000000  0.333333  0.000000      2.000000
  0.166667  0.333333  0.000000      2.000000
 -0.166667  0.333333  0.000000      2.000000
  0.333333  0.333333  0.000000      2.000000
 -0.333333  0.333333  0.000000      2.000000
  0.500000  0.333333  0.000000      2.000000
  0.000000  0.500000  0.000000      1.000000
  0.166667  0.500000  0.000000      2.000000
  0.333333  0.500000  0.000000      2.000000
  0.500000  0.500000  0.000000      1.000000
  0.000000  0.000000  0.500000      1.000000
  0.166667  0.000000  0.500000      2.000000
  0.333333  0.000000  0.500000      2.000000
  0.500000  0.000000  0.500000      1.000000
  0.000000  0.166667  0.500000      2.000000
  0.166667  0.166667  0.500000      2.000000
 -0.166667  0.166667  0.500000      2.000000
  0.333333  0.166667  0.500000      2.000000
 -0.333333  0.166667  0.500000      2.000000
  0.500000  0.166667  0.500000      2.000000
  0.000000  0.333333  0.500000      2.000000
  0.166667  0.333333  0.500000      2.000000
 -0.166667  0.333333  0.500000      2.000000
  0.333333  0.333333  0.500000      2.000000
 -0.333333  0.333333  0.500000      2.000000
  0.500000  0.333333  0.500000      2.000000
  0.000000  0.500000  0.500000      1.000000
  0.166667  0.500000  0.500000      2.000000
  0.333333  0.500000  0.500000      2.000000
  0.500000  0.500000  0.500000      1.000000
 
 Following cartesian coordinates:
            Coordinates               Weight
  0.000000  0.000000  0.000000      1.000000
  0.035461  0.000000  0.000000      2.000000
  0.070922  0.000000  0.000000      2.000000
  0.106383  0.000000  0.000000      1.000000
  0.000000  0.043860  0.000000      2.000000
  0.035461  0.043860  0.000000      2.000000
 -0.035461  0.043860  0.000000      2.000000
  0.070922  0.043860  0.000000      2.000000
 -0.070922  0.043860  0.000000      2.000000
  0.106383  0.043860  0.000000      2.000000
  0.000000  0.087719  0.000000      2.000000
  0.035461  0.087719  0.000000      2.000000
 -0.035461  0.087719  0.000000      2.000000
  0.070922  0.087719  0.000000      2.000000
 -0.070922  0.087719  0.000000      2.000000
  0.106383  0.087719  0.000000      2.000000
  0.000000  0.131579  0.000000      1.000000
  0.035461  0.131579  0.000000      2.000000
  0.070922  0.131579  0.000000      2.000000
  0.106383  0.131579  0.000000      1.000000
  0.000000  0.000000  0.044874      1.000000
  0.035461  0.000000  0.044874      2.000000
  0.070922  0.000000  0.044874      2.000000
  0.106383  0.000000  0.044874      1.000000
  0.000000  0.043860  0.044874      2.000000
  0.035461  0.043860  0.044874      2.000000
 -0.035461  0.043860  0.044874      2.000000
  0.070922  0.043860  0.044874      2.000000
 -0.070922  0.043860  0.044874      2.000000
  0.106383  0.043860  0.044874      2.000000
  0.000000  0.087719  0.044874      2.000000
  0.035461  0.087719  0.044874      2.000000
 -0.035461  0.087719  0.044874      2.000000
  0.070922  0.087719  0.044874      2.000000
 -0.070922  0.087719  0.044874      2.000000
  0.106383  0.087719  0.044874      2.000000
  0.000000  0.131579  0.044874      1.000000
  0.035461  0.131579  0.044874      2.000000
  0.070922  0.131579  0.044874      2.000000
  0.106383  0.131579  0.044874      1.000000
 


--------------------------------------------------------------------------------------------------------




 Dimension of arrays:
   k-points           NKPTS =     40   k-points in BZ     NKDIM =     40   number of bands    NBANDS=     32
   number of dos      NEDOS =    301   number of ions     NIONS =      8
   non local maximal  LDIM  =      5   non local SUM 2l+1 LMDIM =     13
   total plane-waves  NPLWV =  23328
   max r-space proj   IRMAX =      1   max aug-charges    IRDMAX=   6570
   dimension x,y,z NGX =    24 NGY =   18 NGZ =   54
   dimension x,y,z NGXF=    48 NGYF=   36 NGZF=  108
   support grid    NGXF=    48 NGYF=   36 NGZF=  108
   ions per type =               4   4
   NGX,Y,Z   is equivalent  to a cutoff of   8.49,  7.87,  8.06 a.u.
   NGXF,Y,Z  is equivalent  to a cutoff of  16.98, 15.75, 16.11 a.u.

 SYSTEM =  ./                                      
 POSCAR =  Ge Se                                   

 Startparameter for this run:
   NWRITE =      2    write-flag & timer
   PREC   = normal    normal or accurate (medium, high low for compatibility)
   ISTART =      0    job   : 0-new  1-cont  2-samecut
   ICHARG =      2    charge: 1-file 2-atom 10-const
   ISPIN  =      1    spin polarized calculation?
   LNONCOLLINEAR =      F non collinear calculations
   LSORBIT =      F    spin-orbit coupling
   INIWAV =      1    electr: 0-lowe 1-rand  2-diag
   LASPH  =      T    aspherical Exc in radial PAW
 Electronic Relaxation 1
   ENCUT  =  360.0 eV  26.46 Ry    5.14 a.u.   7.27  5.88 17.24*2*pi/ulx,y,z
   ENINI  =  360.0     initial cutoff
   ENAUG  =  446.8 eV  augmentation charge cutoff
   NELM   =    100;   NELMIN=  2; NELMDL= -5     # of ELM steps 
   EDIFF  = 0.1E-05   stopping-criterion for ELM
   LREAL  =      F    real-space projection
   NLSPLINE    = F    spline interpolate recip. space projectors
   LCOMPAT=      F    compatible to vasp.4.4
   GGA_COMPAT  = T    GGA compatible to vasp.4.4-vasp.4.6
   LMAXPAW     = -100 max onsite density
   LMAXMIX     =    4 max onsite mixed and CHGCAR
   VOSKOWN=      0    Vosko Wilk Nusair interpolation
   ROPT   =    0.00000   0.00000
 Ionic relaxation
   EDIFFG = 0.1E-04   stopping-criterion for IOM
   NSW    =      0    number of steps for IOM
   NBLOCK =      1;   KBLOCK =      1    inner block; outer block 
   IBRION =     -1    ionic relax: 0-MD 1-quasi-New 2-CG
   NFREE  =      0    steps in history (QN), initial steepest desc. (CG)
   ISIF   =      2    stress and relaxation
   IWAVPR =     10    prediction:  0-non 1-charg 2-wave 3-comb
   ISYM   =      0    0-nonsym 1-usesym 2-fastsym
   LCORR  =      T    Harris-Foulkes like correction to forces

   POTIM  = 0.5000    time-step for ionic-motion
   TEIN   =    0.0    initial temperature
   TEBEG  =    0.0;   TEEND  =   0.0 temperature during run
   SMASS  =  -3.00    Nose mass-parameter (am)
   estimated Nose-frequenzy (Omega)   =  0.10E-29 period in steps = 0.13E+47 mass=  -0.505E-27a.u.
   SCALEE = 1.0000    scale energy and forces
   NPACO  =    256;   APACO  = 10.0  distance and # of slots for P.C.
   PSTRESS=    0.0 pullay stress

  Mass of Ions in am
   POMASS =  72.61 78.96
  Ionic Valenz
   ZVAL   =   4.00  6.00
  Atomic Wigner-Seitz radii
   RWIGS  =  -1.00 -1.00
  virtual crystal weights 
   VCA    =   1.00  1.00
   NELECT =      40.0000    total number of electrons
   NUPDOWN=      -1.0000    fix difference up-down

 DOS related values:
   EMIN   =  10.00;   EMAX   =-10.00  energy-range for DOS
   EFERMI =   0.00;   METHOD = LEGACY      
   ISMEAR =     0;   SIGMA  =   0.05  broadening in eV -4-tet -1-fermi 0-gaus

 Electronic relaxation 2 (details)
   IALGO  =     38    algorithm
   LDIAG  =      T    sub-space diagonalisation (order eigenvalues)
   LSUBROT=      F    optimize rotation matrix (better conditioning)
   TURBO    =      0    0=normal 1=particle mesh
   IRESTART =      0    0=no restart 2=restart with 2 vectors
   NREBOOT  =      0    no. of reboots
   NMIN     =      0    reboot dimension
   EREF     =   0.00    reference energy to select bands
   IMIX   =      4    mixing-type and parameters
     AMIX     =   0.40;   BMIX     =  1.00
     AMIX_MAG =   1.60;   BMIX_MAG =  1.00
     AMIN     =   0.10
     WC   =   100.;   INIMIX=   1;  MIXPRE=   1;  MAXMIX= -45

 Intra band minimization:
   WEIMIN = 0.0000     energy-eigenvalue tresh-hold
   EBREAK =  0.78E-08  absolut break condition
   DEPER  =   0.30     relativ break condition  

   TIME   =   0.40     timestep for ELM

  volume/ion in A,a.u.               =      24.88       167.86
  Fermi-wavevector in a.u.,A,eV,Ry     =   0.958982  1.812213 12.512548  0.919646
  Thomas-Fermi vector in A             =   2.088138
 
 Write flags
   LWAVE        =      F    write WAVECAR
   LDOWNSAMPLE  =      F    k-point downsampling of WAVECAR
   LCHARG       =      F    write CHGCAR
   LVTOT        =      F    write LOCPOT, total local potential
   LVHAR        =      F    write LOCPOT, Hartree potential only
   LELF         =      F    write electronic localiz. function (ELF)
   LORBIT       =      0    0 simple, 1 ext, 2 COOP (PROOUT), +10 PAW based schemes


 Dipole corrections
   LMONO  =      F    monopole corrections only (constant potential shift)
   LDIPOL =      F    correct potential (dipole corrections)
   IDIPOL =      0    1-x, 2-y, 3-z, 4-all directions 
   EPSILON=  1.0000000 bulk dielectric constant

 Exchange correlation treatment:
   GGA     =    PE    GGA type
   LEXCH   =     8    internal setting for exchange type
   LIBXC   =     F    Libxc                    
   VOSKOWN =     0    Vosko Wilk Nusair interpolation
   LHFCALC =     F    Hartree Fock is set to
   LHFONE  =     F    Hartree Fock one center treatment
   AEXX    =    0.0000 exact exchange contribution

 Linear response parameters
   LEPSILON=     F    determine dielectric tensor
   LRPA    =     F    only Hartree local field effects (RPA)
   LNABLA  =     F    use nabla operator in PAW spheres
   LVEL    =     F    velocity operator in full k-point grid
   CSHIFT  =0.1000    complex shift for real part using Kramers Kronig
   OMEGAMAX=  -1.0    maximum frequency
   DEG_THRESHOLD= 0.2000000E-02 threshold for treating states as degnerate
   RTIME   =   -0.100 relaxation time in fs
  (WPLASMAI=    0.000 imaginary part of plasma frequency in eV, 0.658/RTIME)
   DFIELD  = 0.0000000 0.0000000 0.0000000 field for delta impulse in time
 
  Optional k-point grid parameters
   LKPOINTS_OPT  =     F    use optional k-point grid
   KPOINTS_OPT_MODE=     1    mode for optional k-point grid
 
 Orbital magnetization related:
   ORBITALMAG=     F  switch on orbital magnetization
   LCHIMAG   =     F  perturbation theory with respect to B field
   DQ        =  0.001000  dq finite difference perturbation B field
   LLRAUG    =     F  two centre corrections for induced B field
   LBONE     =     F  B-component reconstruction in AE one-centre
   LVGVCALC  =     T  calculate vGv susceptibility
   LVGVAPPL  =     F  apply vGv susceptibility instead of pGv for G=0

 Random number generation:
   RANDOM_GENERATOR = DEFAULT
   PCG_SEED         = not used


--------------------------------------------------------------------------------------------------------


 Static calculation
 charge density and potential will be updated during run
 non-spin polarized calculation
 Variant of blocked Davidson
 Davidson routine will perform the subspace rotation
 perform sub-space diagonalisation
    after iterative eigenvector-optimisation
 modified Broyden-mixing scheme, WC =      100.0
 initial mixing is a Kerker type mixing with AMIX =  0.4000 and BMIX =      1.0000
 Hartree-type preconditioning will be used
 using additional bands            12
 reciprocal scheme for non local part
 use partial core corrections
 calculate Harris-corrections to forces 
   (improved forces if not selfconsistent)
 use gradient corrections 
 use of overlap-Matrix (Vanderbilt PP)
 Gauss-broadening in eV      SIGMA  =   0.05


--------------------------------------------------------------------------------------------------------


  energy-cutoff  :      360.00
  volume of cell :      199.00
      direct lattice vectors                 reciprocal lattice vectors
     4.700000000  0.000000000  0.000000000     0.212765957  0.000000000  0.000000000
     0.000000000  3.800000000  0.000000000     0.000000000  0.263157895  0.000000000
     0.000000000  0.000000000 11.142221000     0.000000000  0.000000000  0.089748713

  length of vectors
     4.700000000  3.800000000 11.142221000     0.212765957  0.263157895  0.089748713


 
 k-points in units of 2pi/SCALE and weight: KPOINTS created by Atomic Simulation Env
   0.00000000  0.00000000  0.00000000       0.014
   0.03546099  0.00000000  0.00000000       0.028
   0.07092199  0.00000000  0.00000000       0.028
   0.10638298  0.00000000  0.00000000       0.014
   0.00000000  0.04385965  0.00000000       0.028
   0.03546099  0.04385965  0.00000000       0.028
  -0.03546099  0.04385965  0.00000000       0.028
   0.07092199  0.04385965  0.00000000       0.028
  -0.07092199  0.04385965  0.00000000       0.028
   0.10638298  0.04385965  0.00000000       0.028
   0.00000000  0.08771930  0.00000000       0.028
   0.03546099  0.08771930  0.00000000       0.028
  -0.03546099  0.08771930  0.00000000       0.028
   0.07092199  0.08771930  0.00000000       0.028
  -0.07092199  0.08771930  0.00000000       0.028
   0.10638298  0.08771930  0.00000000       0.028
   0.00000000  0.13157895  0.00000000       0.014
   0.03546099  0.13157895  0.00000000       0.028
   0.07092199  0.13157895  0.00000000       0.028
   0.10638298  0.13157895  0.00000000       0.014
   0.00000000  0.00000000  0.04487436       0.014
   0.03546099  0.00000000  0.04487436       0.028
   0.07092199  0.00000000  0.04487436       0.028
   0.10638298  0.00000000  0.04487436       0.014
   0.00000000  0.04385965  0.04487436       0.028
   0.03546099  0.04385965  0.04487436       0.028
  -0.03546099  0.04385965  0.04487436       0.028
   0.07092199  0.04385965  0.04487436       0.028
  -0.07092199  0.04385965  0.04487436       0.028
   0.10638298  0.04385965  0.04487436       0.028
   0.00000000  0.08771930  0.04487436       0.028
   0.03546099  0.08771930  0.04487436       0.028
  -0.03546099  0.08771930  0.04487436       0.028
   0.07092199  0.08771930  0.04487436       0.028
  -0.07092199  0.08771930  0.04487436       0.028
   0.10638298  0.08771930  0.04487436       0.028
   0.00000000  0.13157895  0.04487436       0.014
   0.03546099  0.13157895  0.04487436       0.028
   0.07092199  0.13157895  0.04487436       0.028
   0.10638298  0.13157895  0.04487436       0.014
 
 k-points in reciprocal lattice and weights: KPOINTS created by Atomic Simulation Env
   0.00000000  0.00000000  0.00000000       0.014
   0.16666667  0.00000000  0.00000000       0.028
   0.33333333  0.00000000  0.00000000       0.028
   0.50000000  0.00000000  0.00000000       0.014
   0.00000000  0.16666667  0.00000000       0.028
   0.16666667  0.16666667  0.00000000       0.028
  -0.16666667  0.16666667  0.00000000       0.028
   0.33333333  0.16666667  0.00000000       0.028
  -0.33333333  0.16666667  0.00000000       0.028
   0.50000000  0.16666667  0.00000000       0.028
   0.00000000  0.33333333  0.00000000       0.028
   0.16666667  0.33333333  0.00000000       0.028
  -0.16666667  0.33333333  0.00000000       0.028
   0.33333333  0.33333333  0.00000000       0.028
  -0.33333333  0.33333333  0.00000000       0.028
   0.50000000  0.33333333  0.00000000       0.028
   0.00000000  0.50000000  0.00000000       0.014
   0.16666667  0.50000000  0.00000000       0.028
   0.33333333  0.50000000  0.00000000       0.028
   0.50000000  0.50000000  0.00000000       0.014
   0.00000000  0.00000000  0.50000000       0.014
   0.16666667  0.00000000  0.50000000       0.028
   0.33333333  0.00000000  0.50000000       0.028
   0.50000000  0.00000000  0.50000000       0.014
   0.00000000  0.16666667  0.50000000       0.028
   0.16666667  0.16666667  0.50000000       0.028
  -0.16666667  0.16666667  0.50000000       0.028
   0.33333333  0.16666667  0.50000000       0.028
  -0.33333333  0.16666667  0.50000000       0.028
   0.50000000  0.16666667  0.50000000       0.028
   0.00000000  0.33333333  0.50000000       0.028
   0.16666667  0.33333333  0.50000000       0.028
  -0.16666667  0.33333333  0.50000000       0.028
   0.33333333  0.33333333  0.50000000       0.028
  -0.33333333  0.33333333  0.50000000       0.028
   0.50000000  0.33333333  0.50000000       0.028
   0.00000000  0.50000000  0.50000000       0.014
   0.16666667  0.50000000  0.50000000       0.028
   0.33333333  0.50000000  0.50000000       0.028
   0.50000000  0.50000000  0.50000000       0.014
 
 position of ions in fractional coordinates (direct lattice) 
   0.11445450  0.25000000  0.12374886
   0.61445450  0.75000000  0.37625114
   0.88554550  0.75000000  0.87625114
   0.38554550  0.25000000  0.62374886
   0.98191483  0.25000000  0.35048628
   0.48191483  0.75000000  0.14951372
   0.01808517  0.75000000  0.64951372
   0.51808517  0.25000000  0.85048628
 
 position of ions in cartesian coordinates  (Angst):
   0.53793615  0.95000000  1.37883718
   2.88793615  2.85000000  4.19227332
   4.16206385  2.85000000  9.76338382
   1.81206385  0.95000000  6.94994768
   4.61499968  0.95000000  3.90519560
   2.26499968  2.85000000  1.66591490
   0.08500032  2.85000000  7.23702540
   2.43500032  0.95000000  9.47630610
 


--------------------------------------------------------------------------------------------------------


 k-point   1 :   0.0000 0.0000 0.0000  plane waves:    3103
 k-point   2 :   0.1667 0.0000 0.0000  plane waves:    3071
 k-point   3 :   0.3333 0.0000 0.0000  plane waves:    3070
 k-point   4 :   0.5000 0.0000 0.0000  plane waves:    3078
 k-point   5 :   0.0000 0.1667 0.0000  plane waves:    3090
 k-point   6 :   0.1667 0.1667 0.0000  plane waves:    3080
 k-point   7 :  -0.1667 0.1667 0.0000  plane waves:    3080
 k-point   8 :   0.3333 0.1667 0.0000  plane waves:    3081
 k-point   9 :  -0.3333 0.1667 0.0000  plane waves:    3081
 k-point  10 :   0.5000 0.1667 0.0000  plane waves:    3068
 k-point  11 :   0.0000 0.3333 0.0000  plane waves:    3076
 k-point  12 :   0.1667 0.3333 0.0000  plane waves:    3102
 k-point  13 :  -0.1667 0.3333 0.0000  plane waves:    3102
 k-point  14 :   0.3333 0.3333 0.0000  plane waves:    3094
 k-point  15 :  -0.3333 0.3333 0.0000  plane waves:    3094
 k-point  16 :   0.5000 0.3333 0.0000  plane waves:    3098
 k-point  17 :   0.0000 0.5000 0.0000  plane waves:    3096
 k-point  18 :   0.1667 0.5000 0.0000  plane waves:    3100
 k-point  19 :   0.3333 0.5000 0.0000  plane waves:    3096
 k-point  20 :   0.5000 0.5000 0.0000  plane waves:    3124
 k-point  21 :   0.0000 0.0000 0.5000  plane waves:    3090
 k-point  22 :   0.1667 0.0000 0.5000  plane waves:    3072
 k-point  23 :   0.3333 0.0000 0.5000  plane waves:    3074
 k-point  24 :   0.5000 0.0000 0.5000  plane waves:    3088
 k-point  25 :   0.0000 0.1667 0.5000  plane waves:    3096
 k-point  26 :   0.1667 0.1667 0.5000  plane waves:    3082
 k-point  27 :  -0.1667 0.1667 0.5000  plane waves:    3082
 k-point  28 :   0.3333 0.1667 0.5000  plane waves:    3080
 k-point  29 :  -0.3333 0.1667 0.5000  plane waves:    3080
 k-point  30 :   0.5000 0.1667 0.5000  plane waves:    3088
 k-point  31 :   0.0000 0.3333 0.5000  plane waves:    3084
 k-point  32 :   0.1667 0.3333 0.5000  plane waves:    3090
 k-point  33 :  -0.1667 0.3333 0.5000  plane waves:    3090
 k-point  34 :   0.3333 0.3333 0.5000  plane waves:    3104
 k-point  35 :  -0.3333 0.3333 0.5000  plane waves:    3104
 k-point  36 :   0.5000 0.3333 0.5000  plane waves:    3088
 k-point  37 :   0.0000 0.5000 0.5000  plane waves:    3108
 k-point  38 :   0.1667 0.5000 0.5000  plane waves:    3096
 k-point  39 :   0.3333 0.5000 0.5000  plane waves:    3096
 k-point  40 :   0.5000 0.5000 0.5000  plane waves:    3096

 maximum and minimum number of plane-waves per node :       804      746

 maximum number of plane-waves:      3124
 maximum index in each direction: 
   IXMAX=    7   IYMAX=    5   IZMAX=   17
   IXMIN=   -7   IYMIN=   -6   IZMIN=  -17


 parallel 3D FFT for wavefunctions:
    minimum data exchange during FFTs selected (reduces bandwidth)
 parallel 3D FFT for charge:
    minimum data exchange during FFTs selected (reduces bandwidth)


 total amount of memory used by VASP MPI-rank0    38458. kBytes
=======================================================================

   base      :      30000. kBytes
   nonl-proj :       6623. kBytes
   fftplans  :        320. kBytes
   grid      :        455. kBytes
   one-center:         16. kBytes
   wavefun   :       1044. kBytes
 
     INWAV:  cpu time      0.0000: real time      0.0001
 Broyden mixing: mesh for mixing (old mesh)
   NGX = 15   NGY = 11   NGZ = 35
  (NGX  = 48   NGY  = 36   NGZ  =108)
  gives a total of   5775 points

 initial charge density was supplied:
 charge density of overlapping atoms calculated
 number of electron      40.0000000 magnetization 
 keeping initial charge density in first step


--------------------------------------------------------------------------------------------------------


 Maximum index for augmentation-charges           337 (set IRDMAX)


--------------------------------------------------------------------------------------------------------


 First call to EWALD:  gamma=   0.304
 Maximum number of real-space cells 3x 4x 2
 Maximum number of reciprocal cells 2x 2x 5

    FEWALD:  cpu time      0.0018: real time      0.0018


--------------------------------------- Ionic step        1  -------------------------------------------




--------------------------------------- Iteration      1(   1)  ---------------------------------------


    POTLOK:  cpu time      0.0078: real time      0.0082
    SETDIJ:  cpu time      0.1396: real time      0.1402
     EDDAV:  cpu time      0.2571: real time      0.2597
       DOS:  cpu time      0.0012: real time      0.0013
    --------------------------------------------
      LOOP:  cpu time      0.4057: real time      0.4093

 eigenvalue-minimisations  :  2560
 total energy-change (2. order) : 0.1301290E+03  (-0.1277191E+04)
 number of electron      40.0000000 magnetization 
 augmentation part       40.0000000 magnetization 

 Free energy of the ion-electron system (eV)
  ---------------------------------------------------
  alpha Z        PSCENC =        85.14793834
  Ewald energy   TEWEN  =     -1399.79110772
  -Hartree energ DENC   =      -136.24124038
  -exchange      EXHF   =         0.00000000
  -V(xc)+E(xc)   XCENC  =       -33.67719875
  PAW double counting   =      1193.78262552    -1080.73714043
  entropy T*S    EENTRO =        -0.00191050
  eigenvalues    EBANDS =        53.16238944
  atomic energy  EATOM  =      1448.48460880
  Solvation  Ediel_sol  =         0.00000000
  ---------------------------------------------------
  free energy    TOTEN  =       130.12896431 eV

  energy without entropy =      130.13087481  energy(sigma->0) =      130.12991956


--------------------------------------------------------------------------------------------------------




--------------------------------------- Iteration      1(   2)  ---------------------------------------


     EDDAV:  cpu time      0.3336: real time      0.3369
       DOS:  cpu time      0.0006: real time      0.0006
    --------------------------------------------
      LOOP:  cpu time      0.3342: real time      0.3374

 eigenvalue-minimisations  :  3728
 total energy-change (2. order) :-0.1556834E+03  (-0.1509932E+03)
 number of electron      40.0000000 magnetization 
 augmentation part       40.0000000 magnetization 

 Free energy of the ion-electron system (eV)
  ---------------------------------------------------
  alpha Z        PSCENC =        85.14793834
  Ewald energy   TEWEN  =     -1399.79110772
  -Hartree energ DENC   =      -136.24124038
  -exchange      EXHF   =         0.00000000
  -V(xc)+E(xc)   XCENC  =       -33.67719875
  PAW double counting   =      1193.78262552    -1080.73714043
  entropy T*S    EENTRO =        -0.00000000
  eigenvalues    EBANDS =      -102.52288637
  atomic energy  EATOM  =      1448.48460880
  Solvation  Ediel_sol  =         0.00000000
  ---------------------------------------------------
  free energy    TOTEN  =       -25.55440099 eV

  energy without entropy =      -25.55440099  energy(sigma->0) =      -25.55440099


--------------------------------------------------------------------------------------------------------




--------------------------------------- Iteration      1(   3)  ---------------------------------------


     EDDAV:  cpu time      0.3047: real time      0.3083
       DOS:  cpu time      0.0005: real time      0.0006
    --------------------------------------------
      LOOP:  cpu time      0.3052: real time      0.3089

 eigenvalue-minimisations  :  3280
 total energy-change (2. order) :-0.8590634E+01  (-0.8573369E+01)
 number of electron      40.0000000 magnetization 
 augmentation part       40.0000000 magnetization 

 Free energy of the ion-electron system (eV)
  ---------------------------------------------------
  alpha Z        PSCENC =        85.14793834
  Ewald energy   TEWEN  =     -1399.79110772
  -Hartree energ DENC   =      -136.24124038
  -exchange      EXHF   =         0.00000000
  -V(xc)+E(xc)   XCENC  =       -33.67719875
  PAW double counting   =      1193.78262552    -1080.73714043
  entropy T*S    EENTRO =        -0.00000000
  eigenvalues    EBANDS =      -111.11352035
  atomic energy  EATOM  =      1448.48460880
  Solvation  Ediel_sol  =         0.00000000
  ---------------------------------------------------
  free energy    TOTEN  =       -34.14503498 eV

  energy without entropy =      -34.14503498  energy(sigma->0) =      -34.14503498


--------------------------------------------------------------------------------------------------------




--------------------------------------- Iteration      1(   4)  ---------------------------------------


     EDDAV:  cpu time      0.2900: real time      0.2931
       DOS:  cpu time      0.0006: real time      0.0006
    --------------------------------------------
      LOOP:  cpu time      0.2906: real time      0.2936

 eigenvalue-minimisations  :  3104
 total energy-change (2. order) :-0.5777412E-01  (-0.5776972E-01)
 number of electron      40.0000000 magnetization 
 augmentation part       40.0000000 magnetization 

 Free energy of the ion-electron system (eV)
  ---------------------------------------------------
  alpha Z        PSCENC =        85.14793834
  Ewald energy   TEWEN  =     -1399.79110772
  -Hartree energ DENC   =      -136.24124038
  -exchange      EXHF   =         0.00000000
  -V(xc)+E(xc)   XCENC  =       -33.67719875
  PAW double counting   =      1193.78262552    -1080.73714043
  entropy T*S    EENTRO =        -0.00000000
  eigenvalues    EBANDS =      -111.17129447
  atomic energy  EATOM  =      1448.48460880
  Solvation  Ediel_sol  =         0.00000000
  ---------------------------------------------------
  free energy    TOTEN  =       -34.20280910 eV

  energy without entropy =      -34.20280910  energy(sigma->0) =      -34.20280910


--------------------------------------------------------------------------------------------------------




--------------------------------------- Iteration      1(   5)  ---------------------------------------


     EDDAV:  cpu time      0.3063: real time      0.3097
       DOS:  cpu time      0.0006: real time      0.0005
    CHARGE:  cpu time      0.0041: real time      0.0042
    MIXING:  cpu time      0.0007: real time      0.0007
    --------------------------------------------
      LOOP:  cpu time      0.3116: real time      0.3151

 eigenvalue-minimisations  :  3312
 total energy-change (2. order) :-0.3588016E-03  (-0.3587685E-03)
 number of electron      39.9999958 magnetization 
 augmentation part       -7.3976588 magnetization 

 Broyden mixing:
  rms(total) = 0.64671E+00    rms(broyden)= 0.64670E+00
  rms(prec ) = 0.73229E+00
  weight for this iteration     100.00

 Free energy of the ion-electron system (eV)
  ---------------------------------------------------
  alpha Z        PSCENC =        85.14793834
  Ewald energy   TEWEN  =     -1399.79110772
  -Hartree energ DENC   =      -136.24124038
  -exchange      EXHF   =         0.00000000
  -V(xc)+E(xc)   XCENC  =       -33.67719875
  PAW double counting   =      1193.78262552    -1080.73714043
  entropy T*S    EENTRO =        -0.00000000
  eigenvalues    EBANDS =      -111.17165327
  atomic energy  EATOM  =      1448.48460880
  Solvation  Ediel_sol  =         0.00000000
  ---------------------------------------------------
  free energy    TOTEN  =       -34.20316790 eV

  energy without entropy =      -34.20316790  energy(sigma->0) =      -34.20316790


--------------------------------------------------------------------------------------------------------




--------------------------------------- Iteration      1(   6)  ---------------------------------------


    POTLOK:  cpu time      0.0053: real time      0.0056
    SETDIJ:  cpu time      0.1374: real time      0.1382
     EDDAV:  cpu time      0.3196: real time      0.3231
       DOS:  cpu time      0.0006: real time      0.0006
    CHARGE:  cpu time      0.0041: real time      0.0042
    MIXING:  cpu time      0.0005: real time      0.0005
    --------------------------------------------
      LOOP:  cpu time      0.4676: real time      0.4721

 eigenvalue-minimisations  :  3040
 total energy-change (2. order) : 0.3842647E+00  (-0.7844922E-01)
 number of electron      39.9999959 magnetization 
 augmentation part       -7.3400579 magnetization 

 Broyden mixing:
  rms(total) = 0.40744E+00    rms(broyden)= 0.40744E+00
  rms(prec ) = 0.43044E+00
  weight for this iteration     100.00

 eigenvalues of (default mixing * dielectric matrix)
  average eigenvalue GAMMA=   2.1921
  2.1921

 Free energy of the ion-electron system (eV)
  ---------------------------------------------------
  alpha Z        PSCENC =        85.14793834
  Ewald energy   TEWEN  =     -1399.79110772
  -Hartree energ DENC   =      -142.24975781
  -exchange      EXHF   =         0.00000000
  -V(xc)+E(xc)   XCENC  =       -33.05691486
  PAW double counting   =      1456.79810510    -1344.07427797
  entropy T*S    EENTRO =        -0.00000000
  eigenvalues    EBANDS =      -105.07749707
  atomic energy  EATOM  =      1448.48460880
  Solvation  Ediel_sol  =         0.00000000
  ---------------------------------------------------
  free energy    TOTEN  =       -33.81890319 eV

  energy without entropy =      -33.81890319  energy(sigma->0) =      -33.81890319


--------------------------------------------------------------------------------------------------------




--------------------------------------- Iteration      1(   7)  ---------------------------------------


    POTLOK:  cpu time      0.0053: real time      0.0055
    SETDIJ:  cpu time      0.1376: real time      0.1383
     EDDAV:  cpu time      0.2719: real time      0.2748
       DOS:  cpu time      0.0005: real time      0.0005
    CHARGE:  cpu time      0.0040: real time      0.0040
    MIXING:  cpu time      0.0005: real time      0.0005
    --------------------------------------------
      LOOP:  cpu time      0.4197: real time      0.4236

 eigenvalue-minimisations  :  2912
 total energy-change (2. order) : 0.1395084E-01  (-0.2330967E-01)
 number of electron      39.9999959 magnetization 
 augmentation part       -7.3268542 magnetization 

 Broyden mixing:
  rms(total) = 0.13115E+00    rms(broyden)= 0.13114E+00
  rms(prec ) = 0.14018E+00
  weight for this iteration     100.00

 eigenvalues of (default mixing * dielectric matrix)
  average eigenvalue GAMMA=   1.7866
  1.1827  2.3904

 Free energy of the ion-electron system (eV)
  ---------------------------------------------------
  alpha Z        PSCENC =        85.14793834
  Ewald energy   TEWEN  =     -1399.79110772
  -Hartree energ DENC   =      -144.95033761
  -exchange      EXHF   =         0.00000000
  -V(xc)+E(xc)   XCENC  =       -32.56662493
  PAW double counting   =      1781.07454146    -1668.58984397
  entropy T*S    EENTRO =        -0.00000000
  eigenvalues    EBANDS =      -102.61412672
  atomic energy  EATOM  =      1448.48460880
  Solvation  Ediel_sol  =         0.00000000
  ---------------------------------------------------
  free energy    TOTEN  =       -33.80495236 eV

  energy without entropy =      -33.80495236  energy(sigma->0) =      -33.80495236


--------------------------------------------------------------------------------------------------------




--------------------------------------- Iteration      1(   8)  ---------------------------------------


    POTLOK:  cpu time      0.0052: real time      0.0054
    SETDIJ:  cpu time      0.1375: real time      0.1382
     EDDAV:  cpu time      0.2795: real time      0.2828
       DOS:  cpu time      0.0006: real time      0.0006
    CHARGE:  cpu time      0.0038: real time      0.0038
    MIXING:  cpu time      0.0005: real time      0.0005
    --------------------------------------------
      LOOP:  cpu time      0.4271: real time      0.4313

 eigenvalue-minimisations  :  2976
 total energy-change (2. order) : 0.1313825E-02  (-0.2206832E-02)
 number of electron      39.9999959 magnetization 
 augmentation part       -7.3348149 magnetization 

 Broyden mixing:
  rms(total) = 0.18509E-01    rms(broyden)= 0.18508E-01
  rms(prec ) = 0.22562E-01
  weight for this iteration     100.00

 eigenvalues of (default mixing * dielectric matrix)
  average eigenvalue GAMMA=   1.6911
  2.5028  1.2853  1.2853

 Free energy of the ion-electron system (eV)
  ---------------------------------------------------
  alpha Z        PSCENC =        85.14793834
  Ewald energy   TEWEN  =     -1399.79110772
  -Hartree energ DENC   =      -145.13415642
  -exchange      EXHF   =         0.00000000
  -V(xc)+E(xc)   XCENC  =       -32.41331230
  PAW double counting   =      1921.97423106    -1809.55278209
  entropy T*S    EENTRO =        -0.00000000
  eigenvalues    EBANDS =      -102.51905819
  atomic energy  EATOM  =      1448.48460880
  Solvation  Ediel_sol  =         0.00000000
  ---------------------------------------------------
  free energy    TOTEN  =       -33.80363853 eV

  energy without entropy =      -33.80363853  energy(sigma->0) =      -33.80363853


--------------------------------------------------------------------------------------------------------




--------------------------------------- Iteration      1(   9)  ---------------------------------------


    POTLOK:  cpu time      0.0051: real time      0.0054
    SETDIJ:  cpu time      0.1371: real time      0.1379
     EDDAV:  cpu time      0.2972: real time      0.3002
       DOS:  cpu time      0.0006: real time      0.0006
    CHARGE:  cpu time      0.0038: real time      0.0038
    MIXING:  cpu time      0.0005: real time      0.0005
    --------------------------------------------
      LOOP:  cpu time      0.4443: real time      0.4484

 eigenvalue-minimisations  :  3168
 total energy-change (2. order) :-0.2785134E-03  (-0.3749267E-03)
 number of electron      39.9999959 magnetization 
 augmentation part       -7.3328115 magnetization 

 Broyden mixing:
  rms(total) = 0.66653E-02    rms(broyden)= 0.66653E-02
  rms(prec ) = 0.74685E-02
  weight for this iteration     100.00

 eigenvalues of (default mixing * dielectric matrix)
  average eigenvalue GAMMA=   1.7251
  2.2843  2.2843  1.1659  1.1659

 Free energy of the ion-electron system (eV)
  ---------------------------------------------------
  alpha Z        PSCENC =        85.14793834
  Ewald energy   TEWEN  =     -1399.79110772
  -Hartree energ DENC   =      -145.49539382
  -exchange      EXHF   =         0.00000000
  -V(xc)+E(xc)   XCENC  =       -32.37275990
  PAW double counting   =      1935.96833061    -1823.55616478
  entropy T*S    EENTRO =        -0.00000000
  eigenvalues    EBANDS =      -102.18936857
  atomic energy  EATOM  =      1448.48460880
  Solvation  Ediel_sol  =         0.00000000
  ---------------------------------------------------
  free energy    TOTEN  =       -33.80391705 eV

  energy without entropy =      -33.80391705  energy(sigma->0) =      -33.80391705


--------------------------------------------------------------------------------------------------------




--------------------------------------- Iteration      1(  10)  ---------------------------------------


    POTLOK:  cpu time      0.0051: real time      0.0053
    SETDIJ:  cpu time      0.1372: real time      0.1379
     EDDAV:  cpu time      0.2501: real time      0.2518
       DOS:  cpu time      0.0003: real time      0.0003
    CHARGE:  cpu time      0.0030: real time      0.0030
    MIXING:  cpu time      0.0003: real time      0.0003
    --------------------------------------------
      LOOP:  cpu time      0.3960: real time      0.3986

 eigenvalue-minimisations  :  3008
 total energy-change (2. order) :-0.1001980E-03  (-0.2857439E-04)
 number of electron      39.9999959 magnetization 
 augmentation part       -7.3327115 magnetization 

 Broyden mixing:
  rms(total) = 0.23958E-02    rms(broyden)= 0.23958E-02
  rms(prec ) = 0.29478E-02
  weight for this iteration     100.00

 eigenvalues of (default mixing * dielectric matrix)
  average eigenvalue GAMMA=   1.7416
  2.6680  2.4192  1.1576  1.2316  1.2316

 Free energy of the ion-electron system (eV)
  ---------------------------------------------------
  alpha Z        PSCENC =        85.14793834
  Ewald energy   TEWEN  =     -1399.79110772
  -Hartree energ DENC   =      -145.52660658
  -exchange      EXHF   =         0.00000000
  -V(xc)+E(xc)   XCENC  =       -32.36957961
  PAW double counting   =      1929.75740095    -1817.34034748
  entropy T*S    EENTRO =        -0.00000000
  eigenvalues    EBANDS =      -102.16632394
  atomic energy  EATOM  =      1448.48460880
  Solvation  Ediel_sol  =         0.00000000
  ---------------------------------------------------
  free energy    TOTEN  =       -33.80401724 eV

  energy without entropy =      -33.80401724  energy(sigma->0) =      -33.80401724


--------------------------------------------------------------------------------------------------------




--------------------------------------- Iteration      1(  11)  ---------------------------------------


    POTLOK:  cpu time      0.0035: real time      0.0037
    SETDIJ:  cpu time      0.1367: real time      0.1373
     EDDAV:  cpu time      0.1776: real time      0.1785
       DOS:  cpu time      0.0003: real time      0.0003
    CHARGE:  cpu time      0.0029: real time      0.0030
    MIXING:  cpu time      0.0003: real time      0.0003
    --------------------------------------------
      LOOP:  cpu time      0.3214: real time      0.3231

 eigenvalue-minimisations  :  2848
 total energy-change (2. order) :-0.2799136E-04  (-0.4031756E-05)
 number of electron      39.9999959 magnetization 
 augmentation part       -7.3329582 magnetization 

 Broyden mixing:
  rms(total) = 0.12492E-02    rms(broyden)= 0.12492E-02
  rms(prec ) = 0.13812E-02
  weight for this iteration     100.00

 eigenvalues of (default mixing * dielectric matrix)
  average eigenvalue GAMMA=   1.7195
  2.4764  2.4764  2.0875  1.1717  1.1717  0.9333

 Free energy of the ion-electron system (eV)
  ---------------------------------------------------
  alpha Z        PSCENC =        85.14793834
  Ewald energy   TEWEN  =     -1399.79110772
  -Hartree energ DENC   =      -145.55108247
  -exchange      EXHF   =         0.00000000
  -V(xc)+E(xc)   XCENC  =       -32.36308958
  PAW double counting   =      1931.22774717    -1818.81104359
  entropy T*S    EENTRO =        -0.00000000
  eigenvalues    EBANDS =      -102.14801619
  atomic energy  EATOM  =      1448.48460880
  Solvation  Ediel_sol  =         0.00000000
  ---------------------------------------------------
  free energy    TOTEN  =       -33.80404523 eV

  energy without entropy =      -33.80404523  energy(sigma->0) =      -33.80404523


--------------------------------------------------------------------------------------------------------




--------------------------------------- Iteration      1(  12)  ---------------------------------------


    POTLOK:  cpu time      0.0033: real time      0.0035
    SETDIJ:  cpu time      0.1185: real time      0.1188
     EDDAV:  cpu time      0.2114: real time      0.2125
       DOS:  cpu time      0.0003: real time      0.0003
    --------------------------------------------
      LOOP:  cpu time      0.3335: real time      0.3351

 eigenvalue-minimisations  :  3440
 total energy-change (2. order) :-0.5989936E-06  (-0.5767358E-06)
 number of electron      39.9999959 magnetization 
 augmentation part       -7.3329582 magnetization 

 Free energy of the ion-electron system (eV)
  ---------------------------------------------------
  alpha Z        PSCENC =        85.14793834
  Ewald energy   TEWEN  =     -1399.79110772
  -Hartree energ DENC   =      -145.56452481
  -exchange      EXHF   =         0.00000000
  -V(xc)+E(xc)   XCENC  =       -32.36209577
  PAW double counting   =      1930.37759618    -1817.96063870
  entropy T*S    EENTRO =        -0.00000000
  eigenvalues    EBANDS =      -102.13582215
  atomic energy  EATOM  =      1448.48460880
  Solvation  Ediel_sol  =         0.00000000
  ---------------------------------------------------
  free energy    TOTEN  =       -33.80404583 eV

  energy without entropy =      -33.80404583  energy(sigma->0) =      -33.80404583


--------------------------------------------------------------------------------------------------------




 average (electrostatic) potential at core
  the test charge radii are     1.1631  1.0808
  (the norm of the test charge is              1.0000)
       1 -33.6925       2 -33.6925       3 -33.6925       4 -33.6925       5 -55.1824
       6 -55.1824       7 -55.1824       8 -55.1824
 
 
 
 E-fermi :   3.3234     XC(G=0):  -9.1625     alpha+bet : -8.4827

 Fermi energy:         3.3234137958

 k-point     1 :       0.0000    0.0000    0.0000
  band No.  band energies     occupation 
      1     -11.1343      2.00000
      2     -10.8482      2.00000
      3      -9.8975      2.00000
      4      -9.4768      2.00000
      5      -5.0624      2.00000
      6      -4.5359      2.00000
      7      -2.9878      2.00000
      8      -2.4755      2.00000
      9      -1.9308      2.00000
     10      -0.6762      2.00000
     11      -0.5596      2.00000
     12      -0.2314      2.00000
     13       0.1691      2.00000
     14       0.5097      2.00000
     15       1.2179      2.00000
     16       1.3407      2.00000
     17       1.8296      2.00000
     18       2.1432      2.00000
     19       2.1782      2.00000
     20       3.1147      2.00000
     21       3.9332      0.00000
     22       5.3439      0.00000
     23       5.5987      0.00000
     24       5.6738      0.00000
     25       5.9371      0.00000
     26       6.1162      0.00000
     27       6.4760      0.00000
     28       7.0761      0.00000
     29       7.8791      0.00000
     30       8.3450      0.00000
     31       8.3461      0.00000
     32       8.7476      0.00000

 k-point     2 :       0.1667    0.0000    0.0000
  band No.  band energies     occupation 
      1     -11.0311      2.00000
      2     -10.7518      2.00000
      3      -9.9275      2.00000
      4      -9.5488      2.00000
      5      -5.3037      2.00000
      6      -4.5850      2.00000
      7      -3.6200      2.00000
      8      -2.9261      2.00000
      9      -1.7308      2.00000
     10      -0.3363      2.00000
     11       0.0521      2.00000
     12       0.2393      2.00000
     13       0.2911      2.00000
     14       0.6178      2.00000
     15       1.3553      2.00000
     16       1.6351      2.00000
     17       1.6826      2.00000
     18       1.7864      2.00000
     19       2.4889      2.00000
     20       2.9351      2.00000
     21       4.0903      0.00000
     22       5.0128      0.00000
     23       5.5889      0.00000
     24       5.6210      0.00000
     25       5.7435      0.00000
     26       6.1295      0.00000
     27       6.4617      0.00000
     28       6.8607      0.00000
     29       7.3568      0.00000
     30       7.7623      0.00000
     31       8.3150      0.00000
     32       8.4295      0.00000

 k-point     3 :       0.3333    0.0000    0.0000
  band No.  band energies     occupation 
      1     -10.7479      2.00000
      2     -10.4865      2.00000
      3     -10.0693      2.00000
      4      -9.7762      2.00000
      5      -5.5356      2.00000
      6      -4.6157      2.00000
      7      -4.6092      2.00000
      8      -3.6980      2.00000
      9      -1.2738      2.00000
     10       0.1321      2.00000
     11       0.6242      2.00000
     12       0.9072      2.00000
     13       0.9306      2.00000
     14       1.0026      2.00000
     15       1.3130      2.00000
     16       1.3956      2.00000
     17       1.6044      2.00000
     18       2.4974      2.00000
     19       2.5138      2.00000
     20       2.8855      2.00000
     21       4.2591      0.00000
     22       4.6459      0.00000
     23       4.7577      0.00000
     24       5.2607      0.00000
     25       5.6931      0.00000
     26       5.8612      0.00000
     27       6.4297      0.00000
     28       6.5852      0.00000
     29       6.6725      0.00000
     30       7.3995      0.00000
     31       7.4538      0.00000
     32       8.7162      0.00000

 k-point     4 :       0.5000    0.0000    0.0000
  band No.  band energies     occupation 
      1     -10.3755      2.00000
      2     -10.3755      2.00000
      3     -10.1247      2.00000
      4     -10.1247      2.00000
      5      -5.3145      2.00000
      6      -5.3145      2.00000
      7      -4.3321      2.00000
      8      -4.3321      2.00000
      9      -0.5621      2.00000
     10      -0.5621      2.00000
     11       1.0453      2.00000
     12       1.0453      2.00000
     13       1.2752      2.00000
     14       1.2752      2.00000
     15       1.5731      2.00000
     16       1.5731      2.00000
     17       2.0227      2.00000
     18       2.0227      2.00000
     19       2.6391      2.00000
     20       2.6391      2.00000
     21       4.4613      0.00000
     22       4.4613      0.00000
     23       5.0708      0.00000
     24       5.0708      0.00000
     25       5.6270      0.00000
     26       5.6270      0.00000
     27       5.7738      0.00000
     28       5.7738      0.00000
     29       6.7712      0.00000
     30       6.7712      0.00000
     31       8.4079      0.00000
     32       8.4079      0.00000

 k-point     5 :       0.0000    0.1667    0.0000
  band No.  band energies     occupation 
      1     -10.9392      2.00000
      2     -10.6673      2.00000
      3      -9.7758      2.00000
      4      -9.4068      2.00000
      5      -5.1836      2.00000
      6      -4.7082      2.00000
      7      -3.2061      2.00000
      8      -3.0371      2.00000
      9      -1.7400      2.00000
     10      -0.4646      2.00000
     11      -0.4509      2.00000
     12      -0.3991      2.00000
     13      -0.0258      2.00000
     14       0.0974      2.00000
     15       1.1070      2.00000
     16       1.1304      2.00000
     17       1.3769      2.00000
     18       2.1867      2.00000
     19       2.3610      2.00000
     20       2.8925      2.00000
     21       4.1078      0.00000
     22       5.0277      0.00000
     23       5.5253      0.00000
     24       5.6828      0.00000
     25       6.2986      0.00000
     26       6.4650      0.00000
     27       6.7386      0.00000
     28       6.7407      0.00000
     29       7.0329      0.00000
     30       8.0207      0.00000
     31       8.0331      0.00000
     32       8.1866      0.00000

 k-point     6 :       0.1667    0.1667    0.0000
  band No.  band energies     occupation 
      1     -10.8409      2.00000
      2     -10.5763      2.00000
      3      -9.8056      2.00000
      4      -9.4710      2.00000
      5      -5.3303      2.00000
      6      -4.6804      2.00000
      7      -3.7003      2.00000
      8      -3.2459      2.00000
      9      -1.5731      2.00000
     10      -0.9099      2.00000
     11      -0.5844      2.00000
     12      -0.1022      2.00000
     13       0.6209      2.00000
     14       0.6316      2.00000
     15       0.8386      2.00000
     16       1.0596      2.00000
     17       1.7786      2.00000
     18       1.8252      2.00000
     19       2.4917      2.00000
     20       2.8056      2.00000
     21       4.2379      0.00000
     22       4.9958      0.00000
     23       5.3480      0.00000
     24       5.5086      0.00000
     25       6.0462      0.00000
     26       6.2880      0.00000
     27       6.8510      0.00000
     28       6.9977      0.00000
     29       7.3145      0.00000
     30       7.5145      0.00000
     31       7.7655      0.00000
     32       8.5809      0.00000

 k-point     7 :      -0.1667    0.1667    0.0000
  band No.  band energies     occupation 
      1     -10.8409      2.00000
      2     -10.5763      2.00000
      3      -9.8056      2.00000
      4      -9.4710      2.00000
      5      -5.3303      2.00000
      6      -4.6804      2.00000
      7      -3.7003      2.00000
      8      -3.2459      2.00000
      9      -1.5731      2.00000
     10      -0.9099      2.00000
     11      -0.5844      2.00000
     12      -0.1022      2.00000
     13       0.6209      2.00000
     14       0.6316      2.00000
     15       0.8386      2.00000
     16       1.0596      2.00000
     17       1.7786      2.00000
     18       1.8252      2.00000
     19       2.4917      2.00000
     20       2.8056      2.00000
     21       4.2379      0.00000
     22       4.9958      0.00000
     23       5.3480      0.00000
     24       5.5086      0.00000
     25       6.0462      0.00000
     26       6.2880      0.00000
     27       6.8510      0.00000
     28       6.9977      0.00000
     29       7.3145      0.00000
     30       7.5145      0.00000
     31       7.7655      0.00000
     32       8.5809      0.00000

 k-point     8 :       0.3333    0.1667    0.0000
  band No.  band energies     occupation 
      1     -10.5729      2.00000
      2     -10.3273      2.00000
      3      -9.9400      2.00000
      4      -9.6747      2.00000
      5      -5.4507      2.00000
      6      -4.5966      2.00000
      7      -4.5449      2.00000
      8      -3.7814      2.00000
      9      -1.1147      2.00000
     10      -0.8951      2.00000
     11      -0.5365      2.00000
     12       0.0705      2.00000
     13       0.2774      2.00000
     14       0.6498      2.00000
     15       1.0732      2.00000
     16       1.5451      2.00000
     17       1.8542      2.00000
     18       1.9909      2.00000
     19       2.5446      2.00000
     20       2.5893      2.00000
     21       4.4504      0.00000
     22       5.0867      0.00000
     23       5.4218      0.00000
     24       5.5633      0.00000
     25       5.8746      0.00000
     26       6.1079      0.00000
     27       6.5687      0.00000
     28       7.2240      0.00000
     29       7.2464      0.00000
     30       7.4764      0.00000
     31       7.8487      0.00000
     32       8.5759      0.00000

 k-point     9 :      -0.3333    0.1667    0.0000
  band No.  band energies     occupation 
      1     -10.5729      2.00000
      2     -10.3273      2.00000
      3      -9.9400      2.00000
      4      -9.6747      2.00000
      5      -5.4507      2.00000
      6      -4.5966      2.00000
      7      -4.5449      2.00000
      8      -3.7814      2.00000
      9      -1.1147      2.00000
     10      -0.8951      2.00000
     11      -0.5365      2.00000
     12       0.0705      2.00000
     13       0.2774      2.00000
     14       0.6498      2.00000
     15       1.0732      2.00000
     16       1.5451      2.00000
     17       1.8542      2.00000
     18       1.9909      2.00000
     19       2.5446      2.00000
     20       2.5893      2.00000
     21       4.4504      0.00000
     22       5.0867      0.00000
     23       5.4218      0.00000
     24       5.5633      0.00000
     25       5.8746      0.00000
     26       6.1079      0.00000
     27       6.5687      0.00000
     28       7.2240      0.00000
     29       7.2464      0.00000
     30       7.4764      0.00000
     31       7.8487      0.00000
     32       8.5759      0.00000

 k-point    10 :       0.5000    0.1667    0.0000
  band No.  band energies     occupation 
      1     -10.2246      2.00000
      2     -10.2246      2.00000
      3      -9.9919      2.00000
      4      -9.9919      2.00000
      5      -5.1998      2.00000
      6      -5.1998      2.00000
      7      -4.3039      2.00000
      8      -4.3039      2.00000
      9      -0.6385      2.00000
     10      -0.6385      2.00000
     11      -0.2430      2.00000
     12      -0.2430      2.00000
     13       0.0070      2.00000
     14       0.0070      2.00000
     15       1.4332      2.00000
     16       1.4332      2.00000
     17       2.1451      2.00000
     18       2.1451      2.00000
     19       2.5623      2.00000
     20       2.5623      2.00000
     21       4.6544      0.00000
     22       4.6544      0.00000
     23       5.6110      0.00000
     24       5.6110      0.00000
     25       6.3458      0.00000
     26       6.3458      0.00000
     27       6.7224      0.00000
     28       6.7224      0.00000
     29       7.2404      0.00000
     30       7.2404      0.00000
     31       8.2131      0.00000
     32       8.2131      0.00000

 k-point    11 :       0.0000    0.3333    0.0000
  band No.  band energies     occupation 
      1     -10.4070      2.00000
      2     -10.1910      2.00000
      3      -9.5627      2.00000
      4      -9.3756      2.00000
      5      -5.4625      2.00000
      6      -5.0442      2.00000
      7      -4.2832      2.00000
      8      -3.9831      2.00000
      9      -1.1606      2.00000
     10      -0.6103      2.00000
     11      -0.4136      2.00000
     12      -0.0050      2.00000
     13       0.2410      2.00000
     14       0.4075      2.00000
     15       0.6951      2.00000
     16       1.2000      2.00000
     17       1.3754      2.00000
     18       2.0314      2.00000
     19       2.0878      2.00000
     20       2.1181      2.00000
     21       3.9586      0.00000
     22       4.3751      0.00000
     23       4.5084      0.00000
     24       5.0336      0.00000
     25       5.2343      0.00000
     26       5.7197      0.00000
     27       5.9060      0.00000
     28       6.4137      0.00000
     29       6.8751      0.00000
     30       6.8794      0.00000
     31       7.5428      0.00000
     32       7.9662      0.00000

 k-point    12 :       0.1667    0.3333    0.0000
  band No.  band energies     occupation 
      1     -10.3276      2.00000
      2     -10.1206      2.00000
      3      -9.5819      2.00000
      4      -9.4047      2.00000
      5      -5.4300      2.00000
      6      -4.9508      2.00000
      7      -4.3193      2.00000
      8      -4.0987      2.00000
      9      -1.2748      2.00000
     10      -1.0606      2.00000
     11      -0.9361      2.00000
     12      -0.3577      2.00000
     13       0.3937      2.00000
     14       0.6808      2.00000
     15       0.7330      2.00000
     16       0.9680      2.00000
     17       1.1746      2.00000
     18       1.9782      2.00000
     19       2.0207      2.00000
     20       2.0530      2.00000
     21       4.0597      0.00000
     22       4.7020      0.00000
     23       4.7306      0.00000
     24       5.0335      0.00000
     25       5.8271      0.00000
     26       6.0898      0.00000
     27       6.6229      0.00000
     28       6.7219      0.00000
     29       7.1314      0.00000
     30       7.1667      0.00000
     31       8.0057      0.00000
     32       8.1883      0.00000

 k-point    13 :      -0.1667    0.3333    0.0000
  band No.  band energies     occupation 
      1     -10.3276      2.00000
      2     -10.1206      2.00000
      3      -9.5819      2.00000
      4      -9.4047      2.00000
      5      -5.4300      2.00000
      6      -4.9508      2.00000
      7      -4.3193      2.00000
      8      -4.0987      2.00000
      9      -1.2748      2.00000
     10      -1.0606      2.00000
     11      -0.9361      2.00000
     12      -0.3577      2.00000
     13       0.3937      2.00000
     14       0.6808      2.00000
     15       0.7330      2.00000
     16       0.9680      2.00000
     17       1.1746      2.00000
     18       1.9782      2.00000
     19       2.0207      2.00000
     20       2.0530      2.00000
     21       4.0597      0.00000
     22       4.7020      0.00000
     23       4.7306      0.00000
     24       5.0335      0.00000
     25       5.8271      0.00000
     26       6.0898      0.00000
     27       6.6229      0.00000
     28       6.7219      0.00000
     29       7.1314      0.00000
     30       7.1667      0.00000
     31       8.0057      0.00000
     32       8.1883      0.00000

 k-point    14 :       0.3333    0.3333    0.0000
  band No.  band energies     occupation 
      1     -10.1181      2.00000
      2      -9.9347      2.00000
      3      -9.6690      2.00000
      4      -9.5101      2.00000
      5      -5.3003      2.00000
      6      -4.7230      2.00000
      7      -4.5967      2.00000
      8      -4.2705      2.00000
      9      -1.7511      2.00000
     10      -1.2848      2.00000
     11      -1.0997      2.00000
     12      -0.7253      2.00000
     13      -0.3245      2.00000
     14       0.2897      2.00000
     15       0.3746      2.00000
     16       0.9025      2.00000
     17       1.1094      2.00000
     18       1.6148      2.00000
     19       2.0295      2.00000
     20       2.1746      2.00000
     21       4.1091      0.00000
     22       5.5645      0.00000
     23       6.0391      0.00000
     24       6.0548      0.00000
     25       6.3156      0.00000
     26       6.5145      0.00000
     27       7.0605      0.00000
     28       7.5279      0.00000
     29       7.7908      0.00000
     30       8.0553      0.00000
     31       8.0978      0.00000
     32       9.2232      0.00000

 k-point    15 :      -0.3333    0.3333    0.0000
  band No.  band energies     occupation 
      1     -10.1181      2.00000
      2      -9.9347      2.00000
      3      -9.6690      2.00000
      4      -9.5101      2.00000
      5      -5.3003      2.00000
      6      -4.7230      2.00000
      7      -4.5967      2.00000
      8      -4.2705      2.00000
      9      -1.7511      2.00000
     10      -1.2848      2.00000
     11      -1.0997      2.00000
     12      -0.7253      2.00000
     13      -0.3245      2.00000
     14       0.2897      2.00000
     15       0.3746      2.00000
     16       0.9025      2.00000
     17       1.1094      2.00000
     18       1.6148      2.00000
     19       2.0295      2.00000
     20       2.1746      2.00000
     21       4.1091      0.00000
     22       5.5645      0.00000
     23       6.0391      0.00000
     24       6.0548      0.00000
     25       6.3156      0.00000
     26       6.5145      0.00000
     27       7.0605      0.00000
     28       7.5279      0.00000
     29       7.7908      0.00000
     30       8.0553      0.00000
     31       8.0978      0.00000
     32       9.2232      0.00000

 k-point    16 :       0.5000    0.3333    0.0000
  band No.  band energies     occupation 
      1      -9.8625      2.00000
      2      -9.8625      2.00000
      3      -9.7030      2.00000
      4      -9.7030      2.00000
      5      -5.0113      2.00000
      6      -5.0113      2.00000
      7      -4.4669      2.00000
      8      -4.4669      2.00000
      9      -1.6488      2.00000
     10      -1.6488      2.00000
     11      -1.0409      2.00000
     12      -1.0409      2.00000
     13      -0.2761      2.00000
     14      -0.2761      2.00000
     15       0.6154      2.00000
     16       0.6154      2.00000
     17       1.1059      2.00000
     18       1.1059      2.00000
     19       2.1131      2.00000
     20       2.1131      2.00000
     21       5.0361      0.00000
     22       5.0361      0.00000
     23       6.6212      0.00000
     24       6.6212      0.00000
     25       7.1209      0.00000
     26       7.1209      0.00000
     27       7.5538      0.00000
     28       7.5538      0.00000
     29       7.9854      0.00000
     30       7.9854      0.00000
     31       8.9182      0.00000
     32       8.9182      0.00000

 k-point    17 :       0.0000    0.5000    0.0000
  band No.  band energies     occupation 
      1      -9.7486      2.00000
      2      -9.7486      2.00000
      3      -9.6804      2.00000
      4      -9.6804      2.00000
      5      -5.2836      2.00000
      6      -5.2836      2.00000
      7      -4.8405      2.00000
      8      -4.8405      2.00000
      9      -0.5155      2.00000
     10      -0.5155      2.00000
     11      -0.0209      2.00000
     12      -0.0209      2.00000
     13       0.5357      2.00000
     14       0.5357      2.00000
     15       1.0181      2.00000
     16       1.0181      2.00000
     17       1.3709      2.00000
     18       1.3709      2.00000
     19       1.7563      2.00000
     20       1.7563      2.00000
     21       3.9957      0.00000
     22       3.9957      0.00000
     23       4.4072      0.00000
     24       4.4072      0.00000
     25       5.1458      0.00000
     26       5.1458      0.00000
     27       5.5331      0.00000
     28       5.5331      0.00000
     29       6.6048      0.00000
     30       6.6048      0.00000
     31       7.3588      0.00000
     32       7.3588      0.00000

 k-point    18 :       0.1667    0.5000    0.0000
  band No.  band energies     occupation 
      1      -9.7147      2.00000
      2      -9.7147      2.00000
      3      -9.6548      2.00000
      4      -9.6548      2.00000
      5      -5.2027      2.00000
      6      -5.2027      2.00000
      7      -4.8221      2.00000
      8      -4.8221      2.00000
      9      -0.8231      2.00000
     10      -0.8231      2.00000
     11      -0.4203      2.00000
     12      -0.4203      2.00000
     13       0.0736      2.00000
     14       0.0736      2.00000
     15       0.6588      2.00000
     16       0.6588      2.00000
     17       1.3275      2.00000
     18       1.3275      2.00000
     19       2.0461      2.00000
     20       2.0461      2.00000
     21       3.9818      0.00000
     22       3.9818      0.00000
     23       5.0676      0.00000
     24       5.0676      0.00000
     25       5.9215      0.00000
     26       5.9215      0.00000
     27       6.3932      0.00000
     28       6.3932      0.00000
     29       7.0102      0.00000
     30       7.0102      0.00000
     31       7.1835      0.00000
     32       7.1835      0.00000

 k-point    19 :       0.3333    0.5000    0.0000
  band No.  band energies     occupation 
      1      -9.6415      2.00000
      2      -9.6415      2.00000
      3      -9.6047      2.00000
      4      -9.6047      2.00000
      5      -5.0165      2.00000
      6      -5.0165      2.00000
      7      -4.8010      2.00000
      8      -4.8010      2.00000
      9      -1.4069      2.00000
     10      -1.4069      2.00000
     11      -0.9597      2.00000
     12      -0.9597      2.00000
     13      -0.4743      2.00000
     14      -0.4743      2.00000
     15       0.1743      2.00000
     16       0.1743      2.00000
     17       1.1070      2.00000
     18       1.1070      2.00000
     19       1.9125      2.00000
     20       1.9125      2.00000
     21       4.9534      0.00000
     22       4.9534      0.00000
     23       6.2911      0.00000
     24       6.2911      0.00000
     25       6.7738      0.00000
     26       6.7738      0.00000
     27       7.1776      0.00000
     28       7.1776      0.00000
     29       7.5032      0.00000
     30       7.5032      0.00000
     31       8.6766      0.00000
     32       8.6766      0.00000

 k-point    20 :       0.5000    0.5000    0.0000
  band No.  band energies     occupation 
      1      -9.5983      2.00000
      2      -9.5983      2.00000
      3      -9.5842      2.00000
      4      -9.5842      2.00000
      5      -4.8928      2.00000
      6      -4.8928      2.00000
      7      -4.8157      2.00000
      8      -4.8157      2.00000
      9      -1.6129      2.00000
     10      -1.6129      2.00000
     11      -1.2782      2.00000
     12      -1.2782      2.00000
     13      -0.5473      2.00000
     14      -0.5473      2.00000
     15      -0.2183      2.00000
     16      -0.2183      2.00000
     17       1.2085      2.00000
     18       1.2085      2.00000
[...]
     32       7.2855      0.00000

 k-point    32 :       0.1667    0.3333    0.5000
  band No.  band energies     occupation 
      1     -10.2382      2.00000
      2     -10.2382      2.00000
      3      -9.4787      2.00000
      4      -9.4787      2.00000
      5      -5.2179      2.00000
      6      -5.2179      2.00000
      7      -4.2027      2.00000
      8      -4.2027      2.00000
      9      -1.1815      2.00000
     10      -1.1815      2.00000
     11      -0.4419      2.00000
     12      -0.4419      2.00000
     13       0.3034      2.00000
     14       0.3034      2.00000
     15       0.9655      2.00000
     16       0.9655      2.00000
     17       1.2465      2.00000
     18       1.2465      2.00000
     19       2.1736      2.00000
     20       2.1736      2.00000
     21       4.6826      0.00000
     22       4.6826      0.00000
     23       4.9730      0.00000
     24       4.9730      0.00000
     25       5.9790      0.00000
     26       5.9790      0.00000
     27       6.4217      0.00000
     28       6.4217      0.00000
     29       7.1465      0.00000
     30       7.1465      0.00000
     31       7.7987      0.00000
     32       7.7987      0.00000

 k-point    33 :      -0.1667    0.3333    0.5000
  band No.  band energies     occupation 
      1     -10.2382      2.00000
      2     -10.2382      2.00000
      3      -9.4787      2.00000
      4      -9.4787      2.00000
      5      -5.2179      2.00000
      6      -5.2179      2.00000
      7      -4.2027      2.00000
      8      -4.2027      2.00000
      9      -1.1815      2.00000
     10      -1.1815      2.00000
     11      -0.4419      2.00000
     12      -0.4419      2.00000
     13       0.3034      2.00000
     14       0.3034      2.00000
     15       0.9655      2.00000
     16       0.9655      2.00000
     17       1.2465      2.00000
     18       1.2465      2.00000
     19       2.1736      2.00000
     20       2.1736      2.00000
     21       4.6826      0.00000
     22       4.6826      0.00000
     23       4.9730      0.00000
     24       4.9730      0.00000
     25       5.9790      0.00000
     26       5.9790      0.00000
     27       6.4217      0.00000
     28       6.4217      0.00000
     29       7.1465      0.00000
     30       7.1465      0.00000
     31       7.7987      0.00000
     32       7.7987      0.00000

 k-point    34 :       0.3333    0.3333    0.5000
  band No.  band energies     occupation 
      1     -10.0429      2.00000
      2     -10.0429      2.00000
      3      -9.5733      2.00000
      4      -9.5733      2.00000
      5      -5.0775      2.00000
      6      -5.0775      2.00000
      7      -4.3817      2.00000
      8      -4.3817      2.00000
      9      -1.5532      2.00000
     10      -1.5532      2.00000
     11      -0.8416      2.00000
     12      -0.8416      2.00000
     13      -0.0667      2.00000
     14      -0.0667      2.00000
     15       0.6364      2.00000
     16       0.6364      2.00000
     17       1.3251      2.00000
     18       1.3251      2.00000
     19       2.0814      2.00000
     20       2.0814      2.00000
     21       5.2056      0.00000
     22       5.2056      0.00000
     23       5.8595      0.00000
     24       5.8595      0.00000
     25       6.1624      0.00000
     26       6.1624      0.00000
     27       7.2165      0.00000
     28       7.2165      0.00000
     29       7.5715      0.00000
     30       7.5715      0.00000
     31       8.9851      0.00000
     32       8.9851      0.00000

 k-point    35 :      -0.3333    0.3333    0.5000
  band No.  band energies     occupation 
      1     -10.0429      2.00000
      2     -10.0429      2.00000
      3      -9.5733      2.00000
      4      -9.5733      2.00000
      5      -5.0775      2.00000
      6      -5.0775      2.00000
      7      -4.3817      2.00000
      8      -4.3817      2.00000
      9      -1.5532      2.00000
     10      -1.5532      2.00000
     11      -0.8416      2.00000
     12      -0.8416      2.00000
     13      -0.0667      2.00000
     14      -0.0667      2.00000
     15       0.6364      2.00000
     16       0.6364      2.00000
     17       1.3251      2.00000
     18       1.3251      2.00000
     19       2.0814      2.00000
     20       2.0814      2.00000
     21       5.2056      0.00000
     22       5.2056      0.00000
     23       5.8595      0.00000
     24       5.8595      0.00000
     25       6.1624      0.00000
     26       6.1624      0.00000
     27       7.2165      0.00000
     28       7.2165      0.00000
     29       7.5715      0.00000
     30       7.5715      0.00000
     31       8.9851      0.00000
     32       8.9851      0.00000

 k-point    36 :       0.5000    0.3333    0.5000
  band No.  band energies     occupation 
      1      -9.8594      2.00000
      2      -9.8594      2.00000
      3      -9.7067      2.00000
      4      -9.7067      2.00000
      5      -4.9736      2.00000
      6      -4.9736      2.00000
      7      -4.5161      2.00000
      8      -4.5161      2.00000
      9      -1.4222      2.00000
     10      -1.4222      2.00000
     11      -1.3762      2.00000
     12      -1.3762      2.00000
     13       0.1225      2.00000
     14       0.1225      2.00000
     15       0.1918      2.00000
     16       0.1918      2.00000
     17       1.5430      2.00000
     18       1.5430      2.00000
     19       1.7612      2.00000
     20       1.7612      2.00000
     21       5.5818      0.00000
     22       5.5818      0.00000
     23       6.1339      0.00000
     24       6.1339      0.00000
     25       6.9357      0.00000
     26       6.9357      0.00000
     27       6.9690      0.00000
     28       6.9690      0.00000
     29       8.6266      0.00000
     30       8.6266      0.00000
     31       8.7377      0.00000
     32       8.7377      0.00000

 k-point    37 :       0.0000    0.5000    0.5000
  band No.  band energies     occupation 
      1      -9.7152      2.00000
      2      -9.7152      2.00000
      3      -9.7152      2.00000
      4      -9.7152      2.00000
      5      -5.0749      2.00000
      6      -5.0749      2.00000
      7      -5.0749      2.00000
      8      -5.0749      2.00000
      9      -0.1990      2.00000
     10      -0.1990      2.00000
     11      -0.1990      2.00000
     12      -0.1990      2.00000
     13       0.8145      2.00000
     14       0.8145      2.00000
     15       0.8145      2.00000
     16       0.8145      2.00000
     17       1.3468      2.00000
     18       1.3468      2.00000
     19       1.3468      2.00000
     20       1.3468      2.00000
     21       4.4582      0.00000
     22       4.4582      0.00000
     23       4.4582      0.00000
     24       4.4582      0.00000
     25       5.3129      0.00000
     26       5.3129      0.00000
     27       5.3129      0.00000
     28       5.3129      0.00000
     29       6.7742      0.00000
     30       6.7742      0.00000
     31       6.7742      0.00000
     32       6.7742      0.00000

 k-point    38 :       0.1667    0.5000    0.5000
  band No.  band energies     occupation 
      1      -9.6852      2.00000
      2      -9.6852      2.00000
      3      -9.6852      2.00000
      4      -9.6852      2.00000
      5      -5.0218      2.00000
      6      -5.0218      2.00000
      7      -5.0218      2.00000
      8      -5.0218      2.00000
      9      -0.6195      2.00000
     10      -0.6195      2.00000
     11      -0.6195      2.00000
     12      -0.6195      2.00000
     13       0.4111      2.00000
     14       0.4111      2.00000
     15       0.4111      2.00000
     16       0.4111      2.00000
     17       1.5266      2.00000
     18       1.5266      2.00000
     19       1.5266      2.00000
     20       1.5266      2.00000
     21       4.7749      0.00000
     22       4.7749      0.00000
     23       4.7749      0.00000
     24       4.7749      0.00000
     25       6.1629      0.00000
     26       6.1629      0.00000
     27       6.1629      0.00000
     28       6.1629      0.00000
     29       6.8021      0.00000
     30       6.8021      0.00000
     31       6.8021      0.00000
     32       6.8021      0.00000

 k-point    39 :       0.3333    0.5000    0.5000
  band No.  band energies     occupation 
      1      -9.6233      2.00000
      2      -9.6233      2.00000
      3      -9.6233      2.00000
      4      -9.6233      2.00000
      5      -4.9128      2.00000
      6      -4.9128      2.00000
      7      -4.9128      2.00000
      8      -4.9128      2.00000
      9      -1.1480      2.00000
     10      -1.1480      2.00000
     11      -1.1480      2.00000
     12      -1.1480      2.00000
     13      -0.3092      2.00000
     14      -0.3092      2.00000
     15      -0.3092      2.00000
     16      -0.3092      2.00000
     17       1.6647      2.00000
     18       1.6647      2.00000
     19       1.6647      2.00000
     20       1.6647      2.00000
     21       5.5656      0.00000
     22       5.5656      0.00000
     23       5.5656      0.00000
     24       5.5656      0.00000
     25       6.6137      0.00000
     26       6.6137      0.00000
     27       6.6137      0.00000
     28       6.6137      0.00000
     29       8.2392      0.00000
     30       8.2392      0.00000
     31       8.2392      0.00000
     32       8.2392      0.00000

 k-point    40 :       0.5000    0.5000    0.5000
  band No.  band energies     occupation 
      1      -9.5912      2.00000
      2      -9.5912      2.00000
      3      -9.5912      2.00000
      4      -9.5912      2.00000
      5      -4.8575      2.00000
      6      -4.8575      2.00000
      7      -4.8575      2.00000
      8      -4.8575      2.00000
      9      -1.2929      2.00000
     10      -1.2929      2.00000
     11      -1.2929      2.00000
     12      -1.2929      2.00000
     13      -0.6982      2.00000
     14      -0.6982      2.00000
     15      -0.6982      2.00000
     16      -0.6982      2.00000
     17       1.7340      2.00000
     18       1.7340      2.00000
     19       1.7340      2.00000
     20       1.7340      2.00000
     21       5.5477      0.00000
     22       5.5477      0.00000
     23       5.5477      0.00000
     24       5.5477      0.00000
     25       7.3822      0.00000
     26       7.3822      0.00000
     27       7.3822      0.00000
     28       7.3822      0.00000
     29       9.2351      0.00000
     30       9.2351      0.00000
     31       9.2351      0.00000
     32       9.2351      0.00000


--------------------------------------------------------------------------------------------------------


 soft charge-density along one line, spin component            1
         0         1         2         3         4         5         6         7         8         9
 total charge-density along one line
 
 pseudopotential strength for first ion, spin component:            1
 14.583  18.196   0.000   0.047   0.043   0.000   0.085   0.077
 18.196  22.719   0.000   0.060   0.054   0.000   0.107   0.097
  0.000   0.000   3.237   0.000   0.000   5.511   0.000   0.000
  0.047   0.060   0.000   3.233  -0.003   0.000   5.505  -0.005
  0.043   0.054   0.000  -0.003   3.235   0.000  -0.005   5.508
  0.000   0.000   5.511   0.000   0.000   9.441   0.000   0.000
  0.085   0.107   0.000   5.505  -0.005   0.000   9.430  -0.009
  0.077   0.097   0.000  -0.005   5.508   0.000  -0.009   9.435
  0.000   0.000   0.007   0.000   0.000   0.013   0.000   0.000
  0.000   0.000   0.012   0.000   0.000   0.022   0.000   0.000
 -0.003  -0.004   0.000   0.013  -0.003  -0.000   0.023  -0.007
 -0.006  -0.008   0.000   0.014   0.012   0.000   0.024   0.022
 -0.002  -0.003  -0.000  -0.000   0.013  -0.000  -0.000   0.023
 total augmentation occupancy for first ion, spin component:            1
  2.721  -0.687   0.000   0.374   0.354  -0.000  -0.068  -0.067   0.000   0.000  -0.007  -0.008  -0.010
 -0.687   0.640  -0.000  -0.490  -0.453   0.000   0.077   0.073  -0.000  -0.000   0.005   0.004   0.005
  0.000  -0.000   1.263  -0.000   0.000  -0.218   0.000  -0.000   0.152   0.042  -0.000   0.000  -0.000
  0.374  -0.490  -0.000   1.299   0.083  -0.000  -0.208  -0.002  -0.000  -0.000   0.095  -0.023   0.006
  0.354  -0.453   0.000   0.083   1.265  -0.000  -0.002  -0.207  -0.000   0.000  -0.105   0.051   0.002
 -0.000   0.000  -0.218  -0.000  -0.000   0.042  -0.000   0.000  -0.027  -0.007   0.000   0.000  -0.000
 -0.068   0.077   0.000  -0.208  -0.002  -0.000   0.038  -0.001   0.000   0.000  -0.017   0.004  -0.001
 -0.067   0.073  -0.000  -0.002  -0.207   0.000  -0.001   0.038   0.000  -0.000   0.018  -0.009  -0.001
  0.000  -0.000   0.152  -0.000  -0.000  -0.027   0.000   0.000   0.031   0.004   0.000   0.000  -0.000
  0.000  -0.000   0.042  -0.000   0.000  -0.007   0.000  -0.000   0.004   0.011  -0.000  -0.000  -0.000
 -0.007   0.005  -0.000   0.095  -0.105   0.000  -0.017   0.018   0.000  -0.000   0.029  -0.008   0.002
 -0.008   0.004   0.000  -0.023   0.051   0.000   0.004  -0.009   0.000  -0.000  -0.008   0.012  -0.002
 -0.010   0.005  -0.000   0.006   0.002  -0.000  -0.001  -0.001  -0.000  -0.000   0.002  -0.002   0.009


------------------------ aborting loop because EDIFF is reached ----------------------------------------


    CHARGE:  cpu time      0.0031: real time      0.0031
    FORLOC:  cpu time      0.0002: real time      0.0002
    FORNL :  cpu time      0.0190: real time      0.0190
    STRESS:  cpu time      0.1900: real time      0.1908
    FORCOR:  cpu time      0.0032: real time      0.0032
    FORHAR:  cpu time      0.0008: real time      0.0008
    MIXING:  cpu time      0.0004: real time      0.0004
    OFIELD:  cpu time      0.0000: real time      0.0000

  FORCE on cell =-STRESS in cart. coord.  units (eV):
  Direction    XX          YY          ZZ          XY          YZ          ZX
  --------------------------------------------------------------------------------------
  Alpha Z    85.14794    85.14794    85.14794
  Ewald    -474.26999  -418.57671  -506.94617     0.00000    -0.00000     0.00000
  Hartree    45.44667    72.17534    27.94980     0.00000    -0.00000    -0.00000
  E(xc)    -141.13124  -141.07985  -141.29924    -0.00000    -0.00000     0.00000
  Local    -139.52854  -215.76476   -93.91468    -0.00000     0.00000     0.00000
  n-local   240.50182   240.83337   241.36551     0.00000     0.00000    -0.00000
  augment   -11.78171   -11.38566   -12.16719    -0.00000     0.00000    -0.00000
  Kinetic   395.53844   389.82025   399.91435    -0.00000    -0.00000     0.00000
  Fock        0.00000     0.00000     0.00000     0.00000     0.00000     0.00000
  -------------------------------------------------------------------------------------
  Total      -0.07661     1.16990     0.05032    -0.00000    -0.00000     0.00000
  in kB      -0.61679     9.41904     0.40511    -0.00000    -0.00000     0.00000
  external pressure =        3.07 kB  Pullay stress =        0.00 kB


 VOLUME and BASIS-vectors are now :
 -----------------------------------------------------------------------------
  energy-cutoff  :      360.00
  volume of cell :      199.00
      direct lattice vectors                 reciprocal lattice vectors
     4.700000000  0.000000000  0.000000000     0.212765957  0.000000000  0.000000000
     0.000000000  3.800000000  0.000000000     0.000000000  0.263157895  0.000000000
     0.000000000  0.000000000 11.142221000     0.000000000  0.000000000  0.089748713

  length of vectors
     4.700000000  3.800000000 11.142221000     0.212765957  0.263157895  0.089748713


 FORCES acting on ions
    electron-ion (+dipol)            ewald-force                    non-local-force                 convergence-correction
 -----------------------------------------------------------------------------------------------
   0.177E+02 0.308E-06 0.280E+02   -.203E+02 0.627E-15 -.310E+02   0.262E+01 -.157E-06 0.300E+01   0.292E-04 -.176E-06 -.135E-02
   0.177E+02 0.179E-06 -.280E+02   -.203E+02 -.443E-16 0.310E+02   0.262E+01 -.136E-06 -.300E+01   0.278E-04 -.230E-06 0.134E-02
   -.177E+02 -.230E-06 -.280E+02   0.203E+02 0.148E-16 0.310E+02   -.262E+01 0.133E-06 -.300E+01   -.274E-04 0.101E-06 0.135E-02
   -.177E+02 -.124E-06 0.280E+02   0.203E+02 0.122E-14 -.310E+02   -.262E+01 0.283E-07 0.300E+01   -.294E-04 0.102E-06 -.135E-02
   -.164E+02 -.112E-05 -.256E+02   0.181E+02 0.329E-14 0.272E+02   -.166E+01 0.398E-06 -.164E+01   0.280E-03 0.964E-06 0.283E-02
   -.164E+02 -.213E-05 0.256E+02   0.181E+02 -.255E-16 -.272E+02   -.166E+01 0.105E-05 0.164E+01   0.280E-03 0.108E-05 -.283E-02
   0.164E+02 0.663E-06 0.256E+02   -.181E+02 0.213E-16 -.272E+02   0.166E+01 -.166E-06 0.164E+01   -.275E-03 -.440E-06 -.284E-02
   0.164E+02 0.922E-06 -.256E+02   -.181E+02 0.290E-14 0.272E+02   0.166E+01 -.469E-06 -.164E+01   -.279E-03 -.568E-06 0.284E-02
 -----------------------------------------------------------------------------------------------
   -.473E-05 -.154E-05 -.379E-05   -.107E-13 0.800E-14 0.107E-13   -.338E-06 0.680E-06 0.138E-05   0.519E-05 0.832E-06 0.251E-05
 
 
 POSITION                                       TOTAL-FORCE (eV/Angst)
 -----------------------------------------------------------------------------------
      0.53794      0.95000      1.37884        -0.020628     -0.000000      0.016818
      2.88794      2.85000      4.19227        -0.020628     -0.000000     -0.016819
      4.16206      2.85000      9.76338         0.020629      0.000000     -0.016817
      1.81206      0.95000      6.94995         0.020628      0.000000      0.016818
      4.61500      0.95000      3.90520         0.047790      0.000000     -0.005764
      2.26500      2.85000      1.66591         0.047789     -0.000000      0.005764
      0.08500      2.85000      7.23703        -0.047790      0.000000      0.005763
      2.43500      0.95000      9.47631        -0.047790     -0.000000     -0.005764
 -----------------------------------------------------------------------------------
    total drift:                                0.000000     -0.000000      0.000000


--------------------------------------------------------------------------------------------------------



  FREE ENERGIE OF THE ION-ELECTRON SYSTEM (eV)
  ---------------------------------------------------
  free  energy   TOTEN  =       -33.80404583 eV

  energy  without entropy=      -33.80404583  energy(sigma->0) =      -33.80404583
 


--------------------------------------------------------------------------------------------------------


    POTLOK:  cpu time      0.1128: real time      0.1134


--------------------------------------------------------------------------------------------------------


     LOOP+:  cpu time      4.8976: real time      4.9403
    4ORBIT:  cpu time      0.0000: real time      0.0000

 total amount of memory used by VASP MPI-rank0    38458. kBytes
=======================================================================

   base      :      30000. kBytes
   nonl-proj :       6623. kBytes
   fftplans  :        320. kBytes
   grid      :        455. kBytes
   one-center:         16. kBytes
   wavefun   :       1044. kBytes
 
  
  
 General timing and accounting informations for this job:
 ========================================================
  
                  Total CPU time used (sec):        5.760
                            User time (sec):        5.462
                          System time (sec):        0.297
                         Elapsed time (sec):        7.421
  
                   Maximum memory used (kb):      191268.
                   Average memory used (kb):          N/A
  
                          Minor page faults:        21799
                          Major page faults:           39
                 Voluntary context switches:         7109
