 running  256 mpi-ranks, with    1 threads/rank, on    7 nodes
 distrk:  each k-point on  128 cores,    2 groups
 distr:  one band on    4 cores,   32 groups
 vasp.6.4.1 05Apr23 (build May 18 2023 13:19:41) complex                         
 POSCAR found type information on POSCAR C S 
 POSCAR found :  2 types and     365 ions
 Reading from existing POTCAR
 scaLAPACK will be used
 Reading from existing POTCAR
 -----------------------------------------------------------------------------
|                                                                             |
|               ----> ADVICE to this user running VASP <----                  |
|                                                                             |
|     You have a (more or less) 'large supercell' and for larger cells it     |
|     might be more efficient to use real-space projection operators.         |
|     Therefore, try LREAL= Auto in the INCAR file.                           |
|     Mind: If you want to do very accurate calculations, keep the            |
|     reciprocal projection scheme (i.e. LREAL=.FALSE.).                      |
|                                                                             |
 -----------------------------------------------------------------------------

 LDA part: xc-table for Pade appr. of Perdew
 POSCAR, INCAR and KPOINTS ok, starting setup
 FFT: planning ... GRIDC
 FFT: planning ... GRID_SOFT
 FFT: planning ... GRID
 WAVECAR not read
 WARNING: chargedensity file is incomplete
 WARNING: random wavefunctions but no delay for mixing, default for NELMDL
 entering main loop
       N       E                     dE             d eps       ncg     rms          rms(c)
DAV:   1     0.131049227159E+05    0.13105E+05   -0.45137E+05  4544   0.932E+02
DAV:   2     0.745211200513E+02   -0.13030E+05   -0.12253E+05  5312   0.239E+02
DAV:   3    -0.335268142766E+04   -0.34272E+04   -0.33829E+04  4544   0.130E+02
DAV:   4    -0.353483836846E+04   -0.18216E+03   -0.17946E+03  4384   0.387E+01
DAV:   5    -0.353981774047E+04   -0.49794E+01   -0.49160E+01  4928   0.567E+00    0.744E+01
DAV:   6    -0.341636526845E+04    0.12345E+03   -0.75488E+01  4000   0.786E+00    0.546E+01
DAV:   7    -0.330777162092E+04    0.10859E+03   -0.44025E+02  4032   0.183E+01    0.115E+01
DAV:   8    -0.330624727441E+04    0.15243E+01   -0.24784E+01  4032   0.540E+00    0.704E+00
DAV:   9    -0.330665119091E+04   -0.40392E+00   -0.34450E+00  4128   0.195E+00    0.308E+00
DAV:  10    -0.330643324035E+04    0.21795E+00   -0.15290E+00  3936   0.131E+00    0.930E-01
DAV:  11    -0.330642127322E+04    0.11967E-01   -0.24091E-01  4224   0.514E-01    0.296E-01
DAV:  12    -0.330642323412E+04   -0.19609E-02   -0.26755E-02  4128   0.179E-01    0.159E-01
DAV:  13    -0.330642387473E+04   -0.64061E-03   -0.31714E-03  4448   0.593E-02    0.111E-01
DAV:  14    -0.330642426636E+04   -0.39163E-03   -0.70862E-04  4032   0.326E-02    0.476E-02
DAV:  15    -0.330642438666E+04   -0.12030E-03   -0.26491E-04  4160   0.188E-02    0.173E-02
DAV:  16    -0.330642438767E+04   -0.10022E-05   -0.41058E-05  4064   0.776E-03    0.932E-03
DAV:  17    -0.330642439112E+04   -0.34530E-05   -0.18135E-05  4256   0.459E-03    0.391E-03
DAV:  18    -0.330642439175E+04   -0.62736E-06   -0.28851E-06  3424   0.202E-03
   1 F= -.33204607E+04 E0= -.33204607E+04  d E =-.332046E+04
 BRION: g(F)=  0.198E+02 g(S)=  0.000E+00
 bond charge predicted
       N       E                     dE             d eps       ncg     rms          rms(c)
DAV:   1    -0.329238197454E+04    0.14042E+02   -0.15080E+03  3680   0.413E+01    0.958E+00
DAV:   2    -0.330261542637E+04   -0.10233E+02   -0.11572E+02  4224   0.967E+00    0.813E+00
DAV:   3    -0.330150767161E+04    0.11078E+01   -0.59931E+00  4160   0.360E+00    0.666E+00
DAV:   4    -0.330069268065E+04    0.81499E+00   -0.40700E+00  4096   0.256E+00    0.350E+00
DAV:   5    -0.330077645543E+04   -0.83775E-01   -0.23219E+00  4448   0.195E+00    0.217E+00
DAV:   6    -0.330068244693E+04    0.94008E-01   -0.68185E-01  4416   0.979E-01    0.112E+00
DAV:   7    -0.330067437689E+04    0.80700E-02   -0.20712E-01  4192   0.510E-01    0.490E-01
DAV:   8    -0.330067942653E+04   -0.50496E-02   -0.41539E-02  4160   0.229E-01    0.255E-01
DAV:   9    -0.330068022310E+04   -0.79658E-03   -0.48248E-03  4192   0.848E-02    0.139E-01
DAV:  10    -0.330068028887E+04   -0.65764E-04   -0.16836E-03  4160   0.445E-02    0.536E-02
DAV:  11    -0.330068028902E+04   -0.15507E-06   -0.30026E-04  4448   0.205E-02    0.311E-02
DAV:  12    -0.330068028710E+04    0.19249E-05   -0.11051E-04  4160   0.120E-02    0.118E-02
DAV:  13    -0.330068028772E+04   -0.62387E-06   -0.22913E-05  3968   0.563E-03    0.664E-03
DAV:  14    -0.330068028789E+04   -0.16578E-06   -0.58422E-06  4192   0.258E-03
   2 F= -.33147312E+04 E0= -.33147312E+04  d E =0.572949E+01
 BRION: g(F)=  0.499E+02 g(S)=  0.000E+00 retain N=  1 mean eig= 0.36
 eig:   0.355
 bond charge predicted
       N       E                     dE             d eps       ncg     rms          rms(c)
DAV:   1    -0.330435900960E+04   -0.36787E+01   -0.73100E+02  3776   0.309E+01    0.526E+00
DAV:   2    -0.330634720303E+04   -0.19882E+01   -0.24952E+01  4224   0.516E+00    0.516E+00
DAV:   3    -0.330614408253E+04    0.20312E+00   -0.78738E-01  4288   0.940E-01    0.430E+00
DAV:   4    -0.330575116183E+04    0.39292E+00   -0.85069E-01  4128   0.107E+00    0.182E+00
DAV:   5    -0.330573298933E+04    0.18172E-01   -0.31798E-01  4032   0.604E-01    0.651E-01
DAV:   6    -0.330572855030E+04    0.44390E-02   -0.62256E-02  4128   0.278E-01    0.299E-01
DAV:   7    -0.330572973575E+04   -0.11855E-02   -0.82474E-03  4032   0.102E-01    0.156E-01
DAV:   8    -0.330572939178E+04    0.34397E-03   -0.21990E-03  4224   0.526E-02    0.678E-02
DAV:   9    -0.330572936281E+04    0.28974E-04   -0.53737E-04  4032   0.269E-02    0.332E-02
DAV:  10    -0.330572935416E+04    0.86507E-05   -0.14609E-04  4224   0.137E-02    0.165E-02
DAV:  11    -0.330572935321E+04    0.94739E-06   -0.28412E-05  4160   0.581E-03    0.899E-03
DAV:  12    -0.330572935184E+04    0.13711E-05   -0.63287E-06  4256   0.279E-03    0.394E-03
DAV:  13    -0.330572935175E+04    0.87428E-07   -0.15246E-06  2752   0.144E-03
   3 F= -.33197807E+04 E0= -.33197807E+04  d E =-.504956E+01
 BRION: g(F)=  0.220E+02 g(S)=  0.000E+00 retain N=  2 mean eig= 0.70
 eig:   0.205  1.203
 bond charge predicted
       N       E                     dE             d eps       ncg     rms          rms(c)
DAV:   1    -0.330908063863E+04   -0.33513E+01   -0.24675E+02  3648   0.179E+01    0.282E+00
DAV:   2    -0.330956256459E+04   -0.48193E+00   -0.64531E+00  4256   0.277E+00    0.287E+00
DAV:   3    -0.330951994168E+04    0.42623E-01   -0.23562E-01  4704   0.498E-01    0.252E+00
DAV:   4    -0.330937889862E+04    0.14104E+00   -0.31109E-01  4320   0.650E-01    0.110E+00
DAV:   5    -0.330936857543E+04    0.10323E-01   -0.98504E-02  4064   0.355E-01    0.475E-01
DAV:   6    -0.330936709985E+04    0.14756E-02   -0.19778E-02  4256   0.158E-01    0.183E-01
DAV:   7    -0.330936739483E+04   -0.29497E-03   -0.29720E-03  4032   0.608E-02    0.936E-02
DAV:   8    -0.330936730514E+04    0.89681E-04   -0.70803E-04  4224   0.312E-02    0.429E-02
DAV:   9    -0.330936730411E+04    0.10302E-05   -0.16025E-04  4192   0.157E-02    0.196E-02
DAV:  10    -0.330936730255E+04    0.15687E-05   -0.56157E-05  4192   0.886E-03    0.926E-03
DAV:  11    -0.330936730203E+04    0.51386E-06   -0.10879E-05  4128   0.389E-03    0.560E-03
DAV:  12    -0.330936730169E+04    0.34028E-06   -0.36395E-06  4064   0.203E-03
   4 F= -.33234202E+04 E0= -.33234202E+04  d E =-.363946E+01
 BRION: g(F)=  0.596E+01 g(S)=  0.000E+00 retain N=  3 mean eig= 1.88
 eig:   4.948  0.339  0.339
 bond charge predicted
       N       E                     dE             d eps       ncg     rms          rms(c)
DAV:   1    -0.331023374750E+04   -0.86645E+00   -0.69763E+01  3648   0.966E+00    0.149E+00
DAV:   2    -0.331035085363E+04   -0.11711E+00   -0.16251E+00  4256   0.142E+00    0.151E+00
DAV:   3    -0.331033894781E+04    0.11906E-01   -0.57875E-02  4864   0.250E-01    0.134E+00
DAV:   4    -0.331030058023E+04    0.38368E-01   -0.90478E-02  4224   0.372E-01    0.564E-01
DAV:   5    -0.331029896293E+04    0.16173E-02   -0.27836E-02  3968   0.189E-01    0.228E-01
DAV:   6    -0.331029913897E+04   -0.17604E-03   -0.40173E-03  4256   0.708E-02    0.898E-02
DAV:   7    -0.331029907719E+04    0.61777E-04   -0.72819E-04  4096   0.314E-02    0.492E-02
DAV:   8    -0.331029906448E+04    0.12707E-04   -0.17964E-04  4192   0.151E-02    0.247E-02
DAV:   9    -0.331029906074E+04    0.37447E-05   -0.44362E-05  4160   0.832E-03    0.105E-02
DAV:  10    -0.331029906065E+04    0.84983E-07   -0.15698E-05  4256   0.457E-03    0.508E-03
DAV:  11    -0.331029906040E+04    0.25646E-06   -0.24743E-06  3008   0.200E-03
   5 F= -.33243534E+04 E0= -.33243534E+04  d E =-.933153E+00
 BRION: g(F)=  0.266E+01 g(S)=  0.000E+00 retain N=  3 mean eig= 1.19
 eig:   3.004  0.281  0.281
 bond charge predicted
       N       E                     dE             d eps       ncg     rms          rms(c)
DAV:   1    -0.330951496389E+04    0.78410E+00   -0.26793E+02  3616   0.181E+01    0.347E+00
DAV:   2    -0.330995854576E+04   -0.44358E+00   -0.67954E+00  4224   0.289E+00    0.314E+00
DAV:   3    -0.330981769961E+04    0.14085E+00   -0.40020E-01  4448   0.768E-01    0.210E+00
DAV:   4    -0.330975656311E+04    0.61137E-01   -0.31713E-01  4128   0.619E-01    0.801E-01
DAV:   5    -0.330975396612E+04    0.25970E-02   -0.60391E-02  4128   0.270E-01    0.295E-01
DAV:   6    -0.330975456424E+04   -0.59812E-03   -0.12227E-02  4352   0.109E-01    0.142E-01
DAV:   7    -0.330975434723E+04    0.21701E-03   -0.16271E-03  4064   0.489E-02    0.810E-02
DAV:   8    -0.330975438923E+04   -0.41998E-04   -0.50188E-04  4160   0.248E-02    0.356E-02
DAV:   9    -0.330975438738E+04    0.18529E-05   -0.10654E-04  4128   0.132E-02    0.149E-02
DAV:  10    -0.330975438855E+04   -0.11756E-05   -0.34416E-05  4160   0.658E-03    0.631E-03
DAV:  11    -0.330975438804E+04    0.51572E-06   -0.54678E-06  4224   0.287E-03
   6 F= -.33238079E+04 E0= -.33238079E+04  d E =0.545469E+00
 BRION: g(F)=  0.141E+02 g(S)=  0.000E+00 retain N=  4 mean eig= 1.27
 eig:   4.246  0.361  0.361  0.101
 bond charge predicted
       N       E                     dE             d eps       ncg     rms          rms(c)
DAV:   1    -0.331073468499E+04   -0.98030E+00   -0.13103E+02  3712   0.131E+01    0.227E+00
DAV:   2    -0.331099347147E+04   -0.25879E+00   -0.36222E+00  4192   0.194E+00    0.232E+00
DAV:   3    -0.331097425280E+04    0.19219E-01   -0.11996E-01  4576   0.344E-01    0.212E+00
DAV:   4    -0.331087372123E+04    0.10053E+00   -0.14521E-01  3968   0.460E-01    0.105E+00
DAV:   5    -0.331085886190E+04    0.14859E-01   -0.85967E-02  4064   0.319E-01    0.368E-01
DAV:   6    -0.331085911495E+04   -0.25306E-03   -0.13893E-02  4096   0.129E-01    0.217E-01
DAV:   7    -0.331085905255E+04    0.62406E-04   -0.20912E-03  4256   0.561E-02    0.103E-01
DAV:   8    -0.331085891102E+04    0.14152E-03   -0.91953E-04  4096   0.341E-02    0.475E-02
DAV:   9    -0.331085892055E+04   -0.95242E-05   -0.20122E-04  4352   0.159E-02    0.204E-02
DAV:  10    -0.331085892337E+04   -0.28276E-05   -0.47381E-05  4192   0.781E-03    0.114E-02
DAV:  11    -0.331085892455E+04   -0.11728E-05   -0.11802E-05  3968   0.443E-03    0.511E-03
DAV:  12    -0.331085892422E+04    0.32841E-06   -0.37596E-06  4000   0.248E-03
   7 F= -.33249143E+04 E0= -.33249143E+04  d E =-.110644E+01
 BRION: g(F)=  0.127E+01 g(S)=  0.000E+00 retain N=  1 mean eig= 0.21
 eig:   0.205
 bond charge predicted
       N       E                     dE             d eps       ncg     rms          rms(c)
DAV:   1    -0.331067441826E+04    0.18451E+00   -0.42772E+01  3648   0.773E+00    0.122E+00
DAV:   2    -0.331074873489E+04   -0.74317E-01   -0.10653E+00  4256   0.113E+00    0.124E+00
DAV:   3    -0.331074042338E+04    0.83115E-02   -0.40745E-02  4896   0.208E-01    0.109E+00
DAV:   4    -0.331071413707E+04    0.26286E-01   -0.51445E-02  4416   0.294E-01    0.494E-01
DAV:   5    -0.331071231254E+04    0.18245E-02   -0.23650E-02  3968   0.175E-01    0.171E-01
DAV:   6    -0.331071241983E+04   -0.10729E-03   -0.30778E-03  4192   0.606E-02    0.752E-02
DAV:   7    -0.331071243645E+04   -0.16622E-04   -0.45788E-04  4256   0.232E-02    0.394E-02
DAV:   8    -0.331071242519E+04    0.11264E-04   -0.75582E-05  4096   0.108E-02    0.209E-02
DAV:   9    -0.331071242512E+04    0.69034E-07   -0.32347E-05  4128   0.695E-03    0.835E-03
DAV:  10    -0.331071242497E+04    0.14866E-06   -0.92175E-06  4224   0.376E-03
   8 F= -.33247685E+04 E0= -.33247685E+04  d E =0.145868E+00
 BRION: g(F)=  0.287E+01 g(S)=  0.000E+00 retain N=  2 mean eig= 0.08
 eig:   0.083  0.083
 bond charge predicted
       N       E                     dE             d eps       ncg     rms          rms(c)
DAV:   1    -0.331101079709E+04   -0.29837E+00   -0.21509E+01  3648   0.548E+00    0.911E-01
DAV:   2    -0.331104613062E+04   -0.35334E-01   -0.54826E-01  4224   0.808E-01    0.927E-01
DAV:   3    -0.331104136509E+04    0.47655E-02   -0.20655E-02  4832   0.146E-01    0.820E-01
DAV:   4    -0.331102610511E+04    0.15260E-01   -0.23745E-02  4416   0.192E-01    0.400E-01
DAV:   5    -0.331102408467E+04    0.20204E-02   -0.12583E-02  3968   0.127E-01    0.130E-01
DAV:   6    -0.331102416980E+04   -0.85127E-04   -0.19052E-03  4224   0.486E-02    0.535E-02
DAV:   7    -0.331102419186E+04   -0.22059E-04   -0.24416E-04  4160   0.185E-02    0.295E-02
DAV:   8    -0.331102417850E+04    0.13354E-04   -0.72652E-05  3968   0.101E-02    0.152E-02
DAV:   9    -0.331102417949E+04   -0.99069E-06   -0.21522E-05  4352   0.533E-03    0.594E-03
DAV:  10    -0.331102417939E+04    0.99652E-07   -0.40370E-06  3744   0.236E-03
   9 F= -.33250800E+04 E0= -.33250800E+04  d E =-.311555E+00
 BRION: g(F)=  0.193E+00 g(S)=  0.000E+00 retain N=  1 mean eig= 0.22
 eig:   0.217
 bond charge predicted
       N       E                     dE             d eps       ncg     rms          rms(c)
DAV:   1    -0.331095985380E+04    0.64326E-01   -0.15775E+01  3648   0.467E+00    0.754E-01
DAV:   2    -0.331098444165E+04   -0.24588E-01   -0.37430E-01  4192   0.679E-01    0.747E-01
DAV:   3    -0.331098012081E+04    0.43208E-02   -0.16778E-02  4672   0.137E-01    0.621E-01
DAV:   4    -0.331097299245E+04    0.71284E-02   -0.14834E-02  4160   0.157E-01    0.288E-01
DAV:   5    -0.331097249899E+04    0.49345E-03   -0.73390E-03  3968   0.979E-02    0.849E-02
DAV:   6    -0.331097257321E+04   -0.74212E-04   -0.90534E-04  4256   0.341E-02    0.410E-02
DAV:   7    -0.331097255199E+04    0.21217E-04   -0.15086E-04  4128   0.138E-02    0.223E-02
DAV:   8    -0.331097254600E+04    0.59922E-05   -0.43787E-05  4128   0.719E-03    0.110E-02
DAV:   9    -0.331097254568E+04    0.32037E-06   -0.79493E-06  4128   0.345E-03
  10 F= -.33250284E+04 E0= -.33250284E+04  d E =0.516416E-01
 BRION: g(F)=  0.758E+00 g(S)=  0.000E+00 retain N=  2 mean eig= 0.26
 eig:   0.257  0.257
 bond charge predicted
       N       E                     dE             d eps       ncg     rms          rms(c)
DAV:   1    -0.331105415464E+04   -0.81609E-01   -0.74203E+00  3648   0.325E+00    0.518E-01
DAV:   2    -0.331106673218E+04   -0.12578E-01   -0.18625E-01  4224   0.478E-01    0.526E-01
DAV:   3    -0.331106516049E+04    0.15717E-02   -0.71870E-03  4864   0.863E-02    0.462E-01
DAV:   4    -0.331106066007E+04    0.45004E-02   -0.75459E-03  4352   0.110E-01    0.227E-01
DAV:   5    -0.331106013219E+04    0.52788E-03   -0.38306E-03  3968   0.709E-02    0.743E-02
DAV:   6    -0.331106017637E+04   -0.44176E-04   -0.56264E-04  4320   0.257E-02    0.297E-02
DAV:   7    -0.331106017998E+04   -0.36129E-05   -0.55515E-05  4288   0.859E-03    0.170E-02
DAV:   8    -0.331106017587E+04    0.41076E-05   -0.22478E-05  3968   0.551E-03    0.696E-03
DAV:   9    -0.331106017597E+04   -0.10000E-06   -0.47269E-06  4128   0.259E-03
  11 F= -.33251165E+04 E0= -.33251165E+04  d E =-.881138E-01
 BRION: g(F)=  0.699E-01 g(S)=  0.000E+00 retain N=  1 mean eig= 0.24
 eig:   0.245
 bond charge predicted
       N       E                     dE             d eps       ncg     rms          rms(c)
DAV:   1    -0.331104334954E+04    0.16826E-01   -0.45143E+00  3680   0.251E+00    0.397E-01
DAV:   2    -0.331105154335E+04   -0.81938E-02   -0.11622E-01  4160   0.374E-01    0.400E-01
DAV:   3    -0.331105051317E+04    0.10302E-02   -0.49310E-03  4800   0.725E-02    0.346E-01
DAV:   4    -0.331104807554E+04    0.24376E-02   -0.60474E-03  4288   0.102E-01    0.152E-01
DAV:   5    -0.331104800795E+04    0.67585E-04   -0.25723E-03  4032   0.580E-02    0.555E-02
DAV:   6    -0.331104800957E+04   -0.16211E-05   -0.33374E-04  4128   0.212E-02    0.243E-02
DAV:   7    -0.331104801026E+04   -0.68208E-06   -0.63851E-05  4064   0.886E-03    0.126E-02
DAV:   8    -0.331104801001E+04    0.24482E-06   -0.13898E-05  4224   0.433E-03    0.606E-03
DAV:   9    -0.331104801004E+04   -0.29104E-07   -0.22489E-06  3104   0.199E-03
  12 F= -.33251043E+04 E0= -.33251043E+04  d E =0.122088E-01
 BRION: g(F)=  0.239E+00 g(S)=  0.000E+00 retain N=  2 mean eig= 0.21
 eig:   0.213  0.213
 bond charge predicted
       N       E                     dE             d eps       ncg     rms          rms(c)
DAV:   1    -0.331107349455E+04   -0.25485E-01   -0.20706E+00  3648   0.172E+00    0.279E-01
DAV:   2    -0.331107698968E+04   -0.34951E-02   -0.52541E-02  4256   0.255E-01    0.286E-01
DAV:   3    -0.331107665944E+04    0.33023E-03   -0.20424E-03  5056   0.453E-02    0.260E-01
DAV:   4    -0.331107512615E+04    0.15333E-02   -0.26681E-03  4416   0.653E-02    0.125E-01
DAV:   5    -0.331107496814E+04    0.15801E-03   -0.12388E-03  3968   0.400E-02    0.482E-02
DAV:   6    -0.331107497314E+04   -0.50068E-05   -0.19391E-04  4320   0.158E-02    0.199E-02
DAV:   7    -0.331107497449E+04   -0.13433E-05   -0.24248E-05  4096   0.566E-03    0.118E-02
DAV:   8    -0.331107497248E+04    0.20030E-05   -0.87872E-06  4064   0.346E-03    0.537E-03
DAV:   9    -0.331107497246E+04    0.23632E-07   -0.20708E-06  2752   0.180E-03
  13 F= -.33251314E+04 E0= -.33251314E+04  d E =-.271480E-01
 BRION: g(F)=  0.246E-01 g(S)=  0.000E+00 retain N=  1 mean eig= 0.22
 eig:   0.221
 bond charge predicted
       N       E                     dE             d eps       ncg     rms          rms(c)
DAV:   1    -0.331106936521E+04    0.56073E-02   -0.17854E+00  3648   0.157E+00    0.255E-01
DAV:   2    -0.331107255545E+04   -0.31902E-02   -0.45680E-02  4128   0.229E-01    0.248E-01
DAV:   3    -0.331107205674E+04    0.49870E-03   -0.19677E-03  4672   0.480E-02    0.204E-01
DAV:   4    -0.331107128806E+04    0.76869E-03   -0.18508E-03  4320   0.560E-02    0.854E-02
DAV:   5    -0.331107128055E+04    0.75055E-05   -0.78526E-04  3968   0.324E-02    0.281E-02
DAV:   6    -0.331107128007E+04    0.48196E-06   -0.10368E-04  4160   0.122E-02    0.133E-02
DAV:   7    -0.331107127995E+04    0.11502E-06   -0.23380E-05  4064   0.522E-03    0.730E-03
DAV:   8    -0.331107127966E+04    0.29150E-06   -0.35012E-06  3680   0.238E-03
  14 F= -.33251279E+04 E0= -.33251279E+04  d E =0.350380E-02
 BRION: g(F)=  0.103E+00 g(S)=  0.000E+00 retain N=  2 mean eig= 0.14
 eig:   0.142  0.142
 bond charge predicted
       N       E                     dE             d eps       ncg     rms          rms(c)
DAV:   1    -0.331108203757E+04   -0.10758E-01   -0.78513E-01  3648   0.106E+00    0.169E-01
DAV:   2    -0.331108342599E+04   -0.13884E-02   -0.20279E-02  4288   0.157E-01    0.174E-01
DAV:   3    -0.331108330879E+04    0.11721E-03   -0.75881E-04  5056   0.277E-02    0.159E-01
DAV:   4    -0.331108276669E+04    0.54209E-03   -0.77106E-04  4416   0.365E-02    0.832E-02
DAV:   5    -0.331108267855E+04    0.88146E-04   -0.59122E-04  3936   0.280E-02    0.277E-02
DAV:   6    -0.331108268225E+04   -0.37064E-05   -0.95541E-05  4128   0.109E-02    0.140E-02
DAV:   7    -0.331108268340E+04   -0.11503E-05   -0.12048E-05  4096   0.407E-03    0.713E-03
DAV:   8    -0.331108268270E+04    0.70280E-06   -0.32457E-06  3648   0.225E-03
  15 F= -.33251393E+04 E0= -.33251393E+04  d E =-.113643E-01
 BRION: g(F)=  0.111E-01 g(S)=  0.000E+00 retain N=  1 mean eig= 0.21
 eig:   0.208
 bond charge predicted
       N       E                     dE             d eps       ncg     rms          rms(c)
DAV:   1    -0.331108207978E+04    0.60363E-03   -0.83628E-01  3712   0.106E+00    0.167E-01
DAV:   2    -0.331108372021E+04   -0.16404E-02   -0.21584E-02  4160   0.153E-01    0.161E-01
DAV:   3    -0.331108350143E+04    0.21878E-03   -0.80171E-04  4640   0.315E-02    0.131E-01
DAV:   4    -0.331108320862E+04    0.29281E-03   -0.92931E-04  4288   0.405E-02    0.495E-02
DAV:   5    -0.331108322195E+04   -0.13323E-04   -0.33652E-04  3968   0.217E-02    0.182E-02
DAV:   6    -0.331108322118E+04    0.76217E-06   -0.46020E-05  4160   0.777E-03    0.957E-03
DAV:   7    -0.331108322080E+04    0.38440E-06   -0.95939E-06  4096   0.349E-03
  16 F= -.33251399E+04 E0= -.33251399E+04  d E =-.633388E-03
 BRION: g(F)=  0.391E-01 g(S)=  0.000E+00 retain N=  2 mean eig= 0.21
 eig:   0.215  0.215
 bond charge predicted
       N       E                     dE             d eps       ncg     rms          rms(c)
DAV:   1    -0.331108741881E+04   -0.41976E-02   -0.29831E-01  3648   0.659E-01    0.105E-01
DAV:   2    -0.331108795972E+04   -0.54091E-03   -0.77422E-03  4224   0.965E-02    0.107E-01
DAV:   3    -0.331108791206E+04    0.47663E-04   -0.29174E-04  5120   0.173E-02    0.971E-02
DAV:   4    -0.331108770439E+04    0.20766E-03   -0.29140E-04  4448   0.227E-02    0.482E-02
DAV:   5    -0.331108767629E+04    0.28099E-04   -0.21313E-04  3968   0.170E-02    0.151E-02
DAV:   6    -0.331108767783E+04   -0.15385E-05   -0.34828E-05  4160   0.662E-03    0.736E-03
DAV:   7    -0.331108767831E+04   -0.47870E-06   -0.31830E-06  3104   0.203E-03
  17 F= -.33251444E+04 E0= -.33251444E+04  d E =-.448372E-02
 BRION: g(F)=  0.590E-02 g(S)=  0.000E+00 retain N=  2 mean eig= 3.92
 eig:   0.216  7.631
 bond charge predicted
       N       E                     dE             d eps       ncg     rms          rms(c)
DAV:   1    -0.331108927781E+04   -0.16000E-02   -0.15309E-01  3680   0.443E-01    0.735E-02
DAV:   2    -0.331108955377E+04   -0.27596E-03   -0.37673E-03  4160   0.614E-02    0.667E-02
DAV:   3    -0.331108951456E+04    0.39209E-04   -0.14620E-04  4512   0.141E-02    0.522E-02
DAV:   4    -0.331108948293E+04    0.31624E-04   -0.14770E-04  4096   0.157E-02    0.180E-02
DAV:   5    -0.331108948579E+04   -0.28588E-05   -0.44490E-05  4064   0.803E-03    0.755E-03
DAV:   6    -0.331108948570E+04    0.91852E-07   -0.74008E-06  4128   0.318E-03
  18 F= -.33251463E+04 E0= -.33251463E+04  d E =-.185651E-02
 BRION: g(F)=  0.442E-02 g(S)=  0.000E+00 retain N=  2 mean eig= 0.14
 eig:   0.136  0.136
 bond charge predicted
       N       E                     dE             d eps       ncg     rms          rms(c)
DAV:   1    -0.331109077716E+04   -0.12914E-02   -0.19895E-01  3680   0.499E-01    0.826E-02
DAV:   2    -0.331109115045E+04   -0.37329E-03   -0.49366E-03  4128   0.687E-02    0.742E-02
DAV:   3    -0.331109109979E+04    0.50664E-04   -0.17588E-04  4608   0.152E-02    0.579E-02
DAV:   4    -0.331109106013E+04    0.39653E-04   -0.19868E-04  4096   0.178E-02    0.189E-02
DAV:   5    -0.331109106376E+04   -0.36310E-05   -0.53168E-05  4032   0.882E-03    0.861E-03
DAV:   6    -0.331109106346E+04    0.30885E-06   -0.10662E-05  4160   0.361E-03    0.394E-03
DAV:   7    -0.331109106358E+04   -0.12561E-06   -0.12269E-06  2496   0.148E-03
  19 F= -.33251479E+04 E0= -.33251479E+04  d E =-.159639E-02
 BRION: g(F)=  0.756E-02 g(S)=  0.000E+00 retain N=  3 mean eig= 0.34
 eig:   0.523  0.256  0.256
 bond charge predicted
       N       E                     dE             d eps       ncg     rms          rms(c)
DAV:   1    -0.331109210354E+04   -0.10401E-02   -0.58304E-02  3712   0.283E-01    0.457E-02
DAV:   2    -0.331109221292E+04   -0.10938E-03   -0.15033E-03  4256   0.406E-02    0.449E-02
DAV:   3    -0.331109219728E+04    0.15634E-04   -0.53794E-05  4864   0.774E-03    0.377E-02
DAV:   4    -0.331109216793E+04    0.29348E-04   -0.63403E-05  4032   0.102E-02    0.145E-02
DAV:   5    -0.331109216802E+04   -0.90338E-07   -0.25471E-05  4128   0.573E-03    0.491E-03
DAV:   6    -0.331109216787E+04    0.15716E-06   -0.37439E-06  3328   0.224E-03
  20 F= -.33251490E+04 E0= -.33251490E+04  d E =-.113130E-02
 BRION: g(F)=  0.265E-02 g(S)=  0.000E+00 retain N=  2 mean eig= 2.95
 eig:   0.181  5.712
 bond charge predicted
       N       E                     dE             d eps       ncg     rms          rms(c)
DAV:   1    -0.331109366249E+04   -0.14945E-02   -0.16327E-01  3712   0.438E-01    0.745E-02
DAV:   2    -0.331109394729E+04   -0.28481E-03   -0.37544E-03  4064   0.565E-02    0.623E-02
DAV:   3    -0.331109391457E+04    0.32727E-04   -0.10624E-04  4480   0.131E-02    0.472E-02
DAV:   4    -0.331109390491E+04    0.96612E-05   -0.15377E-04  4000   0.147E-02    0.115E-02
DAV:   5    -0.331109390521E+04   -0.30757E-06   -0.33160E-05  4064   0.691E-03    0.742E-03
DAV:   6    -0.331109390467E+04    0.53924E-06   -0.80410E-06  4096   0.305E-03
  21 F= -.33251508E+04 E0= -.33251508E+04  d E =-.178702E-02
 BRION: g(F)=  0.252E-02 g(S)=  0.000E+00 retain N=  2 mean eig= 0.15
 eig:   0.099  0.210
 bond charge predicted
       N       E                     dE             d eps       ncg     rms          rms(c)
DAV:   1    -0.331109482704E+04   -0.92182E-03   -0.64959E-02  3744   0.282E-01    0.466E-02
DAV:   2    -0.331109494045E+04   -0.11342E-03   -0.15036E-03  4096   0.374E-02    0.410E-02
DAV:   3    -0.331109492573E+04    0.14724E-04   -0.49085E-05  4416   0.843E-03    0.316E-02
DAV:   4    -0.331109491796E+04    0.77696E-05   -0.65963E-05  4064   0.992E-03    0.916E-03
DAV:   5    -0.331109491872E+04   -0.75484E-06   -0.14884E-05  4032   0.473E-03    0.496E-03
DAV:   6    -0.331109491863E+04    0.89640E-07   -0.33812E-06  3648   0.203E-03
  22 F= -.33251518E+04 E0= -.33251518E+04  d E =-.101807E-02
 BRION: g(F)=  0.214E-02 g(S)=  0.000E+00 retain N=  2 mean eig= 1.69
 eig:   0.118  3.262
 bond charge predicted
       N       E                     dE             d eps       ncg     rms          rms(c)
DAV:   1    -0.331109631441E+04   -0.13957E-02   -0.23366E-01  3712   0.527E-01    0.875E-02
DAV:   2    -0.331109670846E+04   -0.39404E-03   -0.51764E-03  4064   0.672E-02    0.744E-02
DAV:   3    -0.331109666187E+04    0.46585E-04   -0.14915E-04  4416   0.155E-02    0.566E-02
DAV:   4    -0.331109664706E+04    0.14814E-04   -0.22622E-04  4032   0.179E-02    0.134E-02
DAV:   5    -0.331109664725E+04   -0.19488E-06   -0.49387E-05  4032   0.840E-03    0.888E-03
DAV:   6    -0.331109664639E+04    0.86031E-06   -0.11359E-05  4128   0.355E-03    0.414E-03
DAV:   7    -0.331109664669E+04   -0.29569E-06   -0.13098E-06  2720   0.144E-03
  23 F= -.33251536E+04 E0= -.33251536E+04  d E =-.177241E-02
 BRION: g(F)=  0.286E-02 g(S)=  0.000E+00 retain N=  2 mean eig= 0.28
 eig:   0.280  0.280
 bond charge predicted
       N       E                     dE             d eps       ncg     rms          rms(c)
DAV:   1    -0.331109670559E+04   -0.59200E-04   -0.18651E-02  3712   0.164E-01    0.264E-02
DAV:   2    -0.331109673912E+04   -0.33533E-04   -0.48386E-04  4256   0.240E-02    0.274E-02
DAV:   3    -0.331109673773E+04    0.13976E-05   -0.16623E-05  4992   0.406E-03    0.260E-02
DAV:   4    -0.331109672242E+04    0.15312E-04   -0.19660E-05  3968   0.565E-03    0.139E-02
DAV:   5    -0.331109671967E+04    0.27424E-05   -0.15524E-05  4064   0.448E-03    0.511E-03
DAV:   6    -0.331109671977E+04   -0.10058E-06   -0.24507E-06  2496   0.184E-03
  24 F= -.33251536E+04 E0= -.33251536E+04  d E =-.711787E-04
 BRION: g(F)=  0.199E-02 g(S)=  0.000E+00 retain N=  2 mean eig= 1.36
 eig:   0.228  2.486
 bond charge predicted
       N       E                     dE             d eps       ncg     rms          rms(c)
DAV:   1    -0.331109776185E+04   -0.10422E-02   -0.11436E-01  3680   0.371E-01    0.606E-02
DAV:   2    -0.331109794591E+04   -0.18406E-03   -0.24439E-03  4064   0.467E-02    0.522E-02
DAV:   3    -0.331109792219E+04    0.23715E-04   -0.70496E-05  4384   0.108E-02    0.397E-02
DAV:   4    -0.331109791325E+04    0.89444E-05   -0.11046E-04  4000   0.125E-02    0.916E-03
DAV:   5    -0.331109791352E+04   -0.26950E-06   -0.23453E-05  3968   0.575E-03    0.612E-03
DAV:   6    -0.331109791311E+04    0.40955E-06   -0.48359E-06  4128   0.233E-03
  25 F= -.33251548E+04 E0= -.33251548E+04  d E =-.121161E-02
 BRION: g(F)=  0.176E-02 g(S)=  0.000E+00 retain N=  2 mean eig= 0.52
 eig:   0.189  0.850
 bond charge predicted
       N       E                     dE             d eps       ncg     rms          rms(c)
DAV:   1    -0.331109848900E+04   -0.57548E-03   -0.35600E-02  3776   0.211E-01    0.338E-02
DAV:   2    -0.331109854784E+04   -0.58837E-04   -0.77956E-04  4096   0.273E-02    0.303E-02
DAV:   3    -0.331109854011E+04    0.77296E-05   -0.24903E-05  4480   0.609E-03    0.236E-02
DAV:   4    -0.331109853601E+04    0.40967E-05   -0.34279E-05  4096   0.729E-03    0.644E-03
DAV:   5    -0.331109853647E+04   -0.46159E-06   -0.79120E-06  4000   0.347E-03
  26 F= -.33251555E+04 E0= -.33251555E+04  d E =-.632798E-03
 BRION: g(F)=  0.135E-02 g(S)=  0.000E+00 retain N=  2 mean eig= 1.30
 eig:   0.118  2.488
 bond charge predicted
       N       E                     dE             d eps       ncg     rms          rms(c)
DAV:   1    -0.331109956072E+04   -0.10247E-02   -0.16431E-01  3712   0.446E-01    0.723E-02
DAV:   2    -0.331109981437E+04   -0.25365E-03   -0.33743E-03  4096   0.551E-02    0.627E-02
DAV:   3    -0.331109978140E+04    0.32979E-04   -0.95133E-05  4352   0.129E-02    0.477E-02
DAV:   4    -0.331109977347E+04    0.79301E-05   -0.15776E-04  4032   0.148E-02    0.107E-02
DAV:   5    -0.331109977344E+04    0.23167E-07   -0.33192E-05  3904   0.682E-03    0.730E-03
DAV:   6    -0.331109977279E+04    0.65553E-06   -0.70692E-06  4224   0.280E-03
  27 F= -.33251567E+04 E0= -.33251567E+04  d E =-.126160E-02
 BRION: g(F)=  0.164E-02 g(S)=  0.000E+00 retain N=  2 mean eig= 0.27
 eig:   0.274  0.274
 bond charge predicted
       N       E                     dE             d eps       ncg     rms          rms(c)
DAV:   1    -0.331109981249E+04   -0.39049E-04   -0.97688E-03  3712   0.118E-01    0.191E-02
DAV:   2    -0.331109982990E+04   -0.17405E-04   -0.25252E-04  4256   0.173E-02    0.198E-02
DAV:   3    -0.331109982943E+04    0.46217E-06   -0.85717E-06  4544   0.293E-03
  28 F= -.33251568E+04 E0= -.33251568E+04  d E =-.496854E-04
 BRION: g(F)=  0.133E-02 g(S)=  0.000E+00 retain N=  2 mean eig= 0.86
 eig:   0.208  1.513
 bond charge predicted
       N       E                     dE             d eps       ncg     rms          rms(c)
DAV:   1    -0.331110048996E+04   -0.66007E-03   -0.62577E-02  3680   0.278E-01    0.443E-02
DAV:   2    -0.331110058609E+04   -0.96130E-04   -0.12753E-03  4096   0.345E-02    0.389E-02
DAV:   3    -0.331110057346E+04    0.12635E-04   -0.36755E-05  4320   0.789E-03    0.296E-02
DAV:   4    -0.331110057005E+04    0.34124E-05   -0.59762E-05  4032   0.917E-03    0.677E-03
DAV:   5    -0.331110057017E+04   -0.12713E-06   -0.12753E-05  3936   0.421E-03    0.456E-03
DAV:   6    -0.331110056988E+04    0.29360E-06   -0.25056E-06  3424   0.173E-03
  29 F= -.33251575E+04 E0= -.33251575E+04  d E =-.747183E-03
 BRION: g(F)=  0.117E-02 g(S)=  0.000E+00 retain N=  2 mean eig= 0.41
 eig:   0.202  0.612
 bond charge predicted
       N       E                     dE             d eps       ncg     rms          rms(c)
DAV:   1    -0.331110106058E+04   -0.49041E-03   -0.35785E-02  3776   0.211E-01    0.331E-02
DAV:   2    -0.331110111450E+04   -0.53926E-04   -0.72031E-04  4064   0.262E-02    0.298E-02
DAV:   3    -0.331110110697E+04    0.75359E-05   -0.21670E-05  4384   0.596E-03    0.230E-02
DAV:   4    -0.331110110419E+04    0.27762E-05   -0.35925E-05  4032   0.722E-03    0.555E-03
DAV:   5    -0.331110110438E+04   -0.18731E-06   -0.76975E-06  3936   0.332E-03
  30 F= -.33251581E+04 E0= -.33251581E+04  d E =-.546377E-03
 BRION: g(F)=  0.934E-03 g(S)=  0.000E+00 retain N=  2 mean eig= 1.28
 eig:   0.057  2.502
 bond charge predicted
       N       E                     dE             d eps       ncg     rms          rms(c)
DAV:   1    -0.331110194839E+04   -0.84420E-03   -0.15787E-01  3680   0.440E-01    0.689E-02
DAV:   2    -0.331110217616E+04   -0.22777E-03   -0.30389E-03  4160   0.532E-02    0.613E-02
DAV:   3    -0.331110214472E+04    0.31435E-04   -0.83780E-05  4352   0.123E-02    0.470E-02
DAV:   4    -0.331110213779E+04    0.69374E-05   -0.15509E-04  4032   0.147E-02    0.101E-02
DAV:   5    -0.331110213759E+04    0.20198E-06   -0.33079E-05  4000   0.680E-03    0.712E-03
DAV:   6    -0.331110213685E+04    0.73051E-06   -0.62910E-06  4160   0.265E-03
  31 F= -.33251591E+04 E0= -.33251591E+04  d E =-.103805E-02
 BRION: g(F)=  0.130E-02 g(S)=  0.000E+00 retain N=  2 mean eig= 0.33
 eig:   0.327  0.327
 bond charge predicted
       N       E                     dE             d eps       ncg     rms          rms(c)
DAV:   1    -0.331110201866E+04    0.11893E-03   -0.96656E-03  3712   0.118E-01    0.180E-02
DAV:   2    -0.331110203601E+04   -0.17349E-04   -0.23855E-04  4288   0.166E-02    0.184E-02
DAV:   3    -0.331110203438E+04    0.16335E-05   -0.81444E-06  4384   0.296E-03    0.164E-02
DAV:   4    -0.331110202819E+04    0.61868E-05   -0.10318E-05  3968   0.435E-03    0.705E-03
DAV:   5    -0.331110202791E+04    0.27625E-06   -0.58432E-06  3808   0.284E-03
  32 F= -.33251590E+04 E0= -.33251590E+04  d E =0.108237E-03
 BRION: g(F)=  0.110E-02 g(S)=  0.000E+00 retain N=  2 mean eig= 1.08
 eig:   0.247  1.923
 bond charge predicted
       N       E                     dE             d eps       ncg     rms          rms(c)
DAV:   1    -0.331110249888E+04   -0.47069E-03   -0.39166E-02  3680   0.221E-01    0.335E-02
DAV:   2    -0.331110255464E+04   -0.55766E-04   -0.74968E-04  4096   0.269E-02    0.306E-02
DAV:   3    -0.331110254607E+04    0.85762E-05   -0.22008E-05  4320   0.601E-03    0.238E-02
DAV:   4    -0.331110254191E+04    0.41527E-05   -0.40072E-05  4032   0.758E-03    0.554E-03
DAV:   5    -0.331110254214E+04   -0.22119E-06   -0.85445E-06  3968   0.346E-03
  33 F= -.33251595E+04 E0= -.33251595E+04  d E =-.518294E-03
 BRION: g(F)=  0.836E-03 g(S)=  0.000E+00 retain N=  2 mean eig= 0.82
 eig:   0.211  1.438
 bond charge predicted
       N       E                     dE             d eps       ncg     rms          rms(c)
DAV:   1    -0.331110298859E+04   -0.44668E-03   -0.40132E-02  3680   0.224E-01    0.349E-02
DAV:   2    -0.331110304543E+04   -0.56844E-04   -0.76318E-04  4128   0.271E-02    0.317E-02
DAV:   3    -0.331110303724E+04    0.81935E-05   -0.22193E-05  4320   0.619E-03    0.244E-02
DAV:   4    -0.331110303517E+04    0.20657E-05   -0.38648E-05  4032   0.745E-03    0.559E-03
DAV:   5    -0.331110303534E+04   -0.16112E-06   -0.83391E-06  3968   0.343E-03
  34 F= -.33251600E+04 E0= -.33251600E+04  d E =-.497216E-03
 BRION: g(F)=  0.745E-03 g(S)=  0.000E+00 retain N=  2 mean eig= 0.81
 eig:   0.097  1.514
 bond charge predicted
       N       E                     dE             d eps       ncg     rms          rms(c)
DAV:   1    -0.331110352714E+04   -0.49196E-03   -0.63436E-02  3680   0.282E-01    0.433E-02
DAV:   2    -0.331110361583E+04   -0.88696E-04   -0.11888E-03  4160   0.341E-02    0.397E-02
DAV:   3    -0.331110360281E+04    0.13020E-04   -0.33825E-05  4352   0.769E-03    0.308E-02
DAV:   4    -0.331110359910E+04    0.37109E-05   -0.63376E-05  4064   0.960E-03    0.693E-03
DAV:   5    -0.331110359930E+04   -0.19744E-06   -0.13854E-05  3968   0.442E-03    0.466E-03
DAV:   6    -0.331110359902E+04    0.27567E-06   -0.24748E-06  3296   0.171E-03
  35 F= -.33251606E+04 E0= -.33251606E+04  d E =-.562332E-03
 BRION: g(F)=  0.103E-02 g(S)=  0.000E+00 retain N=  3 mean eig= 2.10
 eig:   5.954  0.006  0.336
 bond charge predicted
       N       E                     dE             d eps       ncg     rms          rms(c)
DAV:   1    -0.331110417657E+04   -0.57727E-03   -0.10056E-01  3680   0.355E-01    0.541E-02
DAV:   2    -0.331110431525E+04   -0.13868E-03   -0.18748E-03  4128   0.429E-02    0.497E-02
DAV:   3    -0.331110429381E+04    0.21432E-04   -0.54498E-05  4352   0.968E-03    0.386E-02
DAV:   4    -0.331110428628E+04    0.75378E-05   -0.10124E-04  4032   0.120E-02    0.887E-03
DAV:   5    -0.331110428676E+04   -0.48173E-06   -0.21567E-05  3968   0.543E-03    0.579E-03
DAV:   6    -0.331110428642E+04    0.34156E-06   -0.39963E-06  3872   0.213E-03
  36 F= -.33251613E+04 E0= -.33251613E+04  d E =-.694661E-03
 BRION: g(F)=  0.110E-02 g(S)=  0.000E+00 retain N=  3 mean eig= 0.78
 eig:   1.610  0.315  0.410
 bond charge predicted
       N       E                     dE             d eps       ncg     rms          rms(c)
DAV:   1    -0.331110376018E+04    0.52658E-03   -0.54629E-02  3680   0.265E-01    0.404E-02
DAV:   2    -0.331110383731E+04   -0.77134E-04   -0.10595E-03  4128   0.327E-02    0.376E-02
DAV:   3    -0.331110382409E+04    0.13224E-04   -0.33778E-05  4384   0.727E-03    0.294E-02
DAV:   4    -0.331110381552E+04    0.85684E-05   -0.56661E-05  3968   0.921E-03    0.747E-03
DAV:   5    -0.331110381616E+04   -0.64087E-06   -0.12500E-05  4032   0.420E-03    0.436E-03
DAV:   6    -0.331110381604E+04    0.12002E-06   -0.21871E-06  3040   0.163E-03
  37 F= -.33251608E+04 E0= -.33251608E+04  d E =0.474424E-03
 BRION: g(F)=  0.902E-03 g(S)=  0.000E+00 retain N=  3 mean eig= 1.92
 eig:   5.182  0.287  0.287
 bond charge predicted
       N       E                     dE             d eps       ncg     rms          rms(c)
DAV:   1    -0.331110429786E+04   -0.48169E-03   -0.54461E-02  3680   0.261E-01    0.395E-02
DAV:   2    -0.331110436964E+04   -0.71784E-04   -0.98708E-04  4128   0.311E-02    0.364E-02
DAV:   3    -0.331110435731E+04    0.12332E-04   -0.29037E-05  4352   0.711E-03    0.280E-02
DAV:   4    -0.331110435256E+04    0.47433E-05   -0.54352E-05  4032   0.877E-03    0.626E-03
DAV:   5    -0.331110435279E+04   -0.22212E-06   -0.11666E-05  3936   0.397E-03    0.410E-03
DAV:   6    -0.331110435258E+04    0.20221E-06   -0.18685E-06  3008   0.151E-03
  38 F= -.33251613E+04 E0= -.33251613E+04  d E =-.539434E-03
 BRION: g(F)=  0.655E-03 g(S)=  0.000E+00 retain N=  3 mean eig= 1.76
 eig:   4.824  0.026  0.434
 bond charge predicted
       N       E                     dE             d eps       ncg     rms          rms(c)
DAV:   1    -0.331110469681E+04   -0.34403E-03   -0.30095E-02  3680   0.194E-01    0.292E-02
DAV:   2    -0.331110473697E+04   -0.40160E-04   -0.54261E-04  4064   0.232E-02    0.271E-02
DAV:   3    -0.331110473075E+04    0.62196E-05   -0.15604E-05  4352   0.520E-03    0.211E-02
DAV:   4    -0.331110472885E+04    0.19011E-05   -0.30391E-05  4032   0.663E-03    0.460E-03
DAV:   5    -0.331110472894E+04   -0.88476E-07   -0.65353E-06  3936   0.300E-03
  39 F= -.33251617E+04 E0= -.33251617E+04  d E =-.375730E-03
 BRION: g(F)=  0.560E-03 g(S)=  0.000E+00 retain N=  3 mean eig= 2.77
 eig:   7.745  0.287  0.287
 bond charge predicted
       N       E                     dE             d eps       ncg     rms          rms(c)
DAV:   1    -0.331110510999E+04   -0.38113E-03   -0.49477E-02  3680   0.250E-01    0.377E-02
DAV:   2    -0.331110517611E+04   -0.66125E-04   -0.89084E-04  4160   0.298E-02    0.351E-02
DAV:   3    -0.331110516600E+04    0.10117E-04   -0.25335E-05  4352   0.663E-03    0.274E-02
DAV:   4    -0.331110516297E+04    0.30226E-05   -0.48671E-05  4032   0.840E-03    0.615E-03
DAV:   5    -0.331110516322E+04   -0.24890E-06   -0.10543E-05  4032   0.383E-03    0.402E-03
DAV:   6    -0.331110516305E+04    0.17590E-06   -0.16981E-06  2784   0.145E-03
  40 F= -.33251622E+04 E0= -.33251622E+04  d E =-.436007E-03
 BRION: g(F)=  0.762E-03 g(S)=  0.000E+00 retain N=  3 mean eig= 1.47
 eig:   3.893  0.152  0.370
 bond charge predicted
       N       E                     dE             d eps       ncg     rms          rms(c)
DAV:   1    -0.331110567454E+04   -0.51131E-03   -0.98017E-02  3680   0.351E-01    0.523E-02
DAV:   2    -0.331110580199E+04   -0.12745E-03   -0.17319E-03  4128   0.415E-02    0.486E-02
DAV:   3    -0.331110578174E+04    0.20248E-04   -0.50345E-05  4352   0.936E-03    0.379E-02
DAV:   4    -0.331110577555E+04    0.61895E-05   -0.98322E-05  4160   0.119E-02    0.823E-03
DAV:   5    -0.331110577581E+04   -0.25914E-06   -0.21080E-05  3968   0.537E-03    0.561E-03
DAV:   6    -0.331110577545E+04    0.35786E-06   -0.34701E-06  3840   0.197E-03
  41 F= -.33251628E+04 E0= -.33251628E+04  d E =-.613394E-03
 BRION: g(F)=  0.773E-03 g(S)=  0.000E+00 retain N=  3 mean eig= 1.07
 eig:   2.544  0.239  0.415
 bond charge predicted
       N       E                     dE             d eps       ncg     rms          rms(c)
DAV:   1    -0.331110534962E+04    0.42619E-03   -0.42688E-02  3680   0.234E-01    0.348E-02
DAV:   2    -0.331110540791E+04   -0.58291E-04   -0.79303E-04  4160   0.286E-02    0.330E-02
DAV:   3    -0.331110539827E+04    0.96426E-05   -0.23991E-05  4352   0.604E-03    0.263E-02
DAV:   4    -0.331110539121E+04    0.70604E-05   -0.45073E-05  4032   0.832E-03    0.651E-03
DAV:   5    -0.331110539182E+04   -0.61200E-06   -0.10278E-05  4032   0.384E-03    0.389E-03
DAV:   6    -0.331110539173E+04    0.90571E-07   -0.15396E-06  2560   0.141E-03
  42 F= -.33251624E+04 E0= -.33251624E+04  d E =0.384962E-03
 BRION: g(F)=  0.822E-03 g(S)=  0.000E+00 retain N=  3 mean eig= 1.48
 eig:   3.844  0.296  0.296
 bond charge predicted
       N       E                     dE             d eps       ncg     rms          rms(c)
DAV:   1    -0.331110570925E+04   -0.31743E-03   -0.27708E-02  3680   0.188E-01    0.276E-02
DAV:   2    -0.331110574528E+04   -0.36034E-04   -0.49282E-04  4128   0.224E-02    0.262E-02
DAV:   3    -0.331110573908E+04    0.62045E-05   -0.14360E-05  4352   0.479E-03    0.208E-02
DAV:   4    -0.331110573535E+04    0.37280E-05   -0.29379E-05  4032   0.661E-03    0.478E-03
DAV:   5    -0.331110573560E+04   -0.25297E-06   -0.64715E-06  3904   0.300E-03
  43 F= -.33251627E+04 E0= -.33251627E+04  d E =-.342579E-03
 BRION: g(F)=  0.515E-03 g(S)=  0.000E+00 retain N=  3 mean eig= 2.02
 eig:   5.556  0.044  0.464
 bond charge predicted
       N       E                     dE             d eps       ncg     rms          rms(c)
DAV:   1    -0.331110605903E+04   -0.32368E-03   -0.34721E-02  3680   0.209E-01    0.315E-02
DAV:   2    -0.331110610343E+04   -0.44395E-04   -0.60443E-04  4128   0.246E-02    0.294E-02
DAV:   3    -0.331110609633E+04    0.70964E-05   -0.17096E-05  4320   0.553E-03    0.228E-02
DAV:   4    -0.331110609489E+04    0.14410E-05   -0.33319E-05  4032   0.690E-03    0.496E-03
DAV:   5    -0.331110609502E+04   -0.12817E-06   -0.72194E-06  3936   0.312E-03
  44 F= -.33251631E+04 E0= -.33251631E+04  d E =-.359615E-03
 BRION: g(F)=  0.438E-03 g(S)=  0.000E+00 retain N=  2 mean eig= 0.55
 eig:   0.095  1.005
 bond charge predicted
       N       E                     dE             d eps       ncg     rms          rms(c)
DAV:   1    -0.331110637876E+04   -0.28387E-03   -0.38977E-02  3680   0.223E-01    0.331E-02
DAV:   2    -0.331110643018E+04   -0.51427E-04   -0.69229E-04  4128   0.266E-02    0.315E-02
DAV:   3    -0.331110642233E+04    0.78557E-05   -0.19708E-05  4352   0.569E-03    0.251E-02
DAV:   4    -0.331110641927E+04    0.30587E-05   -0.38377E-05  4032   0.757E-03    0.581E-03
DAV:   5    -0.331110641970E+04   -0.42515E-06   -0.85569E-06  3968   0.339E-03
  45 F= -.33251634E+04 E0= -.33251634E+04  d E =-.325396E-03
 BRION: g(F)=  0.748E-03 g(S)=  0.000E+00 retain N=  3 mean eig= 0.73
 eig:   1.865  0.023  0.295
 bond charge predicted
       N       E                     dE             d eps       ncg     rms          rms(c)
DAV:   1    -0.331110664015E+04   -0.22087E-03   -0.16629E-02  3680   0.147E-01    0.221E-02
DAV:   2    -0.331110666347E+04   -0.23328E-04   -0.31385E-04  4224   0.182E-02    0.213E-02
DAV:   3    -0.331110666002E+04    0.34551E-05   -0.91947E-06  4256   0.369E-03    0.174E-02
DAV:   4    -0.331110665767E+04    0.23441E-05   -0.16154E-05  3872   0.506E-03    0.472E-03
DAV:   5    -0.331110665805E+04   -0.37428E-06   -0.37429E-06  3008   0.228E-03
  46 F= -.33251637E+04 E0= -.33251637E+04  d E =-.236572E-03
 BRION: g(F)=  0.484E-03 g(S)=  0.000E+00 retain N=  2 mean eig= 2.06
 eig:   0.153  3.972
 bond charge predicted
       N       E                     dE             d eps       ncg     rms          rms(c)
DAV:   1    -0.331110666830E+04   -0.10623E-04   -0.31928E-03  3712   0.682E-02    0.107E-02
DAV:   2    -0.331110667412E+04   -0.58212E-05   -0.82066E-05  4256   0.987E-03    0.111E-02
DAV:   3    -0.331110667391E+04    0.20734E-06   -0.24546E-06  3264   0.170E-03
  47 F= -.33251637E+04 E0= -.33251637E+04  d E =-.147972E-04
 BRION: g(F)=  0.584E-03 g(S)=  0.000E+00 retain N=  3 mean eig= 2.36
 eig:   6.634  0.217  0.217
 bond charge predicted
       N       E                     dE             d eps       ncg     rms          rms(c)
DAV:   1    -0.331110682587E+04   -0.15176E-03   -0.78106E-03  3712   0.101E-01    0.153E-02
DAV:   2    -0.331110683738E+04   -0.11510E-04   -0.15310E-04  4256   0.128E-02    0.145E-02
DAV:   3    -0.331110683571E+04    0.16735E-05   -0.44974E-06  3904   0.260E-03    0.116E-02
DAV:   4    -0.331110683496E+04    0.75391E-06   -0.88544E-06  3776   0.363E-03
  48 F= -.33251638E+04 E0= -.33251638E+04  d E =-.161205E-03
 BRION: g(F)=  0.378E-03 g(S)=  0.000E+00 retain N=  3 mean eig= 1.78
 eig:   4.932  0.069  0.333
 bond charge predicted
       N       E                     dE             d eps       ncg     rms          rms(c)
DAV:   1    -0.331110707511E+04   -0.23940E-03   -0.22891E-02  3680   0.170E-01    0.255E-02
DAV:   2    -0.331110710317E+04   -0.28063E-04   -0.38199E-04  4192   0.197E-02    0.240E-02
DAV:   3    -0.331110709848E+04    0.46968E-05   -0.94806E-06  4288   0.427E-03    0.188E-02
DAV:   4    -0.331110709772E+04    0.75693E-06   -0.21997E-05  3904   0.558E-03    0.403E-03
DAV:   5    -0.331110709783E+04   -0.11001E-06   -0.47214E-06  3392   0.248E-03
  49 F= -.33251641E+04 E0= -.33251641E+04  d E =-.262428E-03
 BRION: g(F)=  0.353E-03 g(S)=  0.000E+00 retain N=  2 mean eig= 0.59
 eig:   0.135  1.050
 bond charge predicted
       N       E                     dE             d eps       ncg     rms          rms(c)
DAV:   1    -0.331110736972E+04   -0.27200E-03   -0.33383E-02  3680   0.205E-01    0.302E-02
DAV:   2    -0.331110741121E+04   -0.41488E-04   -0.56415E-04  4192   0.239E-02    0.287E-02
DAV:   3    -0.331110740443E+04    0.67721E-05   -0.14594E-05  4320   0.512E-03    0.226E-02
DAV:   4    -0.331110740292E+04    0.15154E-05   -0.33046E-05  4000   0.687E-03    0.479E-03
DAV:   5    -0.331110740307E+04   -0.15064E-06   -0.71393E-06  3904   0.304E-03
  50 F= -.33251644E+04 E0= -.33251644E+04  d E =-.302485E-03
 BRION: g(F)=  0.389E-03 g(S)=  0.000E+00 retain N=  3 mean eig= 2.28
 eig:   6.373  0.339  0.128
 bond charge predicted
       N       E                     dE             d eps       ncg     rms          rms(c)
DAV:   1    -0.331110777213E+04   -0.36921E-03   -0.83799E-02  3680   0.326E-01    0.477E-02
DAV:   2    -0.331110787590E+04   -0.10377E-03   -0.14111E-03  4192   0.380E-02    0.453E-02
DAV:   3    -0.331110785892E+04    0.16980E-04   -0.38552E-05  4352   0.818E-03    0.359E-02
DAV:   4    -0.331110785419E+04    0.47351E-05   -0.83367E-05  4032   0.109E-02    0.769E-03
DAV:   5    -0.331110785467E+04   -0.48126E-06   -0.18114E-05  3968   0.485E-03    0.513E-03
DAV:   6    -0.331110785437E+04    0.29756E-06   -0.27031E-06  3520   0.180E-03
  51 F= -.33251648E+04 E0= -.33251648E+04  d E =-.449669E-03
 BRION: g(F)=  0.571E-03 g(S)=  0.000E+00 retain N=  3 mean eig= 0.95
 eig:   2.161  0.333  0.366
 bond charge predicted
       N       E                     dE             d eps       ncg     rms          rms(c)
DAV:   1    -0.331110754449E+04    0.31018E-03   -0.33500E-02  3680   0.208E-01    0.302E-02
DAV:   2    -0.331110758723E+04   -0.42732E-04   -0.58504E-04  4192   0.248E-02    0.291E-02
DAV:   3    -0.331110757987E+04    0.73565E-05   -0.16239E-05  4352   0.500E-03    0.237E-02
DAV:   4    -0.331110757449E+04    0.53803E-05   -0.35193E-05  3968   0.731E-03    0.571E-03
DAV:   5    -0.331110757505E+04   -0.56147E-06   -0.79318E-06  3968   0.326E-03
  52 F= -.33251646E+04 E0= -.33251646E+04  d E =0.277363E-03
 BRION: g(F)=  0.553E-03 g(S)=  0.000E+00 retain N=  3 mean eig= 1.01
 eig:   2.206  0.417  0.417
 bond charge predicted
       N       E                     dE             d eps       ncg     rms          rms(c)
DAV:   1    -0.331110775608E+04   -0.18159E-03   -0.12045E-02  3680   0.124E-01    0.177E-02
DAV:   2    -0.331110777081E+04   -0.14722E-04   -0.20705E-04  4224   0.147E-02    0.171E-02
DAV:   3    -0.331110776797E+04    0.28376E-05   -0.57318E-06  4032   0.298E-03    0.139E-02
DAV:   4    -0.331110776565E+04    0.23202E-05   -0.13510E-05  3904   0.441E-03    0.341E-03
DAV:   5    -0.331110776581E+04   -0.16368E-06   -0.27435E-06  2976   0.188E-03
  53 F= -.33251648E+04 E0= -.33251648E+04  d E =-.189602E-03
 BRION: g(F)=  0.325E-03 g(S)=  0.000E+00 retain N=  2 mean eig= 1.20
 eig:   0.253  2.144
 bond charge predicted
       N       E                     dE             d eps       ncg     rms          rms(c)
DAV:   1    -0.331110801947E+04   -0.25382E-03   -0.37985E-02  3680   0.220E-01    0.324E-02
DAV:   2    -0.331110806615E+04   -0.46678E-04   -0.64345E-04  4192   0.257E-02    0.309E-02
DAV:   3    -0.331110805795E+04    0.82026E-05   -0.17199E-05  4320   0.542E-03    0.245E-02
DAV:   4    -0.331110805504E+04    0.29040E-05   -0.37540E-05  4064   0.735E-03    0.550E-03
DAV:   5    -0.331110805539E+04   -0.34762E-06   -0.81877E-06  3968   0.323E-03
  54 F= -.33251650E+04 E0= -.33251650E+04  d E =-.286197E-03
 BRION: g(F)=  0.494E-03 g(S)=  0.000E+00 retain N=  3 mean eig= 1.16
 eig:   2.891  0.289  0.289
 bond charge predicted
       N       E                     dE             d eps       ncg     rms          rms(c)
DAV:   1    -0.331110814285E+04   -0.87804E-04   -0.38236E-03  3680   0.724E-02    0.110E-02
DAV:   2    -0.331110814886E+04   -0.60152E-05   -0.80186E-05  4128   0.942E-03    0.110E-02
DAV:   3    -0.331110814818E+04    0.68289E-06   -0.25374E-06  3328   0.182E-03
  55 F= -.33251651E+04 E0= -.33251651E+04  d E =-.936208E-04
 BRION: g(F)=  0.314E-03 g(S)=  0.000E+00 retain N=  2 mean eig= 3.93
 eig:   0.288  7.578
 bond charge predicted
       N       E                     dE             d eps       ncg     rms          rms(c)
DAV:   1    -0.331110824333E+04   -0.94464E-04   -0.56377E-03  3680   0.857E-02    0.144E-02
DAV:   2    -0.331110824974E+04   -0.64176E-05   -0.95485E-05  4256   0.101E-02    0.136E-02
DAV:   3    -0.331110824814E+04    0.15987E-05   -0.31768E-06  3424   0.240E-03    0.995E-03
DAV:   4    -0.331110824809E+04    0.49244E-07   -0.66848E-06  3776   0.304E-03
  56 F= -.33251652E+04 E0= -.33251652E+04  d E =-.993443E-04
 BRION: g(F)=  0.377E-03 g(S)=  0.000E+00 retain N=  2 mean eig= 0.21
 eig:   0.137  0.278
 bond charge predicted
       N       E                     dE             d eps       ncg     rms          rms(c)
DAV:   1    -0.331110841295E+04   -0.16481E-03   -0.16659E-02  3680   0.147E-01    0.220E-02
DAV:   2    -0.331110843439E+04   -0.21444E-04   -0.29536E-04  4288   0.177E-02    0.213E-02
DAV:   3    -0.331110843075E+04    0.36457E-05   -0.80428E-06  4256   0.356E-03    0.173E-02
DAV:   4    -0.331110842867E+04    0.20745E-05   -0.16269E-05  3872   0.497E-03    0.453E-03
DAV:   5    -0.331110842903E+04   -0.35332E-06   -0.36558E-06  3072   0.217E-03
  57 F= -.33251654E+04 E0= -.33251654E+04  d E =-.180009E-03
 BRION: g(F)=  0.418E-03 g(S)=  0.000E+00 retain N=  3 mean eig= 0.84
 eig:   2.145  0.183  0.183
 bond charge predicted
       N       E                     dE             d eps       ncg     rms          rms(c)
DAV:   1    -0.331110852421E+04   -0.95539E-04   -0.55182E-03  3680   0.863E-02    0.129E-02
DAV:   2    -0.331110853224E+04   -0.80273E-05   -0.10910E-04  4224   0.109E-02    0.127E-02
DAV:   3    -0.331110853119E+04    0.10504E-05   -0.33756E-06  3584   0.212E-03    0.109E-02
DAV:   4    -0.331110852977E+04    0.14206E-05   -0.59848E-06  3744   0.324E-03    0.334E-03
DAV:   5    -0.331110852991E+04   -0.14482E-06   -0.14822E-06  2464   0.153E-03
  58 F= -.33251655E+04 E0= -.33251655E+04  d E =-.996462E-04
 BRION: g(F)=  0.360E-03 g(S)=  0.000E+00 retain N=  2 mean eig= 0.20
 eig:   0.197  0.198
 bond charge predicted
       N       E                     dE             d eps       ncg     rms          rms(c)
DAV:   1    -0.331110864022E+04   -0.11045E-03   -0.89084E-03  3680   0.108E-01    0.159E-02
DAV:   2    -0.331110865238E+04   -0.12164E-04   -0.16494E-04  4192   0.133E-02    0.157E-02
DAV:   3    -0.331110865064E+04    0.17455E-05   -0.47747E-06  3712   0.254E-03    0.133E-02
DAV:   4    -0.331110864873E+04    0.19096E-05   -0.10285E-05  3744   0.403E-03    0.352E-03
DAV:   5    -0.331110864891E+04   -0.18091E-06   -0.21836E-06  2784   0.175E-03
  59 F= -.33251656E+04 E0= -.33251656E+04  d E =-.117233E-03
 BRION: g(F)=  0.441E-03 g(S)=  0.000E+00 retain N=  3 mean eig= 0.64
 eig:   1.489  0.098  0.334
 bond charge predicted
       N       E                     dE             d eps       ncg     rms          rms(c)
DAV:   1    -0.331110871378E+04   -0.65051E-04   -0.21829E-03  3680   0.550E-02    0.841E-03
DAV:   2    -0.331110871722E+04   -0.34446E-05   -0.46955E-05  4128   0.726E-03    0.843E-03
DAV:   3    -0.331110871680E+04    0.41968E-06   -0.12885E-06  2720   0.137E-03
  60 F= -.33251657E+04 E0= -.33251657E+04  d E =-.683350E-04
 BRION: g(F)=  0.260E-03 g(S)=  0.000E+00 retain N=  2 mean eig= 1.34
 eig:   0.224  2.461
 bond charge predicted
       N       E                     dE             d eps       ncg     rms          rms(c)
DAV:   1    -0.331110893237E+04   -0.21515E-03   -0.26966E-02  3712   0.184E-01    0.281E-02
DAV:   2    -0.331110896186E+04   -0.29494E-04   -0.42436E-04  4192   0.209E-02    0.266E-02
DAV:   3    -0.331110895541E+04    0.64530E-05   -0.12161E-05  4192   0.483E-03    0.199E-02
DAV:   4    -0.331110895490E+04    0.51234E-06   -0.25817E-05  4032   0.590E-03    0.423E-03
DAV:   5    -0.331110895492E+04   -0.20606E-07   -0.56103E-06  3552   0.261E-03
  61 F= -.33251659E+04 E0= -.33251659E+04  d E =-.236787E-03
 BRION: g(F)=  0.239E-03 g(S)=  0.000E+00 retain N=  3 mean eig= 2.26
 eig:   4.445  0.387  1.945
 bond charge predicted
       N       E                     dE             d eps       ncg     rms          rms(c)
DAV:   1    -0.331110927931E+04   -0.32442E-03   -0.12724E-01  3680   0.403E-01    0.582E-02
DAV:   2    -0.331110943422E+04   -0.15490E-03   -0.21201E-03  4224   0.469E-02    0.563E-02
DAV:   3    -0.331110940817E+04    0.26053E-04   -0.54266E-05  4416   0.944E-03    0.457E-02
DAV:   4    -0.331110939797E+04    0.10191E-04   -0.13484E-04  4224   0.139E-02    0.982E-03
DAV:   5    -0.331110939911E+04   -0.11310E-05   -0.28585E-05  3904   0.591E-03    0.641E-03
DAV:   6    -0.331110939867E+04    0.43178E-06   -0.38374E-06  3840   0.213E-03
  62 F= -.33251664E+04 E0= -.33251664E+04  d E =-.437707E-03
 BRION: g(F)=  0.773E-03 g(S)=  0.000E+00 retain N=  3 mean eig= 0.80
 eig:   0.139  1.126  1.126
 bond charge predicted
       N       E                     dE             d eps       ncg     rms          rms(c)
DAV:   1    -0.331110979566E+04   -0.39656E-03   -0.25324E-01  3712   0.568E-01    0.823E-02
DAV:   2    -0.331111009974E+04   -0.30408E-03   -0.42249E-03  4288   0.662E-02    0.793E-02
DAV:   3    -0.331111004496E+04    0.54777E-04   -0.11231E-04  4320   0.137E-02    0.636E-02
DAV:   4    -0.331111002273E+04    0.22239E-04   -0.26205E-04  4256   0.193E-02    0.140E-02
DAV:   5    -0.331111002513E+04   -0.24041E-05   -0.55494E-05  3904   0.814E-03    0.889E-03
DAV:   6    -0.331111002455E+04    0.57986E-06   -0.74446E-06  4000   0.297E-03
  63 F= -.33251670E+04 E0= -.33251670E+04  d E =-.622036E-03
 BRION: g(F)=  0.109E-02 g(S)=  0.000E+00 retain N=  4 mean eig= 1.11
 eig:   1.738  1.738  0.871  0.077
 bond charge predicted
       N       E                     dE             d eps       ncg     rms          rms(c)
DAV:   1    -0.331110998867E+04    0.36462E-04   -0.18519E+00  3712   0.153E+00    0.220E-01
DAV:   2    -0.331111216777E+04   -0.21791E-02   -0.30013E-02  4192   0.176E-01    0.211E-01
DAV:   3    -0.331111177759E+04    0.39018E-03   -0.75510E-04  4224   0.365E-02    0.168E-01
DAV:   4    -0.331111163795E+04    0.13964E-03   -0.19049E-03  4192   0.513E-02    0.355E-02
DAV:   5    -0.331111164925E+04   -0.11301E-04   -0.39647E-04  4000   0.216E-02    0.235E-02
DAV:   6    -0.331111164450E+04    0.47443E-05   -0.52942E-05  4032   0.784E-03    0.115E-02
DAV:   7    -0.331111164535E+04   -0.84867E-06   -0.18541E-05  4032   0.466E-03    0.409E-03
DAV:   8    -0.331111164559E+04   -0.23271E-06   -0.36088E-06  3200   0.214E-03
  64 F= -.33251686E+04 E0= -.33251686E+04  d E =-.161174E-02
 BRION: g(F)=  0.227E-03 g(S)=  0.000E+00 retain N=  2 mean eig= 0.79
 eig:   0.243  1.329
 bond charge predicted
       N       E                     dE             d eps       ncg     rms          rms(c)
DAV:   1    -0.331111137256E+04    0.27280E-03   -0.33329E-02  3680   0.212E-01    0.317E-02
DAV:   2    -0.331111142165E+04   -0.49093E-04   -0.66441E-04  4256   0.270E-02    0.313E-02
DAV:   3    -0.331111141473E+04    0.69214E-05   -0.22143E-05  4576   0.531E-03    0.267E-02
DAV:   4    -0.331111140441E+04    0.10317E-04   -0.32003E-05  3968   0.754E-03    0.873E-03
DAV:   5    -0.331111140535E+04   -0.94308E-06   -0.10948E-05  3936   0.396E-03    0.371E-03
DAV:   6    -0.331111140536E+04   -0.54715E-08   -0.13201E-06  2592   0.131E-03
  65 F= -.33251684E+04 E0= -.33251684E+04  d E =0.237611E-03
 BRION: g(F)=  0.131E-02 g(S)=  0.000E+00 retain N=  3 mean eig= 0.61
 eig:   1.417  0.209  0.216
 bond charge predicted
       N       E                     dE             d eps       ncg     rms          rms(c)
DAV:   1    -0.331111163964E+04   -0.23428E-03   -0.24721E-02  3680   0.182E-01    0.263E-02
DAV:   2    -0.331111167312E+04   -0.33480E-04   -0.46636E-04  4224   0.225E-02    0.263E-02
DAV:   3    -0.331111166836E+04    0.47531E-05   -0.14022E-05  4480   0.413E-03    0.229E-02
DAV:   4    -0.331111166036E+04    0.80011E-05   -0.25161E-05  3968   0.654E-03    0.740E-03
DAV:   5    -0.331111166101E+04   -0.65053E-06   -0.77773E-06  3872   0.321E-03
  66 F= -.33251686E+04 E0= -.33251686E+04  d E =-.251008E-03
 BRION: g(F)=  0.157E-03 g(S)=  0.000E+00 retain N=  1 mean eig= 0.21
 eig:   0.206
 reached required accuracy - stopping structural energy minimisation
 PROFILE, used timers:     329
