 vasp.6.4.2 20Jul23 (build Oct 12 2023 10:31:02) complex                         
 executed on              LinuxNV date 2025.05.17  12:54:37
 running  160 mpi-ranks, with    1 threads/rank, on   10 nodes
 distrk:  each k-point on   80 cores,    2 groups
 distr:  one band on NCORE=   5 cores,   16 groups


--------------------------------------------------------------------------------------------------------


 INCAR:
   ENCUT = 360.000000
   SIGMA = 0.050000
   EDIFF = 1.00e-06
   ALGO = Normal
   GGA = PE
   PREC = Normal
   SYSTEM = ./
   ICHARG = 2
   ISMEAR = 0
   ISPIN = 1
   ISTART = 0
   ISYM = 0
   KPAR = 2
   LMAXMIX = 4
   NELM = 100
   NPAR = 16
   LASPH = .TRUE.
   LCHARG = .FALSE.
   LWAVE = .FALSE.

 POTCAR:    PAW_PBE Ge 05Jan2001                  
 POTCAR:    PAW_PBE Se 06Sep2000                  
 POTCAR:    PAW_PBE Ge 05Jan2001                  
   VRHFIN =Ge: s2p2                                                                                 
   LEXCH  = PE                                                                                      
   EATOM  =   104.9960 eV,    7.7170 Ry                                                             
                                                                                                    
   TITEL  = PAW_PBE Ge 05Jan2001                                                                    
   LULTRA =        F    use ultrasoft PP ?                                                          
   IUNSCR =        1    unscreen: 0-lin 1-nonlin 2-no                                               
   RPACOR =    2.170    partial core radius                                                         
   POMASS =   72.610; ZVAL   =    4.000    mass and valenz                                          
   RCORE  =    2.300    outmost cutoff radius                                                       
   RWIGS  =    2.300; RWIGS  =    1.217    wigner-seitz radius (au A)                               
   ENMAX  =  173.807; ENMIN  =  130.355 eV                                                          
   ICORE  =        3    local potential                                                             
   LCOR   =        T    correct aug charges                                                         
   LPAW   =        T    paw PP                                                                      
   EAUG   =  385.843                                                                                
   DEXC   =    0.000                                                                                
   RMAX   =    2.342    core radius for proj-oper                                                   
   RAUG   =    1.300    factor for augmentation sphere                                              
   RDEP   =    2.318    radius for radial grids                                                     
   RDEPT  =    2.103    core radius for aug-charge                                                  
                                                                                                    
   Atomic configuration                                                                             
   10 entries                                                                                       
     n  l   j            E        occ.                                                              
     1  0  0.50    -10959.8463   2.0000                                                             
     2  0  0.50     -1371.6056   2.0000                                                             
     2  1  1.50     -1198.4791   6.0000                                                             
     3  0  0.50      -168.4733   2.0000                                                             
     3  1  1.50      -115.6019   6.0000                                                             
     3  2  2.50       -29.3106  10.0000                                                             
     4  0  0.50       -11.7309   2.0000                                                             
     4  1  0.50        -3.8952   2.0000                                                             
     4  2  1.50        -4.0817   0.0000                                                             
     4  3  2.50        -4.0817   0.0000                                                             
   Description                                                                                      
     l       E           TYP  RCUT    TYP  RCUT                                                     
     0    -11.7309493     23  2.300                                                                 
     0     -7.4578696     23  2.300                                                                 
     1     -3.8952261     23  2.300                                                                 
     1      6.1178114     23  2.300                                                                 
     2     -4.0817478     23  2.300                                                                 
     3     -1.3605826      7  2.300                                                                 
  local pseudopotential read in
  partial core-charges read in
  partial kinetic energy density read in
  atomic valenz-charges read in
  non local Contribution for L=            0  read in
    real space projection operators read in
  non local Contribution for L=            0  read in
    real space projection operators read in
  non local Contribution for L=            1  read in
    real space projection operators read in
  non local Contribution for L=            1  read in
    real space projection operators read in
  non local Contribution for L=            2  read in
    real space projection operators read in
    PAW grid and wavefunctions read in
 
   number of l-projection  operators is LMAX  =            5
   number of lm-projection operators is LMMAX =           13
 
 POTCAR:    PAW_PBE Se 06Sep2000                  
   VRHFIN =Se: s2p4                                                                                 
   LEXCH  = PE                                                                                      
   EATOM  =   257.1286 eV,   18.8984 Ry                                                             
                                                                                                    
   TITEL  = PAW_PBE Se 06Sep2000                                                                    
   LULTRA =        F    use ultrasoft PP ?                                                          
   IUNSCR =        1    unscreen: 0-lin 1-nonlin 2-no                                               
   RPACOR =    1.900    partial core radius                                                         
   POMASS =   78.960; ZVAL   =    6.000    mass and valenz                                          
   RCORE  =    2.100    outmost cutoff radius                                                       
   RWIGS  =    2.200; RWIGS  =    1.164    wigner-seitz radius (au A)                               
   ENMAX  =  211.555; ENMIN  =  158.666 eV                                                          
   ICORE  =        3    local potential                                                             
   LCOR   =        T    correct aug charges                                                         
   LPAW   =        T    paw PP                                                                      
   EAUG   =  446.842                                                                                
   DEXC   =    0.000                                                                                
   RMAX   =    2.147    core radius for proj-oper                                                   
   RAUG   =    1.300    factor for augmentation sphere                                              
   RDEP   =    2.177    radius for radial grids                                                     
   RDEPT  =    1.928    core radius for aug-charge                                                  
                                                                                                    
   Atomic configuration                                                                             
   10 entries                                                                                       
     n  l   j            E        occ.                                                              
     1  0  0.50    -12503.4787   2.0000                                                             
     2  0  0.50     -1606.9547   2.0000                                                             
     2  1  1.50     -1413.3140   6.0000                                                             
     3  0  0.50      -213.4885   2.0000                                                             
     3  1  1.50      -152.9538   6.0000                                                             
     3  2  2.50       -53.1221  10.0000                                                             
     4  0  0.50       -17.2865   2.0000                                                             
     4  1  0.50        -6.5110   4.0000                                                             
     4  2  2.50        -6.8029   0.0000                                                             
     4  3  2.50        -6.8029   0.0000                                                             
   Description                                                                                      
     l       E           TYP  RCUT    TYP  RCUT                                                     
     0    -17.2865377     23  2.100                                                                 
     0    -15.3094411     23  2.100                                                                 
     1     -6.5110275     23  2.100                                                                 
     1     -0.0695192     23  2.100                                                                 
     2     -6.8029130     23  2.100                                                                 
     3     -1.3605826      7  2.100                                                                 
  local pseudopotential read in
  partial core-charges read in
  partial kinetic energy density read in
  atomic valenz-charges read in
  non local Contribution for L=            0  read in
    real space projection operators read in
  non local Contribution for L=            0  read in
    real space projection operators read in
  non local Contribution for L=            1  read in
    real space projection operators read in
  non local Contribution for L=            1  read in
    real space projection operators read in
  non local Contribution for L=            2  read in
    real space projection operators read in
    PAW grid and wavefunctions read in
 
   number of l-projection  operators is LMAX  =            5
   number of lm-projection operators is LMMAX =           13
 
  PAW_PBE Ge 05Jan2001                  :
 energy of atom  1       EATOM= -104.9960
 kinetic energy error for atom=    0.0005 (will be added to EATOM!!)
  PAW_PBE Se 06Sep2000                  :
 energy of atom  2       EATOM= -257.1286
 kinetic energy error for atom=    0.0030 (will be added to EATOM!!)
 
 
 POSCAR: Ge Se
  positions in cartesian coordinates
  No initial velocities read in
 exchange correlation table for  LEXCH =        8
   RHO(1)=    0.500       N(1)  =     2000
   RHO(2)=  100.500       N(2)  =     4000
 


--------------------------------------------------------------------------------------------------------


 ion  position               nearest neighbor table
   1  0.772  0.351  0.116-   5 2.58   6 2.59   6 2.59
   2  0.272  0.851  0.384-   6 2.58   5 2.59   5 2.59
   3  0.750  0.881  0.884-   7 2.58   8 2.59   8 2.59
   4  0.250  0.381  0.616-   8 2.58   7 2.59   7 2.59
   5  0.772  0.227  0.355-   1 2.58   2 2.59   2 2.59
   6  0.272  0.727  0.145-   2 2.58   1 2.59   1 2.59
   7  0.750  0.005  0.645-   3 2.58   4 2.59   4 2.59
   8  0.250  0.505  0.855-   4 2.58   3 2.59   3 2.59
 

IMPORTANT INFORMATION: All symmetrisations will be switched off!
NOSYMM: (Re-)initialisation of all symmetry stuff for point group C_1.


----------------------------------------------------------------------------------------

                                     Primitive cell                                     

  volume of cell :     184.8593

  direct lattice vectors                    reciprocal lattice vectors
     3.858100176  0.000000000  0.000000000     0.259194929  0.000000000  0.000000000
     0.000000000  4.526575088  0.000000000     0.000000000  0.220917577  0.000000000
     0.000000000  0.000000000 10.585176468     0.000000000  0.000000000  0.094471736

  length of vectors
     3.858100176  4.526575088 10.585176468     0.259194929  0.220917577  0.094471736

  position of ions in fractional coordinates (direct lattice)
     0.771738839  0.351080181  0.116293234
     0.271738887  0.851080206  0.383706663
     0.749999529  0.880803548  0.883706698
     0.249998913  0.380803590  0.616293301
     0.771738911  0.226825268  0.354521754
     0.271738790  0.726825369  0.145478256
     0.749999119  0.005058363  0.645478205
     0.249999423  0.505058446  0.854521738

  ion indices of the primitive-cell ions
   primitive index   ion index
                 1           1
                 2           2
                 3           3
                 4           4
                 5           5
                 6           6
                 7           7
                 8           8

----------------------------------------------------------------------------------------

 
 
 KPOINTS: KPOINTS created by Atomic Simulation Env

Automatic generation of k-mesh.
 Grid dimensions read from file:
 generate k-points for:    6    6    2

 Generating k-lattice:

  Cartesian coordinates                     Fractional coordinates (reciprocal lattice)
     0.043199155  0.000000000  0.000000000     0.166666667  0.000000000  0.000000000
     0.000000000  0.036819596  0.000000000     0.000000000  0.166666667  0.000000000
     0.000000000  0.000000000  0.047235868     0.000000000  0.000000000  0.500000000

  Length of vectors
     0.043199155  0.036819596  0.047235868

  Shift w.r.t. Gamma in fractional coordinates (k-lattice)
     0.000000000  0.000000000  0.000000000

 
 Subroutine IBZKPT returns following result:
 ===========================================
 
 Found     40 irreducible k-points:
 
 Following reciprocal coordinates:
            Coordinates               Weight
  0.000000  0.000000  0.000000      1.000000
  0.166667  0.000000  0.000000      2.000000
  0.333333  0.000000  0.000000      2.000000
  0.500000  0.000000  0.000000      1.000000
  0.000000  0.166667  0.000000      2.000000
  0.166667  0.166667  0.000000      2.000000
  0.166667 -0.166667  0.000000      2.000000
  0.333333  0.166667  0.000000      2.000000
  0.333333 -0.166667  0.000000      2.000000
  0.500000  0.166667  0.000000      2.000000
  0.000000  0.333333  0.000000      2.000000
  0.166667  0.333333  0.000000      2.000000
  0.166667 -0.333333  0.000000      2.000000
  0.333333  0.333333  0.000000      2.000000
  0.333333 -0.333333  0.000000      2.000000
  0.500000  0.333333  0.000000      2.000000
  0.000000  0.500000  0.000000      1.000000
  0.166667  0.500000  0.000000      2.000000
  0.333333  0.500000  0.000000      2.000000
  0.500000  0.500000  0.000000      1.000000
  0.000000  0.000000  0.500000      1.000000
  0.166667  0.000000  0.500000      2.000000
  0.333333  0.000000  0.500000      2.000000
  0.500000  0.000000  0.500000      1.000000
  0.000000  0.166667  0.500000      2.000000
  0.166667  0.166667  0.500000      2.000000
  0.166667 -0.166667  0.500000      2.000000
  0.333333  0.166667  0.500000      2.000000
  0.333333 -0.166667  0.500000      2.000000
  0.500000  0.166667  0.500000      2.000000
  0.000000  0.333333  0.500000      2.000000
  0.166667  0.333333  0.500000      2.000000
  0.166667 -0.333333  0.500000      2.000000
  0.333333  0.333333  0.500000      2.000000
  0.333333 -0.333333  0.500000      2.000000
  0.500000  0.333333  0.500000      2.000000
  0.000000  0.500000  0.500000      1.000000
  0.166667  0.500000  0.500000      2.000000
  0.333333  0.500000  0.500000      2.000000
  0.500000  0.500000  0.500000      1.000000
 
 Following cartesian coordinates:
            Coordinates               Weight
  0.000000  0.000000  0.000000      1.000000
  0.043199  0.000000  0.000000      2.000000
  0.086398  0.000000  0.000000      2.000000
  0.129597  0.000000  0.000000      1.000000
  0.000000  0.036820  0.000000      2.000000
  0.043199  0.036820  0.000000      2.000000
  0.043199 -0.036820  0.000000      2.000000
  0.086398  0.036820  0.000000      2.000000
  0.086398 -0.036820  0.000000      2.000000
  0.129597  0.036820  0.000000      2.000000
  0.000000  0.073639  0.000000      2.000000
  0.043199  0.073639  0.000000      2.000000
  0.043199 -0.073639  0.000000      2.000000
  0.086398  0.073639  0.000000      2.000000
  0.086398 -0.073639  0.000000      2.000000
  0.129597  0.073639  0.000000      2.000000
  0.000000  0.110459  0.000000      1.000000
  0.043199  0.110459  0.000000      2.000000
  0.086398  0.110459  0.000000      2.000000
  0.129597  0.110459  0.000000      1.000000
  0.000000  0.000000  0.047236      1.000000
  0.043199  0.000000  0.047236      2.000000
  0.086398  0.000000  0.047236      2.000000
  0.129597  0.000000  0.047236      1.000000
  0.000000  0.036820  0.047236      2.000000
  0.043199  0.036820  0.047236      2.000000
  0.043199 -0.036820  0.047236      2.000000
  0.086398  0.036820  0.047236      2.000000
  0.086398 -0.036820  0.047236      2.000000
  0.129597  0.036820  0.047236      2.000000
  0.000000  0.073639  0.047236      2.000000
  0.043199  0.073639  0.047236      2.000000
  0.043199 -0.073639  0.047236      2.000000
  0.086398  0.073639  0.047236      2.000000
  0.086398 -0.073639  0.047236      2.000000
  0.129597  0.073639  0.047236      2.000000
  0.000000  0.110459  0.047236      1.000000
  0.043199  0.110459  0.047236      2.000000
  0.086398  0.110459  0.047236      2.000000
  0.129597  0.110459  0.047236      1.000000
 


--------------------------------------------------------------------------------------------------------




 Dimension of arrays:
   k-points           NKPTS =     40   k-points in BZ     NKDIM =     40   number of bands    NBANDS=     32
   number of dos      NEDOS =    301   number of ions     NIONS =      8
   non local maximal  LDIM  =      5   non local SUM 2l+1 LMDIM =     13
   total plane-waves  NPLWV =  21600
   max r-space proj   IRMAX =      1   max aug-charges    IRDMAX=   6549
   dimension x,y,z NGX =    18 NGY =   24 NGZ =   50
   dimension x,y,z NGXF=    36 NGYF=   48 NGZF=  100
   support grid    NGXF=    36 NGYF=   48 NGZF=  100
   ions per type =               4   4
   NGX,Y,Z   is equivalent  to a cutoff of   7.76,  8.81,  7.85 a.u.
   NGXF,Y,Z  is equivalent  to a cutoff of  15.51, 17.63, 15.71 a.u.

 SYSTEM =  ./                                      
 POSCAR =  Ge Se                                   

 Startparameter for this run:
   NWRITE =      2    write-flag & timer
   PREC   = normal    normal or accurate (medium, high low for compatibility)
   ISTART =      0    job   : 0-new  1-cont  2-samecut
   ICHARG =      2    charge: 1-file 2-atom 10-const
   ISPIN  =      1    spin polarized calculation?
   LNONCOLLINEAR =      F non collinear calculations
   LSORBIT =      F    spin-orbit coupling
   INIWAV =      1    electr: 0-lowe 1-rand  2-diag
   LASPH  =      T    aspherical Exc in radial PAW
 Electronic Relaxation 1
   ENCUT  =  360.0 eV  26.46 Ry    5.14 a.u.   5.97  7.00 16.38*2*pi/ulx,y,z
   ENINI  =  360.0     initial cutoff
   ENAUG  =  446.8 eV  augmentation charge cutoff
   NELM   =    100;   NELMIN=  2; NELMDL= -5     # of ELM steps 
   EDIFF  = 0.1E-05   stopping-criterion for ELM
   LREAL  =      F    real-space projection
   NLSPLINE    = F    spline interpolate recip. space projectors
   LCOMPAT=      F    compatible to vasp.4.4
   GGA_COMPAT  = T    GGA compatible to vasp.4.4-vasp.4.6
   LMAXPAW     = -100 max onsite density
   LMAXMIX     =    4 max onsite mixed and CHGCAR
   VOSKOWN=      0    Vosko Wilk Nusair interpolation
   ROPT   =    0.00000   0.00000
 Ionic relaxation
   EDIFFG = 0.1E-04   stopping-criterion for IOM
   NSW    =      0    number of steps for IOM
   NBLOCK =      1;   KBLOCK =      1    inner block; outer block 
   IBRION =     -1    ionic relax: 0-MD 1-quasi-New 2-CG
   NFREE  =      0    steps in history (QN), initial steepest desc. (CG)
   ISIF   =      2    stress and relaxation
   IWAVPR =     10    prediction:  0-non 1-charg 2-wave 3-comb
   ISYM   =      0    0-nonsym 1-usesym 2-fastsym
   LCORR  =      T    Harris-Foulkes like correction to forces

   POTIM  = 0.5000    time-step for ionic-motion
   TEIN   =    0.0    initial temperature
   TEBEG  =    0.0;   TEEND  =   0.0 temperature during run
   SMASS  =  -3.00    Nose mass-parameter (am)
   estimated Nose-frequenzy (Omega)   =  0.10E-29 period in steps = 0.13E+47 mass=  -0.340E-27a.u.
   SCALEE = 1.0000    scale energy and forces
   NPACO  =    256;   APACO  = 10.0  distance and # of slots for P.C.
   PSTRESS=    0.0 pullay stress

  Mass of Ions in am
   POMASS =  72.61 78.96
  Ionic Valenz
   ZVAL   =   4.00  6.00
  Atomic Wigner-Seitz radii
   RWIGS  =  -1.00 -1.00
  virtual crystal weights 
   VCA    =   1.00  1.00
   NELECT =      40.0000    total number of electrons
   NUPDOWN=      -1.0000    fix difference up-down

 DOS related values:
   EMIN   =  10.00;   EMAX   =-10.00  energy-range for DOS
   EFERMI =   0.00;   METHOD = LEGACY      
   ISMEAR =     0;   SIGMA  =   0.05  broadening in eV -4-tet -1-fermi 0-gaus

 Electronic relaxation 2 (details)
   IALGO  =     38    algorithm
   LDIAG  =      T    sub-space diagonalisation (order eigenvalues)
   LSUBROT=      F    optimize rotation matrix (better conditioning)
   TURBO    =      0    0=normal 1=particle mesh
   IRESTART =      0    0=no restart 2=restart with 2 vectors
   NREBOOT  =      0    no. of reboots
   NMIN     =      0    reboot dimension
   EREF     =   0.00    reference energy to select bands
   IMIX   =      4    mixing-type and parameters
     AMIX     =   0.40;   BMIX     =  1.00
     AMIX_MAG =   1.60;   BMIX_MAG =  1.00
     AMIN     =   0.10
     WC   =   100.;   INIMIX=   1;  MIXPRE=   1;  MAXMIX= -45

 Intra band minimization:
   WEIMIN = 0.0000     energy-eigenvalue tresh-hold
   EBREAK =  0.78E-08  absolut break condition
   DEPER  =   0.30     relativ break condition  

   TIME   =   0.40     timestep for ELM

  volume/ion in A,a.u.               =      23.11       155.94
  Fermi-wavevector in a.u.,A,eV,Ry     =   0.982836  1.857291 13.142773  0.965967
  Thomas-Fermi vector in A             =   2.113949
 
 Write flags
   LWAVE        =      F    write WAVECAR
   LDOWNSAMPLE  =      F    k-point downsampling of WAVECAR
   LCHARG       =      F    write CHGCAR
   LVTOT        =      F    write LOCPOT, total local potential
   LVHAR        =      F    write LOCPOT, Hartree potential only
   LELF         =      F    write electronic localiz. function (ELF)
   LORBIT       =      0    0 simple, 1 ext, 2 COOP (PROOUT), +10 PAW based schemes


 Dipole corrections
   LMONO  =      F    monopole corrections only (constant potential shift)
   LDIPOL =      F    correct potential (dipole corrections)
   IDIPOL =      0    1-x, 2-y, 3-z, 4-all directions 
   EPSILON=  1.0000000 bulk dielectric constant

 Exchange correlation treatment:
   GGA     =    PE    GGA type
   LEXCH   =     8    internal setting for exchange type
   LIBXC   =     F    Libxc                    
   VOSKOWN =     0    Vosko Wilk Nusair interpolation
   LHFCALC =     F    Hartree Fock is set to
   LHFONE  =     F    Hartree Fock one center treatment
   AEXX    =    0.0000 exact exchange contribution

 Linear response parameters
   LEPSILON=     F    determine dielectric tensor
   LRPA    =     F    only Hartree local field effects (RPA)
   LNABLA  =     F    use nabla operator in PAW spheres
   LVEL    =     F    velocity operator in full k-point grid
   CSHIFT  =0.1000    complex shift for real part using Kramers Kronig
   OMEGAMAX=  -1.0    maximum frequency
   DEG_THRESHOLD= 0.2000000E-02 threshold for treating states as degnerate
   RTIME   =   -0.100 relaxation time in fs
  (WPLASMAI=    0.000 imaginary part of plasma frequency in eV, 0.658/RTIME)
   DFIELD  = 0.0000000 0.0000000 0.0000000 field for delta impulse in time
 
  Optional k-point grid parameters
   LKPOINTS_OPT  =     F    use optional k-point grid
   KPOINTS_OPT_MODE=     1    mode for optional k-point grid
 
 Orbital magnetization related:
   ORBITALMAG=     F  switch on orbital magnetization
   LCHIMAG   =     F  perturbation theory with respect to B field
   DQ        =  0.001000  dq finite difference perturbation B field
   LLRAUG    =     F  two centre corrections for induced B field
   LBONE     =     F  B-component reconstruction in AE one-centre
   LVGVCALC  =     T  calculate vGv susceptibility
   LVGVAPPL  =     F  apply vGv susceptibility instead of pGv for G=0

 Random number generation:
   RANDOM_GENERATOR = DEFAULT
   PCG_SEED         = not used


--------------------------------------------------------------------------------------------------------


 Static calculation
 charge density and potential will be updated during run
 non-spin polarized calculation
 Variant of blocked Davidson
 Davidson routine will perform the subspace rotation
 perform sub-space diagonalisation
    after iterative eigenvector-optimisation
 modified Broyden-mixing scheme, WC =      100.0
 initial mixing is a Kerker type mixing with AMIX =  0.4000 and BMIX =      1.0000
 Hartree-type preconditioning will be used
 using additional bands            12
 reciprocal scheme for non local part
 use partial core corrections
 calculate Harris-corrections to forces 
   (improved forces if not selfconsistent)
 use gradient corrections 
 use of overlap-Matrix (Vanderbilt PP)
 Gauss-broadening in eV      SIGMA  =   0.05


--------------------------------------------------------------------------------------------------------


  energy-cutoff  :      360.00
  volume of cell :      184.86
      direct lattice vectors                 reciprocal lattice vectors
     3.858100176  0.000000000  0.000000000     0.259194929  0.000000000  0.000000000
     0.000000000  4.526575088  0.000000000     0.000000000  0.220917577  0.000000000
     0.000000000  0.000000000 10.585176468     0.000000000  0.000000000  0.094471736

  length of vectors
     3.858100176  4.526575088 10.585176468     0.259194929  0.220917577  0.094471736


 
 k-points in units of 2pi/SCALE and weight: KPOINTS created by Atomic Simulation Env
   0.00000000  0.00000000  0.00000000       0.014
   0.04319915  0.00000000  0.00000000       0.028
   0.08639831  0.00000000  0.00000000       0.028
   0.12959746  0.00000000  0.00000000       0.014
   0.00000000  0.03681960  0.00000000       0.028
   0.04319915  0.03681960  0.00000000       0.028
   0.04319915 -0.03681960  0.00000000       0.028
   0.08639831  0.03681960  0.00000000       0.028
   0.08639831 -0.03681960  0.00000000       0.028
   0.12959746  0.03681960  0.00000000       0.028
   0.00000000  0.07363919  0.00000000       0.028
   0.04319915  0.07363919  0.00000000       0.028
   0.04319915 -0.07363919  0.00000000       0.028
   0.08639831  0.07363919  0.00000000       0.028
   0.08639831 -0.07363919  0.00000000       0.028
   0.12959746  0.07363919  0.00000000       0.028
   0.00000000  0.11045879  0.00000000       0.014
   0.04319915  0.11045879  0.00000000       0.028
   0.08639831  0.11045879  0.00000000       0.028
   0.12959746  0.11045879  0.00000000       0.014
   0.00000000  0.00000000  0.04723587       0.014
   0.04319915  0.00000000  0.04723587       0.028
   0.08639831  0.00000000  0.04723587       0.028
   0.12959746  0.00000000  0.04723587       0.014
   0.00000000  0.03681960  0.04723587       0.028
   0.04319915  0.03681960  0.04723587       0.028
   0.04319915 -0.03681960  0.04723587       0.028
   0.08639831  0.03681960  0.04723587       0.028
   0.08639831 -0.03681960  0.04723587       0.028
   0.12959746  0.03681960  0.04723587       0.028
   0.00000000  0.07363919  0.04723587       0.028
   0.04319915  0.07363919  0.04723587       0.028
   0.04319915 -0.07363919  0.04723587       0.028
   0.08639831  0.07363919  0.04723587       0.028
   0.08639831 -0.07363919  0.04723587       0.028
   0.12959746  0.07363919  0.04723587       0.028
   0.00000000  0.11045879  0.04723587       0.014
   0.04319915  0.11045879  0.04723587       0.028
   0.08639831  0.11045879  0.04723587       0.028
   0.12959746  0.11045879  0.04723587       0.014
 
 k-points in reciprocal lattice and weights: KPOINTS created by Atomic Simulation Env
   0.00000000  0.00000000  0.00000000       0.014
   0.16666667  0.00000000  0.00000000       0.028
   0.33333333  0.00000000  0.00000000       0.028
   0.50000000  0.00000000  0.00000000       0.014
   0.00000000  0.16666667  0.00000000       0.028
   0.16666667  0.16666667  0.00000000       0.028
   0.16666667 -0.16666667  0.00000000       0.028
   0.33333333  0.16666667  0.00000000       0.028
   0.33333333 -0.16666667  0.00000000       0.028
   0.50000000  0.16666667  0.00000000       0.028
   0.00000000  0.33333333  0.00000000       0.028
   0.16666667  0.33333333  0.00000000       0.028
   0.16666667 -0.33333333  0.00000000       0.028
   0.33333333  0.33333333  0.00000000       0.028
   0.33333333 -0.33333333  0.00000000       0.028
   0.50000000  0.33333333  0.00000000       0.028
   0.00000000  0.50000000  0.00000000       0.014
   0.16666667  0.50000000  0.00000000       0.028
   0.33333333  0.50000000  0.00000000       0.028
   0.50000000  0.50000000  0.00000000       0.014
   0.00000000  0.00000000  0.50000000       0.014
   0.16666667  0.00000000  0.50000000       0.028
   0.33333333  0.00000000  0.50000000       0.028
   0.50000000  0.00000000  0.50000000       0.014
   0.00000000  0.16666667  0.50000000       0.028
   0.16666667  0.16666667  0.50000000       0.028
   0.16666667 -0.16666667  0.50000000       0.028
   0.33333333  0.16666667  0.50000000       0.028
   0.33333333 -0.16666667  0.50000000       0.028
   0.50000000  0.16666667  0.50000000       0.028
   0.00000000  0.33333333  0.50000000       0.028
   0.16666667  0.33333333  0.50000000       0.028
   0.16666667 -0.33333333  0.50000000       0.028
   0.33333333  0.33333333  0.50000000       0.028
   0.33333333 -0.33333333  0.50000000       0.028
   0.50000000  0.33333333  0.50000000       0.028
   0.00000000  0.50000000  0.50000000       0.014
   0.16666667  0.50000000  0.50000000       0.028
   0.33333333  0.50000000  0.50000000       0.028
   0.50000000  0.50000000  0.50000000       0.014
 
 position of ions in fractional coordinates (direct lattice) 
   0.77173884  0.35108018  0.11629323
   0.27173889  0.85108021  0.38370666
   0.74999953  0.88080355  0.88370670
   0.24999891  0.38080359  0.61629330
   0.77173891  0.22682527  0.35452175
   0.27173879  0.72682537  0.14547826
   0.74999912  0.00505836  0.64547820
   0.24999942  0.50505845  0.85452174
 
 position of ions in cartesian coordinates  (Angst):
   2.97744575  1.58919080  1.23098441
   1.04839585  3.85247846  4.06160274
   2.89357331  3.98702340  9.35419135
   0.96452085  1.72373604  6.52357335
   2.97744603  1.02674161  3.75267533
   1.04839547  3.29002961  1.53991301
   2.89357173  0.02289706  6.83250071
   0.96452282  2.28618498  9.04526339
 


--------------------------------------------------------------------------------------------------------


 k-point   1 :   0.0000 0.0000 0.0000  plane waves:    2825
 k-point   2 :   0.1667 0.0000 0.0000  plane waves:    2856
 k-point   3 :   0.3333 0.0000 0.0000  plane waves:    2864
 k-point   4 :   0.5000 0.0000 0.0000  plane waves:    2880
 k-point   5 :   0.0000 0.1667 0.0000  plane waves:    2850
 k-point   6 :   0.1667 0.1667 0.0000  plane waves:    2853
 k-point   7 :   0.1667-0.1667 0.0000  plane waves:    2853
 k-point   8 :   0.3333 0.1667 0.0000  plane waves:    2873
 k-point   9 :   0.3333-0.1667 0.0000  plane waves:    2873
 k-point  10 :   0.5000 0.1667 0.0000  plane waves:    2866
 k-point  11 :   0.0000 0.3333 0.0000  plane waves:    2864
 k-point  12 :   0.1667 0.3333 0.0000  plane waves:    2871
 k-point  13 :   0.1667-0.3333 0.0000  plane waves:    2871
 k-point  14 :   0.3333 0.3333 0.0000  plane waves:    2883
 k-point  15 :   0.3333-0.3333 0.0000  plane waves:    2883
 k-point  16 :   0.5000 0.3333 0.0000  plane waves:    2880
 k-point  17 :   0.0000 0.5000 0.0000  plane waves:    2874
 k-point  18 :   0.1667 0.5000 0.0000  plane waves:    2880
 k-point  19 :   0.3333 0.5000 0.0000  plane waves:    2888
 k-point  20 :   0.5000 0.5000 0.0000  plane waves:    2896
 k-point  21 :   0.0000 0.0000 0.5000  plane waves:    2828
 k-point  22 :   0.1667 0.0000 0.5000  plane waves:    2838
 k-point  23 :   0.3333 0.0000 0.5000  plane waves:    2868
 k-point  24 :   0.5000 0.0000 0.5000  plane waves:    2852
 k-point  25 :   0.0000 0.1667 0.5000  plane waves:    2846
 k-point  26 :   0.1667 0.1667 0.5000  plane waves:    2868
 k-point  27 :   0.1667-0.1667 0.5000  plane waves:    2868
 k-point  28 :   0.3333 0.1667 0.5000  plane waves:    2866
 k-point  29 :   0.3333-0.1667 0.5000  plane waves:    2866
 k-point  30 :   0.5000 0.1667 0.5000  plane waves:    2884
 k-point  31 :   0.0000 0.3333 0.5000  plane waves:    2852
 k-point  32 :   0.1667 0.3333 0.5000  plane waves:    2862
 k-point  33 :   0.1667-0.3333 0.5000  plane waves:    2862
 k-point  34 :   0.3333 0.3333 0.5000  plane waves:    2874
 k-point  35 :   0.3333-0.3333 0.5000  plane waves:    2874
 k-point  36 :   0.5000 0.3333 0.5000  plane waves:    2892
 k-point  37 :   0.0000 0.5000 0.5000  plane waves:    2872
 k-point  38 :   0.1667 0.5000 0.5000  plane waves:    2856
 k-point  39 :   0.3333 0.5000 0.5000  plane waves:    2876
 k-point  40 :   0.5000 0.5000 0.5000  plane waves:    2872

 maximum and minimum number of plane-waves per node :       592      553

 maximum number of plane-waves:      2896
 maximum index in each direction: 
   IXMAX=    5   IYMAX=    7   IZMAX=   16
   IXMIN=   -6   IYMIN=   -7   IZMIN=  -16


 parallel 3D FFT for wavefunctions:
    minimum data exchange during FFTs selected (reduces bandwidth)
 parallel 3D FFT for charge:
    minimum data exchange during FFTs selected (reduces bandwidth)


 total amount of memory used by VASP MPI-rank0    36587. kBytes
=======================================================================

   base      :      30000. kBytes
   nonl-proj :       5001. kBytes
   fftplans  :        306. kBytes
   grid      :        466. kBytes
   one-center:         16. kBytes
   wavefun   :        798. kBytes
 
     INWAV:  cpu time      0.0000: real time      0.0001
 Broyden mixing: mesh for mixing (old mesh)
   NGX = 11   NGY = 15   NGZ = 33
  (NGX  = 36   NGY  = 48   NGZ  =100)
  gives a total of   5445 points

 initial charge density was supplied:
 charge density of overlapping atoms calculated
 number of electron      40.0000000 magnetization 
 keeping initial charge density in first step


--------------------------------------------------------------------------------------------------------


 Maximum index for augmentation-charges           181 (set IRDMAX)


--------------------------------------------------------------------------------------------------------


 First call to EWALD:  gamma=   0.311
 Maximum number of real-space cells 4x 3x 2
 Maximum number of reciprocal cells 2x 2x 5

    FEWALD:  cpu time      0.0010: real time      0.0010


--------------------------------------- Ionic step        1  -------------------------------------------




--------------------------------------- Iteration      1(   1)  ---------------------------------------


    POTLOK:  cpu time      0.0081: real time      0.0082
    SETDIJ:  cpu time      0.2168: real time      0.2173
     EDDAV:  cpu time      0.3059: real time      0.3070
       DOS:  cpu time      0.0011: real time      0.0011
    --------------------------------------------
      LOOP:  cpu time      0.5318: real time      0.5336

 eigenvalue-minimisations  :  2560
 total energy-change (2. order) : 0.1313439E+03  (-0.1299829E+04)
 number of electron      40.0000000 magnetization 
 augmentation part       40.0000000 magnetization 

 Free energy of the ion-electron system (eV)
  ---------------------------------------------------
  alpha Z        PSCENC =        91.66130333
  Ewald energy   TEWEN  =     -1446.06298305
  -Hartree energ DENC   =      -118.96300233
  -exchange      EXHF   =         0.00000000
  -V(xc)+E(xc)   XCENC  =       -32.81528607
  PAW double counting   =      1193.78262552    -1080.73714043
  entropy T*S    EENTRO =        -0.00131041
  eigenvalues    EBANDS =        75.99508542
  atomic energy  EATOM  =      1448.48460880
  Solvation  Ediel_sol  =         0.00000000
  ---------------------------------------------------
  free energy    TOTEN  =       131.34390077 eV

  energy without entropy =      131.34521118  energy(sigma->0) =      131.34455598


--------------------------------------------------------------------------------------------------------




--------------------------------------- Iteration      1(   2)  ---------------------------------------


     EDDAV:  cpu time      0.4339: real time      0.4371
       DOS:  cpu time      0.0005: real time      0.0005
    --------------------------------------------
      LOOP:  cpu time      0.4344: real time      0.4377

 eigenvalue-minimisations  :  3776
 total energy-change (2. order) :-0.1566386E+03  (-0.1520670E+03)
 number of electron      40.0000000 magnetization 
 augmentation part       40.0000000 magnetization 

 Free energy of the ion-electron system (eV)
  ---------------------------------------------------
  alpha Z        PSCENC =        91.66130333
  Ewald energy   TEWEN  =     -1446.06298305
  -Hartree energ DENC   =      -118.96300233
  -exchange      EXHF   =         0.00000000
  -V(xc)+E(xc)   XCENC  =       -32.81528607
  PAW double counting   =      1193.78262552    -1080.73714043
  entropy T*S    EENTRO =        -0.00000000
  eigenvalues    EBANDS =       -80.64479047
  atomic energy  EATOM  =      1448.48460880
  Solvation  Ediel_sol  =         0.00000000
  ---------------------------------------------------
  free energy    TOTEN  =       -25.29466471 eV

  energy without entropy =      -25.29466471  energy(sigma->0) =      -25.29466471


--------------------------------------------------------------------------------------------------------




--------------------------------------- Iteration      1(   3)  ---------------------------------------


     EDDAV:  cpu time      0.3672: real time      0.3689
       DOS:  cpu time      0.0005: real time      0.0005
    --------------------------------------------
      LOOP:  cpu time      0.3678: real time      0.3695

 eigenvalue-minimisations  :  3072
 total energy-change (2. order) :-0.8329852E+01  (-0.8313856E+01)
 number of electron      40.0000000 magnetization 
 augmentation part       40.0000000 magnetization 

 Free energy of the ion-electron system (eV)
  ---------------------------------------------------
  alpha Z        PSCENC =        91.66130333
  Ewald energy   TEWEN  =     -1446.06298305
  -Hartree energ DENC   =      -118.96300233
  -exchange      EXHF   =         0.00000000
  -V(xc)+E(xc)   XCENC  =       -32.81528607
  PAW double counting   =      1193.78262552    -1080.73714043
  entropy T*S    EENTRO =        -0.00000000
  eigenvalues    EBANDS =       -88.97464220
  atomic energy  EATOM  =      1448.48460880
  Solvation  Ediel_sol  =         0.00000000
  ---------------------------------------------------
  free energy    TOTEN  =       -33.62451644 eV

  energy without entropy =      -33.62451644  energy(sigma->0) =      -33.62451644


--------------------------------------------------------------------------------------------------------




--------------------------------------- Iteration      1(   4)  ---------------------------------------


     EDDAV:  cpu time      0.3957: real time      0.3973
       DOS:  cpu time      0.0006: real time      0.0006
    --------------------------------------------
      LOOP:  cpu time      0.3962: real time      0.3979

 eigenvalue-minimisations  :  3392
 total energy-change (2. order) :-0.5223093E-01  (-0.5222261E-01)
 number of electron      40.0000000 magnetization 
 augmentation part       40.0000000 magnetization 

 Free energy of the ion-electron system (eV)
  ---------------------------------------------------
  alpha Z        PSCENC =        91.66130333
  Ewald energy   TEWEN  =     -1446.06298305
  -Hartree energ DENC   =      -118.96300233
  -exchange      EXHF   =         0.00000000
  -V(xc)+E(xc)   XCENC  =       -32.81528607
  PAW double counting   =      1193.78262552    -1080.73714043
  entropy T*S    EENTRO =        -0.00000000
  eigenvalues    EBANDS =       -89.02687314
  atomic energy  EATOM  =      1448.48460880
  Solvation  Ediel_sol  =         0.00000000
  ---------------------------------------------------
  free energy    TOTEN  =       -33.67674737 eV

  energy without entropy =      -33.67674737  energy(sigma->0) =      -33.67674737


--------------------------------------------------------------------------------------------------------




--------------------------------------- Iteration      1(   5)  ---------------------------------------


     EDDAV:  cpu time      0.3628: real time      0.3650
       DOS:  cpu time      0.0006: real time      0.0006
    CHARGE:  cpu time      0.0054: real time      0.0054
    MIXING:  cpu time      0.0004: real time      0.0004
    --------------------------------------------
      LOOP:  cpu time      0.3691: real time      0.3714

 eigenvalue-minimisations  :  2976
 total energy-change (2. order) :-0.2988949E-03  (-0.2988930E-03)
 number of electron      40.0000030 magnetization 
 augmentation part       -7.4311107 magnetization 

 Broyden mixing:
  rms(total) = 0.67409E+00    rms(broyden)= 0.67408E+00
  rms(prec ) = 0.75701E+00
  weight for this iteration     100.00

 Free energy of the ion-electron system (eV)
  ---------------------------------------------------
  alpha Z        PSCENC =        91.66130333
  Ewald energy   TEWEN  =     -1446.06298305
  -Hartree energ DENC   =      -118.96300233
  -exchange      EXHF   =         0.00000000
  -V(xc)+E(xc)   XCENC  =       -32.81528607
  PAW double counting   =      1193.78262552    -1080.73714043
  entropy T*S    EENTRO =        -0.00000000
  eigenvalues    EBANDS =       -89.02717203
  atomic energy  EATOM  =      1448.48460880
  Solvation  Ediel_sol  =         0.00000000
  ---------------------------------------------------
  free energy    TOTEN  =       -33.67704627 eV

  energy without entropy =      -33.67704627  energy(sigma->0) =      -33.67704627


--------------------------------------------------------------------------------------------------------




--------------------------------------- Iteration      1(   6)  ---------------------------------------


    POTLOK:  cpu time      0.0074: real time      0.0075
    SETDIJ:  cpu time      0.2186: real time      0.2190
     EDDAV:  cpu time      0.3586: real time      0.3603
       DOS:  cpu time      0.0005: real time      0.0005
    CHARGE:  cpu time      0.0051: real time      0.0051
    MIXING:  cpu time      0.0004: real time      0.0004
    --------------------------------------------
      LOOP:  cpu time      0.5906: real time      0.5929

 eigenvalue-minimisations  :  3152
 total energy-change (2. order) : 0.3584265E+00  (-0.6895025E-01)
 number of electron      40.0000029 magnetization 
 augmentation part       -7.3796310 magnetization 

 Broyden mixing:
  rms(total) = 0.42268E+00    rms(broyden)= 0.42268E+00
  rms(prec ) = 0.44539E+00
  weight for this iteration     100.00

 eigenvalues of (default mixing * dielectric matrix)
  average eigenvalue GAMMA=   2.2746
  2.2746

 Free energy of the ion-electron system (eV)
  ---------------------------------------------------
  alpha Z        PSCENC =        91.66130333
  Ewald energy   TEWEN  =     -1446.06298305
  -Hartree energ DENC   =      -124.53799533
  -exchange      EXHF   =         0.00000000
  -V(xc)+E(xc)   XCENC  =       -32.24245138
  PAW double counting   =      1470.64936144    -1357.93223320
  entropy T*S    EENTRO =        -0.00000000
  eigenvalues    EBANDS =       -83.33823039
  atomic energy  EATOM  =      1448.48460880
  Solvation  Ediel_sol  =         0.00000000
  ---------------------------------------------------
  free energy    TOTEN  =       -33.31861979 eV

  energy without entropy =      -33.31861979  energy(sigma->0) =      -33.31861979


--------------------------------------------------------------------------------------------------------




--------------------------------------- Iteration      1(   7)  ---------------------------------------


    POTLOK:  cpu time      0.0073: real time      0.0075
    SETDIJ:  cpu time      0.2154: real time      0.2160
     EDDAV:  cpu time      0.3506: real time      0.3527
       DOS:  cpu time      0.0006: real time      0.0006
    CHARGE:  cpu time      0.0051: real time      0.0051
    MIXING:  cpu time      0.0004: real time      0.0004
    --------------------------------------------
      LOOP:  cpu time      0.5794: real time      0.5822

 eigenvalue-minimisations  :  2992
 total energy-change (2. order) : 0.1749623E-01  (-0.2271149E-01)
 number of electron      40.0000029 magnetization 
 augmentation part       -7.3641013 magnetization 

 Broyden mixing:
  rms(total) = 0.12382E+00    rms(broyden)= 0.12382E+00
  rms(prec ) = 0.13277E+00
  weight for this iteration     100.00

 eigenvalues of (default mixing * dielectric matrix)
  average eigenvalue GAMMA=   1.8175
  1.2136  2.4214

 Free energy of the ion-electron system (eV)
  ---------------------------------------------------
  alpha Z        PSCENC =        91.66130333
  Ewald energy   TEWEN  =     -1446.06298305
  -Hartree energ DENC   =      -127.27830769
  -exchange      EXHF   =         0.00000000
  -V(xc)+E(xc)   XCENC  =       -31.76790799
  PAW double counting   =      1830.97467180    -1718.52510408
  entropy T*S    EENTRO =        -0.00000000
  eigenvalues    EBANDS =       -80.78740468
  atomic energy  EATOM  =      1448.48460880
  Solvation  Ediel_sol  =         0.00000000
  ---------------------------------------------------
  free energy    TOTEN  =       -33.30112357 eV

  energy without entropy =      -33.30112357  energy(sigma->0) =      -33.30112357


--------------------------------------------------------------------------------------------------------




--------------------------------------- Iteration      1(   8)  ---------------------------------------


    POTLOK:  cpu time      0.0078: real time      0.0079
    SETDIJ:  cpu time      0.2148: real time      0.2151
     EDDAV:  cpu time      0.3830: real time      0.3896
       DOS:  cpu time      0.0006: real time      0.0006
    CHARGE:  cpu time      0.0064: real time      0.0064
    MIXING:  cpu time      0.0005: real time      0.0005
    --------------------------------------------
      LOOP:  cpu time      0.6130: real time      0.6201

 eigenvalue-minimisations  :  2864
 total energy-change (2. order) : 0.2241409E-02  (-0.2340902E-02)
 number of electron      40.0000029 magnetization 
 augmentation part       -7.3732816 magnetization 

 Broyden mixing:
  rms(total) = 0.16926E-01    rms(broyden)= 0.16926E-01
  rms(prec ) = 0.20875E-01
  weight for this iteration     100.00

 eigenvalues of (default mixing * dielectric matrix)
  average eigenvalue GAMMA=   1.7152
  2.4966  1.3244  1.3244

 Free energy of the ion-electron system (eV)
  ---------------------------------------------------
  alpha Z        PSCENC =        91.66130333
  Ewald energy   TEWEN  =     -1446.06298305
  -Hartree energ DENC   =      -127.24304902
  -exchange      EXHF   =         0.00000000
  -V(xc)+E(xc)   XCENC  =       -31.65328151
  PAW double counting   =      1966.35558074    -1853.96412704
  entropy T*S    EENTRO =        -0.00000000
  eigenvalues    EBANDS =       -80.87693440
  atomic energy  EATOM  =      1448.48460880
  Solvation  Ediel_sol  =         0.00000000
  ---------------------------------------------------
  free energy    TOTEN  =       -33.29888216 eV

  energy without entropy =      -33.29888216  energy(sigma->0) =      -33.29888216


--------------------------------------------------------------------------------------------------------




--------------------------------------- Iteration      1(   9)  ---------------------------------------


    POTLOK:  cpu time      0.0075: real time      0.0077
    SETDIJ:  cpu time      0.2162: real time      0.2169
     EDDAV:  cpu time      0.3752: real time      0.3769
       DOS:  cpu time      0.0005: real time      0.0005
    CHARGE:  cpu time      0.0052: real time      0.0052
    MIXING:  cpu time      0.0005: real time      0.0005
    --------------------------------------------
      LOOP:  cpu time      0.6052: real time      0.6077

 eigenvalue-minimisations  :  3088
 total energy-change (2. order) :-0.2071752E-03  (-0.3281027E-03)
 number of electron      40.0000029 magnetization 
 augmentation part       -7.3716494 magnetization 

 Broyden mixing:
  rms(total) = 0.59029E-02    rms(broyden)= 0.59029E-02
  rms(prec ) = 0.67533E-02
  weight for this iteration     100.00

 eigenvalues of (default mixing * dielectric matrix)
  average eigenvalue GAMMA=   1.6985
  2.2250  2.2250  1.1720  1.1720

 Free energy of the ion-electron system (eV)
  ---------------------------------------------------
  alpha Z        PSCENC =        91.66130333
  Ewald energy   TEWEN  =     -1446.06298305
  -Hartree energ DENC   =      -127.56437143
  -exchange      EXHF   =         0.00000000
  -V(xc)+E(xc)   XCENC  =       -31.62053910
  PAW double counting   =      1977.13905697    -1864.75536930
  entropy T*S    EENTRO =        -0.00000000
  eigenvalues    EBANDS =       -80.58079554
  atomic energy  EATOM  =      1448.48460880
  Solvation  Ediel_sol  =         0.00000000
  ---------------------------------------------------
  free energy    TOTEN  =       -33.29908933 eV

  energy without entropy =      -33.29908933  energy(sigma->0) =      -33.29908933


--------------------------------------------------------------------------------------------------------




--------------------------------------- Iteration      1(  10)  ---------------------------------------


    POTLOK:  cpu time      0.0074: real time      0.0075
    SETDIJ:  cpu time      0.2153: real time      0.2157
     EDDAV:  cpu time      0.3748: real time      0.3771
       DOS:  cpu time      0.0005: real time      0.0005
    CHARGE:  cpu time      0.0051: real time      0.0051
    MIXING:  cpu time      0.0005: real time      0.0005
    --------------------------------------------
      LOOP:  cpu time      0.6036: real time      0.6064

 eigenvalue-minimisations  :  3152
 total energy-change (2. order) :-0.7640160E-04  (-0.2311425E-04)
 number of electron      40.0000029 magnetization 
 augmentation part       -7.3716440 magnetization 

 Broyden mixing:
  rms(total) = 0.22153E-02    rms(broyden)= 0.22153E-02
  rms(prec ) = 0.27791E-02
  weight for this iteration     100.00

 eigenvalues of (default mixing * dielectric matrix)
  average eigenvalue GAMMA=   1.7564
  2.6592  2.4658  1.1088  1.2741  1.2741

 Free energy of the ion-electron system (eV)
  ---------------------------------------------------
  alpha Z        PSCENC =        91.66130333
  Ewald energy   TEWEN  =     -1446.06298305
  -Hartree energ DENC   =      -127.59204313
  -exchange      EXHF   =         0.00000000
  -V(xc)+E(xc)   XCENC  =       -31.61790609
  PAW double counting   =      1971.98903234    -1859.60110430
  entropy T*S    EENTRO =        -0.00000000
  eigenvalues    EBANDS =       -80.56007363
  atomic energy  EATOM  =      1448.48460880
  Solvation  Ediel_sol  =         0.00000000
  ---------------------------------------------------
  free energy    TOTEN  =       -33.29916573 eV

  energy without entropy =      -33.29916573  energy(sigma->0) =      -33.29916573


--------------------------------------------------------------------------------------------------------




--------------------------------------- Iteration      1(  11)  ---------------------------------------


    POTLOK:  cpu time      0.0072: real time      0.0073
    SETDIJ:  cpu time      0.2154: real time      0.2159
     EDDAV:  cpu time      0.3239: real time      0.3251
       DOS:  cpu time      0.0005: real time      0.0005
    CHARGE:  cpu time      0.0051: real time      0.0052
    MIXING:  cpu time      0.0005: real time      0.0005
    --------------------------------------------
      LOOP:  cpu time      0.5527: real time      0.5545

 eigenvalue-minimisations  :  2784
 total energy-change (2. order) :-0.2542051E-04  (-0.3828264E-05)
 number of electron      40.0000029 magnetization 
 augmentation part       -7.3719000 magnetization 

 Broyden mixing:
  rms(total) = 0.11058E-02    rms(broyden)= 0.11058E-02
  rms(prec ) = 0.12689E-02
  weight for this iteration     100.00

 eigenvalues of (default mixing * dielectric matrix)
  average eigenvalue GAMMA=   1.7308
  2.5198  2.5198  2.0494  0.9386  1.1788  1.1788

 Free energy of the ion-electron system (eV)
  ---------------------------------------------------
  alpha Z        PSCENC =        91.66130333
  Ewald energy   TEWEN  =     -1446.06298305
  -Hartree energ DENC   =      -127.61184706
  -exchange      EXHF   =         0.00000000
  -V(xc)+E(xc)   XCENC  =       -31.61278877
  PAW double counting   =      1973.03512789    -1860.64711798
  entropy T*S    EENTRO =        -0.00000000
  eigenvalues    EBANDS =       -80.54549431
  atomic energy  EATOM  =      1448.48460880
  Solvation  Ediel_sol  =         0.00000000
  ---------------------------------------------------
  free energy    TOTEN  =       -33.29919115 eV

  energy without entropy =      -33.29919115  energy(sigma->0) =      -33.29919115


--------------------------------------------------------------------------------------------------------




--------------------------------------- Iteration      1(  12)  ---------------------------------------


    POTLOK:  cpu time      0.0072: real time      0.0073
    SETDIJ:  cpu time      0.2157: real time      0.2163
     EDDAV:  cpu time      0.3855: real time      0.3876
       DOS:  cpu time      0.0005: real time      0.0005
    --------------------------------------------
      LOOP:  cpu time      0.6090: real time      0.6117

 eigenvalue-minimisations  :  3328
 total energy-change (2. order) :-0.2986297E-06  (-0.5460077E-06)
 number of electron      40.0000029 magnetization 
 augmentation part       -7.3719000 magnetization 

 Free energy of the ion-electron system (eV)
  ---------------------------------------------------
  alpha Z        PSCENC =        91.66130333
  Ewald energy   TEWEN  =     -1446.06298305
  -Hartree energ DENC   =      -127.62553816
  -exchange      EXHF   =         0.00000000
  -V(xc)+E(xc)   XCENC  =       -31.61180967
  PAW double counting   =      1972.34053824    -1859.95233175
  entropy T*S    EENTRO =        -0.00000000
  eigenvalues    EBANDS =       -80.53297918
  atomic energy  EATOM  =      1448.48460880
  Solvation  Ediel_sol  =         0.00000000
  ---------------------------------------------------
  free energy    TOTEN  =       -33.29919145 eV

  energy without entropy =      -33.29919145  energy(sigma->0) =      -33.29919145


--------------------------------------------------------------------------------------------------------




 average (electrostatic) potential at core
  the test charge radii are     1.1631  1.0808
  (the norm of the test charge is              1.0000)
       1 -33.0399       2 -33.0399       3 -33.0399       4 -33.0399       5 -54.5969
       6 -54.5969       7 -54.5969       8 -54.5969
 
 
 
 E-fermi :   3.9252     XC(G=0):  -9.5091     alpha+bet : -9.1315

 Fermi energy:         3.9251661758

 k-point     1 :       0.0000    0.0000    0.0000
  band No.  band energies     occupation 
      1     -10.8014      2.00000
      2     -10.2302      2.00000
      3      -9.5662      2.00000
      4      -8.7001      2.00000
      5      -4.4591      2.00000
      6      -3.7978      2.00000
      7      -2.2536      2.00000
      8      -2.0087      2.00000
      9      -1.7774      2.00000
     10      -0.2541      2.00000
     11       0.2987      2.00000
     12       0.5171      2.00000
     13       0.8621      2.00000
     14       0.9481      2.00000
     15       1.4243      2.00000
     16       1.4835      2.00000
     17       2.4340      2.00000
     18       2.7472      2.00000
     19       3.1266      2.00000
     20       3.5011      2.00000
     21       4.2175      0.00000
     22       5.7636      0.00000
     23       5.7988      0.00000
     24       6.5524      0.00000
     25       7.2117      0.00000
     26       7.3896      0.00000
     27       7.4635      0.00000
     28       7.9216      0.00000
     29       8.3489      0.00000
     30       8.3704      0.00000
     31       8.7616      0.00000
     32       9.0836      0.00000

 k-point     2 :       0.1667    0.0000    0.0000
  band No.  band energies     occupation 
      1     -10.6094      2.00000
      2     -10.0513      2.00000
      3      -9.4464      2.00000
      4      -8.6461      2.00000
      5      -4.7791      2.00000
      6      -3.9183      2.00000
      7      -2.8314      2.00000
      8      -2.2600      2.00000
      9      -1.7302      2.00000
     10      -0.0661      2.00000
     11       0.0525      2.00000
     12       0.2218      2.00000
     13       0.9435      2.00000
     14       1.0720      2.00000
     15       1.4870      2.00000
     16       1.7022      2.00000
     17       1.8716      2.00000
     18       2.6503      2.00000
     19       3.2821      2.00000
     20       3.5069      2.00000
     21       4.3317      0.00000
     22       5.9597      0.00000
     23       6.2021      0.00000
     24       6.2843      0.00000
     25       6.5765      0.00000
     26       7.0541      0.00000
     27       7.6678      0.00000
     28       7.9336      0.00000
     29       8.0348      0.00000
     30       8.0540      0.00000
     31       8.4015      0.00000
     32       8.7026      0.00000

 k-point     3 :       0.3333    0.0000    0.0000
  band No.  band energies     occupation 
      1     -10.0888      2.00000
      2      -9.5677      2.00000
      3      -9.2587      2.00000
      4      -8.6395      2.00000
      5      -5.3758      2.00000
      6      -4.2147      2.00000
      7      -4.1427      2.00000
      8      -3.0625      2.00000
      9      -1.1621      2.00000
     10      -0.1437      2.00000
     11       0.1649      2.00000
     12       0.6606      2.00000
     13       1.0296      2.00000
     14       1.4778      2.00000
     15       1.7568      2.00000
     16       1.8251      2.00000
     17       1.9227      2.00000
     18       2.0654      2.00000
     19       2.8513      2.00000
     20       3.3162      2.00000
     21       4.5368      0.00000
     22       4.6526      0.00000
     23       5.4622      0.00000
     24       5.6695      0.00000
     25       5.7930      0.00000
     26       6.1547      0.00000
     27       6.5223      0.00000
     28       6.6723      0.00000
     29       7.4200      0.00000
     30       7.8785      0.00000
     31       8.7323      0.00000
     32       9.5151      0.00000

 k-point     4 :       0.5000    0.0000    0.0000
  band No.  band energies     occupation 
      1      -9.4775      2.00000
      2      -9.4775      2.00000
      3      -8.9791      2.00000
      4      -8.9791      2.00000
      5      -5.2790      2.00000
      6      -5.2790      2.00000
      7      -3.9010      2.00000
      8      -3.9010      2.00000
      9      -0.4185      2.00000
     10      -0.4185      2.00000
     11       0.7354      2.00000
     12       0.7354      2.00000
     13       1.5209      2.00000
     14       1.5209      2.00000
     15       1.7540      2.00000
     16       1.7540      2.00000
     17       1.8161      2.00000
     18       1.8161      2.00000
     19       2.8049      2.00000
     20       2.8049      2.00000
     21       4.3961      0.00000
     22       4.3961      0.00000
     23       5.3518      0.00000
     24       5.3518      0.00000
     25       5.4456      0.00000
     26       5.4456      0.00000
     27       6.3461      0.00000
     28       6.3461      0.00000
     29       6.5888      0.00000
     30       6.5888      0.00000
     31       9.3532      0.00000
     32       9.3532      0.00000

 k-point     5 :       0.0000    0.1667    0.0000
  band No.  band energies     occupation 
      1     -10.6890      2.00000
      2     -10.1188      2.00000
      3      -9.5801      2.00000
      4      -8.7693      2.00000
      5      -4.7313      2.00000
      6      -3.9229      2.00000
      7      -2.9751      2.00000
      8      -2.4354      2.00000
      9      -1.4881      2.00000
     10       0.2233      2.00000
     11       0.4337      2.00000
     12       0.7520      2.00000
     13       1.0798      2.00000
     14       1.2464      2.00000
     15       1.5130      2.00000
     16       2.0520      2.00000
     17       2.2199      2.00000
     18       2.4168      2.00000
     19       3.3582      2.00000
     20       3.6345      2.00000
     21       4.5714      0.00000
     22       5.1950      0.00000
     23       5.7525      0.00000
     24       6.6233      0.00000
     25       6.6801      0.00000
     26       6.6854      0.00000
     27       7.3994      0.00000
     28       7.9521      0.00000
     29       7.9775      0.00000
     30       8.1326      0.00000
     31       8.7871      0.00000
     32       9.0548      0.00000

 k-point     6 :       0.1667    0.1667    0.0000
  band No.  band energies     occupation 
      1     -10.5018      2.00000
      2      -9.9462      2.00000
      3      -9.4612      2.00000
      4      -8.7079      2.00000
      5      -4.8733      2.00000
      6      -3.9996      2.00000
      7      -3.1636      2.00000
      8      -2.7142      2.00000
      9      -1.4058      2.00000
     10      -0.3897      2.00000
     11      -0.3072      2.00000
     12       0.5837      2.00000
     13       1.0171      2.00000
     14       1.3732      2.00000
     15       1.5705      2.00000
     16       1.9293      2.00000
     17       2.2601      2.00000
     18       2.4127      2.00000
     19       3.2156      2.00000
     20       3.5029      2.00000
     21       4.6764      0.00000
     22       5.6320      0.00000
     23       5.8416      0.00000
     24       5.8868      0.00000
     25       6.8123      0.00000
     26       7.1623      0.00000
     27       7.3165      0.00000
     28       7.8732      0.00000
     29       8.0835      0.00000
     30       8.2921      0.00000
     31       8.3153      0.00000
     32       8.6970      0.00000

 k-point     7 :       0.1667   -0.1667    0.0000
  band No.  band energies     occupation 
      1     -10.5024      2.00000
      2      -9.9456      2.00000
      3      -9.4609      2.00000
      4      -8.7091      2.00000
      5      -4.8563      2.00000
      6      -4.0178      2.00000
      7      -3.0976      2.00000
      8      -2.7836      2.00000
      9      -1.4254      2.00000
     10      -0.4034      2.00000
     11      -0.3171      2.00000
     12       0.6277      2.00000
     13       1.0327      2.00000
     14       1.3518      2.00000
     15       1.6236      2.00000
     16       1.9114      2.00000
     17       2.2440      2.00000
     18       2.4307      2.00000
     19       3.2799      2.00000
     20       3.3920      2.00000
     21       4.7169      0.00000
     22       5.6208      0.00000
     23       5.8130      0.00000
     24       5.9179      0.00000
     25       6.7536      0.00000
     26       7.1191      0.00000
     27       7.4229      0.00000
     28       7.9770      0.00000
     29       8.0869      0.00000
     30       8.2108      0.00000
     31       8.3603      0.00000
     32       8.5709      0.00000

 k-point     8 :       0.3333    0.1667    0.0000
  band No.  band energies     occupation 
      1     -10.0005      2.00000
      2      -9.4860      2.00000
      3      -9.2650      2.00000
      4      -8.6677      2.00000
      5      -5.2636      2.00000
      6      -4.1899      2.00000
      7      -4.1188      2.00000
      8      -3.2408      2.00000
      9      -0.9874      2.00000
     10      -0.7851      2.00000
     11      -0.4848      2.00000
     12       0.3598      2.00000
     13       1.0699      2.00000
     14       1.1484      2.00000
     15       1.2556      2.00000
     16       1.8142      2.00000
     17       1.8431      2.00000
     18       2.2768      2.00000
     19       2.9989      2.00000
     20       3.1003      2.00000
     21       4.8448      0.00000
     22       5.2817      0.00000
     23       5.3260      0.00000
     24       6.0248      0.00000
     25       6.0750      0.00000
     26       6.4958      0.00000
     27       7.2535      0.00000
     28       7.6176      0.00000
     29       7.7685      0.00000
     30       7.9869      0.00000
     31       8.9323      0.00000
     32       9.1352      0.00000

 k-point     9 :       0.3333   -0.1667    0.0000
  band No.  band energies     occupation 
      1     -10.0022      2.00000
      2      -9.4841      2.00000
      3      -9.2631      2.00000
      4      -8.6715      2.00000
      5      -5.2469      2.00000
      6      -4.1737      2.00000
      7      -4.1374      2.00000
      8      -3.2601      2.00000
      9      -1.0015      2.00000
     10      -0.7596      2.00000
     11      -0.5321      2.00000
     12       0.3814      2.00000
     13       1.1154      2.00000
     14       1.1637      2.00000
     15       1.2493      2.00000
     16       1.7536      2.00000
     17       1.8684      2.00000
     18       2.3247      2.00000
     19       2.9676      2.00000
     20       3.0720      2.00000
     21       4.8668      0.00000
     22       5.2874      0.00000
     23       5.3485      0.00000
     24       6.0139      0.00000
     25       6.0702      0.00000
     26       6.4617      0.00000
     27       7.2225      0.00000
     28       7.6901      0.00000
     29       7.7299      0.00000
     30       8.0195      0.00000
     31       8.8983      0.00000
     32       9.1471      0.00000

 k-point    10 :       0.5000    0.1667    0.0000
  band No.  band energies     occupation 
      1      -9.4370      2.00000
      2      -9.4339      2.00000
      3      -8.9485      2.00000
      4      -8.9441      2.00000
      5      -5.1559      2.00000
      6      -5.1508      2.00000
      7      -3.9016      2.00000
      8      -3.8952      2.00000
      9      -0.4892      2.00000
     10      -0.4745      2.00000
     11      -0.0631      2.00000
     12      -0.0472      2.00000
     13       0.7072      2.00000
     14       0.7201      2.00000
     15       1.3917      2.00000
     16       1.4568      2.00000
     17       1.7727      2.00000
     18       1.7831      2.00000
     19       3.1128      2.00000
     20       3.1808      2.00000
     21       4.8205      0.00000
     22       4.8293      0.00000
     23       5.7673      0.00000
     24       5.8167      0.00000
     25       6.4158      0.00000
     26       6.4226      0.00000
     27       6.4768      0.00000
     28       6.5342      0.00000
     29       7.6745      0.00000
     30       7.7177      0.00000
     31       8.8104      0.00000
     32       8.8467      0.00000

 k-point    11 :       0.0000    0.3333    0.0000
  band No.  band energies     occupation 
      1     -10.3834      2.00000
      2      -9.8108      2.00000
      3      -9.6927      2.00000
      4      -9.0039      2.00000
      5      -5.0513      2.00000
      6      -4.1028      2.00000
      7      -4.0127      2.00000
      8      -3.0892      2.00000
      9      -1.0848      2.00000
     10       0.4981      2.00000
     11       0.7986      2.00000
     12       1.2895      2.00000
     13       1.4433      2.00000
     14       1.4980      2.00000
     15       1.9806      2.00000
     16       2.2022      2.00000
     17       2.2802      2.00000
     18       2.9895      2.00000
     19       3.4131      2.00000
     20       3.6511      2.00000
     21       4.4483      0.00000
     22       5.3305      0.00000
     23       5.4639      0.00000
     24       5.6068      0.00000
     25       5.9674      0.00000
     26       6.6909      0.00000
     27       6.8080      0.00000
     28       7.0740      0.00000
     29       7.5100      0.00000
     30       7.9505      0.00000
     31       8.6865      0.00000
     32       9.2941      0.00000

 k-point    12 :       0.1667    0.3333    0.0000
  band No.  band energies     occupation 
      1     -10.2118      2.00000
      2      -9.6578      2.00000
      3      -9.5685      2.00000
      4      -8.9180      2.00000
      5      -4.9685      2.00000
      6      -4.0352      2.00000
      7      -4.0199      2.00000
      8      -3.2529      2.00000
      9      -0.9021      2.00000
     10      -0.4629      2.00000
     11      -0.1766      2.00000
     12       0.2722      2.00000
     13       0.7808      2.00000
     14       1.0367      2.00000
     15       1.9695      2.00000
     16       2.2162      2.00000
     17       2.4931      2.00000
     18       2.7171      2.00000
     19       3.2672      2.00000
     20       3.3515      2.00000
     21       5.1761      0.00000
     22       5.4974      0.00000
     23       5.8450      0.00000
     24       6.1798      0.00000
     25       6.4327      0.00000
     26       6.9311      0.00000
     27       7.1239      0.00000
     28       7.4748      0.00000
     29       8.0983      0.00000
     30       8.3686      0.00000
     31       8.5084      0.00000
     32       8.6509      0.00000

 k-point    13 :       0.1667   -0.3333    0.0000
  band No.  band energies     occupation 
      1     -10.2131      2.00000
      2      -9.6565      2.00000
      3      -9.5676      2.00000
      4      -8.9200      2.00000
      5      -4.9571      2.00000
      6      -4.0447      2.00000
      7      -3.9930      2.00000
      8      -3.2868      2.00000
      9      -0.9126      2.00000
     10      -0.4995      2.00000
     11      -0.1827      2.00000
     12       0.3088      2.00000
     13       0.8656      2.00000
     14       1.0134      2.00000
     15       1.9856      2.00000
     16       2.1492      2.00000
     17       2.4095      2.00000
     18       2.7675      2.00000
     19       3.3260      2.00000
     20       3.3654      2.00000
     21       5.1425      0.00000
     22       5.5197      0.00000
     23       5.7962      0.00000
     24       6.2334      0.00000
     25       6.4182      0.00000
     26       6.9334      0.00000
     27       7.1339      0.00000
     28       7.5401      0.00000
     29       8.0866      0.00000
     30       8.3286      0.00000
     31       8.4851      0.00000
     32       8.5949      0.00000

 k-point    14 :       0.3333    0.3333    0.0000
  band No.  band energies     occupation 
      1      -9.7714      2.00000
      2      -9.3259      2.00000
      3      -9.2693      2.00000
      4      -8.7796      2.00000
      5      -4.9265      2.00000
      6      -4.1634      2.00000
      7      -4.1084      2.00000
      8      -3.7271      2.00000
      9      -1.1887      2.00000
     10      -0.9836      2.00000
     11      -0.5571      2.00000
     12      -0.4401      2.00000
     13       0.1017      2.00000
     14       0.5515      2.00000
     15       0.7242      2.00000
     16       1.2821      2.00000
     17       1.6191      2.00000
     18       2.2331      2.00000
     19       3.0848      2.00000
     20       3.3508      2.00000
     21       5.0760      0.00000
     22       6.3169      0.00000
     23       6.5505      0.00000
     24       6.7171      0.00000
     25       7.1797      0.00000
     26       7.2371      0.00000
     27       7.5584      0.00000
     28       7.8415      0.00000
     29       8.3913      0.00000
     30       8.7496      0.00000
     31       9.3447      0.00000
     32       9.8772      0.00000

 k-point    15 :       0.3333   -0.3333    0.0000
  band No.  band energies     occupation 
      1      -9.7749      2.00000
      2      -9.3221      2.00000
      3      -9.2652      2.00000
      4      -8.7859      2.00000
      5      -4.8984      2.00000
      6      -4.1382      2.00000
      7      -4.1199      2.00000
      8      -3.7776      2.00000
      9      -1.1878      2.00000
     10      -1.0077      2.00000
     11      -0.5475      2.00000
     12      -0.4323      2.00000
     13       0.0836      2.00000
     14       0.5650      2.00000
     15       0.8163      2.00000
     16       1.2545      2.00000
     17       1.5454      2.00000
     18       2.2792      2.00000
     19       3.1955      2.00000
     20       3.1976      2.00000
     21       5.1091      0.00000
     22       6.3148      0.00000
     23       6.6412      0.00000
     24       6.7156      0.00000
     25       7.1250      0.00000
     26       7.1952      0.00000
     27       7.5286      0.00000
     28       7.8694      0.00000
     29       8.4431      0.00000
     30       8.7469      0.00000
     31       9.2540      0.00000
     32       9.9719      0.00000

 k-point    16 :       0.5000    0.3333    0.0000
  band No.  band energies     occupation 
      1      -9.3500      2.00000
      2      -9.3438      2.00000
      3      -8.8835      2.00000
      4      -8.8752      2.00000
      5      -4.8256      2.00000
      6      -4.8099      2.00000
      7      -3.9937      2.00000
      8      -3.9756      2.00000
      9      -0.9497      2.00000
     10      -0.9432      2.00000
     11      -0.5926      2.00000
     12      -0.5670      2.00000
     13      -0.1857      2.00000
     14      -0.1717      2.00000
     15       0.6915      2.00000
     16       0.7077      2.00000
     17       1.3506      2.00000
     18       1.4351      2.00000
     19       3.0485      2.00000
     20       3.2248      2.00000
     21       5.7041      0.00000
     22       5.7851      0.00000
     23       7.0301      0.00000
     24       7.1325      0.00000
     25       7.3322      0.00000
     26       7.3492      0.00000
     27       7.8324      0.00000
     28       7.9493      0.00000
     29       8.4418      0.00000
     30       8.4894      0.00000
     31       9.6153      0.00000
     32       9.6614      0.00000

 k-point    17 :       0.0000    0.5000    0.0000
  band No.  band energies     occupation 
      1      -9.9924      2.00000
      2      -9.9924      2.00000
      3      -9.3920      2.00000
      4      -9.3920      2.00000
      5      -4.8649      2.00000
      6      -4.8649      2.00000
      7      -3.7290      2.00000
      8      -3.7290      2.00000
      9      -0.3511      2.00000
     10      -0.3511      2.00000
     11       1.2357      2.00000
     12       1.2357      2.00000
     13       1.9058      2.00000
     14       1.9058      2.00000
     15       2.4472      2.00000
     16       2.4472      2.00000
     17       2.5801      2.00000
     18       2.5801      2.00000
     19       3.2444      2.00000
     20       3.2444      2.00000
     21       4.9353      0.00000
     22       4.9353      0.00000
     23       5.6381      0.00000
     24       5.6381      0.00000
     25       5.9845      0.00000
     26       5.9845      0.00000
     27       6.6282      0.00000
     28       6.6282      0.00000
     29       7.2424      0.00000
     30       7.2424      0.00000
     31       9.1758      0.00000
     32       9.1758      0.00000

 k-point    18 :       0.1667    0.5000    0.0000
  band No.  band energies     occupation 
      1      -9.8470      2.00000
      2      -9.8455      2.00000
      3      -9.2716      2.00000
      4      -9.2696      2.00000
      5      -4.7139      2.00000
      6      -4.7099      2.00000
      7      -3.7771      2.00000
      8      -3.7687      2.00000
      9      -0.2993      2.00000
     10      -0.2606      2.00000
     11      -0.0496      2.00000
     12      -0.0485      2.00000
     13       0.4646      2.00000
     14       0.5183      2.00000
     15       2.0368      2.00000
     16       2.0815      2.00000
     17       2.7059      2.00000
     18       2.7593      2.00000
     19       3.4679      2.00000
     20       3.4918      2.00000
     21       5.2905      0.00000
     22       5.2949      0.00000
     23       6.0703      0.00000
     24       6.1254      0.00000
     25       7.0743      0.00000
     26       7.0967      0.00000
     27       7.1441      0.00000
     28       7.1783      0.00000
     29       7.8926      0.00000
     30       7.9048      0.00000
     31       8.5363      0.00000
     32       8.5398      0.00000

 k-point    19 :       0.3333    0.5000    0.0000
  band No.  band energies     occupation 
      1      -9.5080      2.00000
      2      -9.5034      2.00000
      3      -9.0021      2.00000
      4      -8.9959      2.00000
      5      -4.4084      2.00000
      6      -4.3984      2.00000
      7      -4.1119      2.00000
      8      -4.1058      2.00000
      9      -1.0751      2.00000
     10      -1.0201      2.00000
     11      -0.7515      2.00000
     12      -0.7286      2.00000
     13       0.1237      2.00000
     14       0.2112      2.00000
     15       0.5010      2.00000
     16       0.5448      2.00000
     17       1.7906      2.00000
     18       1.8646      2.00000
     19       3.1446      2.00000
     20       3.3075      2.00000
     21       6.0232      0.00000
     22       6.0775      0.00000
     23       6.9093      0.00000
     24       7.0347      0.00000
     25       7.6150      0.00000
     26       7.6610      0.00000
     27       8.1712      0.00000
     28       8.2186      0.00000
     29       8.9584      0.00000
     30       9.0652      0.00000
     31       9.5312      0.00000
     32       9.6194      0.00000

 k-point    20 :       0.5000    0.5000    0.0000
  band No.  band energies     occupation 
      1      -9.3039      2.00000
      2      -9.2963      2.00000
      3      -8.8503      2.00000
      4      -8.8401      2.00000
      5      -4.5266      2.00000
      6      -4.4734      2.00000
      7      -4.2156      2.00000
      8      -4.1599      2.00000
      9      -1.1461      2.00000
     10      -1.0841      2.00000
     11      -1.0166      2.00000
     12      -0.9581      2.00000
     13      -0.0700      2.00000
     14      -0.0465      2.00000
     15       0.0255      2.00000
     16       0.0497      2.00000
     17       1.2783      2.00000
     18       1.4154      2.00000
[...]
     32       8.4811      0.00000

 k-point    32 :       0.1667    0.3333    0.5000
  band No.  band energies     occupation 
      1     -10.0447      2.00000
      2     -10.0447      2.00000
      3      -9.1356      2.00000
      4      -9.1356      2.00000
      5      -4.5946      2.00000
      6      -4.5946      2.00000
      7      -3.6309      2.00000
      8      -3.6309      2.00000
      9      -0.6228      2.00000
     10      -0.6228      2.00000
     11       0.4100      2.00000
     12       0.4100      2.00000
     13       0.7950      2.00000
     14       0.7950      2.00000
     15       2.0131      2.00000
     16       2.0131      2.00000
     17       2.4159      2.00000
     18       2.4159      2.00000
     19       3.0131      2.00000
     20       3.0131      2.00000
     21       5.5536      0.00000
     22       5.5536      0.00000
     23       6.1716      0.00000
     24       6.1716      0.00000
     25       6.8292      0.00000
     26       6.8292      0.00000
     27       7.4967      0.00000
     28       7.4967      0.00000
     29       8.0079      0.00000
     30       8.0079      0.00000
     31       8.5375      0.00000
     32       8.5375      0.00000

 k-point    33 :       0.1667   -0.3333    0.5000
  band No.  band energies     occupation 
      1     -10.0452      2.00000
      2     -10.0452      2.00000
      3      -9.1353      2.00000
      4      -9.1353      2.00000
      5      -4.5862      2.00000
      6      -4.5862      2.00000
      7      -3.6398      2.00000
      8      -3.6398      2.00000
      9      -0.6086      2.00000
     10      -0.6086      2.00000
     11       0.3765      2.00000
     12       0.3765      2.00000
     13       0.7712      2.00000
     14       0.7712      2.00000
     15       2.0656      2.00000
     16       2.0656      2.00000
     17       2.3759      2.00000
     18       2.3759      2.00000
     19       3.0858      2.00000
     20       3.0858      2.00000
     21       5.5007      0.00000
     22       5.5007      0.00000
     23       6.1676      0.00000
     24       6.1676      0.00000
     25       6.8660      0.00000
     26       6.8660      0.00000
     27       7.4855      0.00000
     28       7.4855      0.00000
     29       8.0120      0.00000
     30       8.0120      0.00000
     31       8.4736      0.00000
     32       8.4736      0.00000

 k-point    34 :       0.3333    0.3333    0.5000
  band No.  band energies     occupation 
      1      -9.6356      2.00000
      2      -9.6356      2.00000
      3      -8.9395      2.00000
      4      -8.9395      2.00000
      5      -4.6261      2.00000
      6      -4.6261      2.00000
      7      -3.8433      2.00000
      8      -3.8433      2.00000
      9      -1.2209      2.00000
     10      -1.2209      2.00000
     11      -0.4979      2.00000
     12      -0.4979      2.00000
     13       0.5328      2.00000
     14       0.5328      2.00000
     15       1.2440      2.00000
     16       1.2440      2.00000
     17       1.7772      2.00000
     18       1.7772      2.00000
     19       2.8476      2.00000
     20       2.8476      2.00000
     21       5.8711      0.00000
     22       5.8711      0.00000
     23       6.3471      0.00000
     24       6.3471      0.00000
     25       7.4977      0.00000
     26       7.4977      0.00000
     27       7.9931      0.00000
     28       7.9931      0.00000
     29       8.5042      0.00000
     30       8.5042      0.00000
     31       9.5469      0.00000
     32       9.5469      0.00000

 k-point    35 :       0.3333   -0.3333    0.5000
  band No.  band energies     occupation 
      1      -9.6364      2.00000
      2      -9.6364      2.00000
      3      -8.9389      2.00000
      4      -8.9389      2.00000
      5      -4.6127      2.00000
      6      -4.6127      2.00000
      7      -3.8593      2.00000
      8      -3.8593      2.00000
      9      -1.2011      2.00000
     10      -1.2011      2.00000
     11      -0.5253      2.00000
     12      -0.5253      2.00000
     13       0.5230      2.00000
     14       0.5230      2.00000
     15       1.2260      2.00000
     16       1.2260      2.00000
     17       1.8072      2.00000
     18       1.8072      2.00000
     19       2.8815      2.00000
     20       2.8815      2.00000
     21       5.8339      0.00000
     22       5.8339      0.00000
     23       6.3542      0.00000
     24       6.3542      0.00000
     25       7.5158      0.00000
     26       7.5158      0.00000
     27       7.9296      0.00000
     28       7.9296      0.00000
     29       8.5214      0.00000
     30       8.5214      0.00000
     31       9.5827      0.00000
     32       9.5827      0.00000

 k-point    36 :       0.5000    0.3333    0.5000
  band No.  band energies     occupation 
      1      -9.3432      2.00000
      2      -9.3432      2.00000
      3      -8.8852      2.00000
      4      -8.8852      2.00000
      5      -4.7875      2.00000
      6      -4.7875      2.00000
      7      -4.0067      2.00000
      8      -4.0067      2.00000
      9      -1.0943      2.00000
     10      -1.0943      2.00000
     11      -0.5353      2.00000
     12      -0.5353      2.00000
     13      -0.1483      2.00000
     14      -0.1483      2.00000
     15       0.6517      2.00000
     16       0.6517      2.00000
     17       1.8818      2.00000
     18       1.8818      2.00000
     19       2.7287      2.00000
     20       2.7287      2.00000
     21       5.5561      0.00000
     22       5.5561      0.00000
     23       7.0074      0.00000
     24       7.0074      0.00000
     25       7.4817      0.00000
     26       7.4817      0.00000
     27       8.0324      0.00000
     28       8.0324      0.00000
     29       8.8230      0.00000
     30       8.8230      0.00000
     31       9.3784      0.00000
     32       9.3784      0.00000

 k-point    37 :       0.0000    0.5000    0.5000
  band No.  band energies     occupation 
      1      -9.9869      2.00000
      2      -9.9869      2.00000
      3      -9.4022      2.00000
      4      -9.4022      2.00000
      5      -4.5984      2.00000
      6      -4.5984      2.00000
      7      -4.1408      2.00000
      8      -4.1408      2.00000
      9       0.4332      2.00000
     10       0.4332      2.00000
     11       1.2339      2.00000
     12       1.2339      2.00000
     13       1.3531      2.00000
     14       1.3531      2.00000
     15       1.8976      2.00000
     16       1.8976      2.00000
     17       2.9563      2.00000
     18       2.9563      2.00000
     19       3.0301      2.00000
     20       3.0301      2.00000
     21       5.1173      0.00000
     22       5.1173      0.00000
     23       5.3346      0.00000
     24       5.3346      0.00000
     25       6.0945      0.00000
     26       6.0946      0.00000
     27       7.0712      0.00000
     28       7.0712      0.00000
     29       8.1502      0.00000
     30       8.1502      0.00000
     31       8.1918      0.00000
     32       8.1918      0.00000

 k-point    38 :       0.1667    0.5000    0.5000
  band No.  band energies     occupation 
      1      -9.8412      2.00000
      2      -9.8412      2.00000
      3      -9.2797      2.00000
      4      -9.2797      2.00000
      5      -4.4473      2.00000
      6      -4.4473      2.00000
      7      -4.1341      2.00000
      8      -4.1341      2.00000
      9      -0.4016      2.00000
     10      -0.4016      2.00000
     11       0.2852      2.00000
     12       0.2852      2.00000
     13       0.9848      2.00000
     14       0.9848      2.00000
     15       1.6644      2.00000
     16       1.6644      2.00000
     17       2.4618      2.00000
     18       2.4618      2.00000
     19       3.0767      2.00000
     20       3.0767      2.00000
     21       5.8198      0.00000
     22       5.8198      0.00000
     23       5.8792      0.00000
     24       5.8792      0.00000
     25       7.3401      0.00000
     26       7.3401      0.00000
     27       7.4153      0.00000
     28       7.4153      0.00000
     29       7.9950      0.00000
     30       7.9950      0.00000
     31       8.4081      0.00000
     32       8.4081      0.00000

 k-point    39 :       0.3333    0.5000    0.5000
  band No.  band energies     occupation 
      1      -9.5023      2.00000
      2      -9.5023      2.00000
      3      -9.0044      2.00000
      4      -9.0044      2.00000
      5      -4.3558      2.00000
      6      -4.3558      2.00000
      7      -4.1267      2.00000
      8      -4.1267      2.00000
      9      -1.1293      2.00000
     10      -1.1293      2.00000
     11      -1.0620      2.00000
     12      -1.0620      2.00000
     13       0.5426      2.00000
     14       0.5426      2.00000
     15       0.8860      2.00000
     16       0.8860      2.00000
     17       1.9146      2.00000
     18       1.9146      2.00000
     19       2.5894      2.00000
     20       2.5894      2.00000
     21       5.9354      0.00000
     22       5.9354      0.00000
     23       7.1821      0.00000
     24       7.1821      0.00000
     25       7.8717      0.00000
     26       7.8717      0.00000
     27       8.2682      0.00000
     28       8.2682      0.00000
     29       9.1773      0.00000
     30       9.1773      0.00000
     31       9.3979      0.00000
     32       9.3979      0.00000

 k-point    40 :       0.5000    0.5000    0.5000
  band No.  band energies     occupation 
      1      -9.2988      2.00000
      2      -9.2988      2.00000
      3      -8.8470      2.00000
      4      -8.8470      2.00000
      5      -4.6247      2.00000
      6      -4.6247      2.00000
      7      -3.9896      2.00000
      8      -3.9896      2.00000
      9      -1.4192      2.00000
     10      -1.4192      2.00000
     11      -0.8525      2.00000
     12      -0.8525      2.00000
     13      -0.2395      2.00000
     14      -0.2395      2.00000
     15       0.0759      2.00000
     16       0.0759      2.00000
     17       2.0648      2.00000
     18       2.0648      2.00000
     19       2.7120      2.00000
     20       2.7120      2.00000
     21       5.3239      0.00000
     22       5.3239      0.00000
     23       7.8646      0.00000
     24       7.8646      0.00000
     25       8.0306      0.00000
     26       8.0306      0.00000
     27       8.4867      0.00000
     28       8.4867      0.00000
     29       9.3898      0.00000
     30       9.3898      0.00000
     31      10.4012      0.00000
     32      10.4013      0.00000


--------------------------------------------------------------------------------------------------------


 soft charge-density along one line, spin component            1
         0         1         2         3         4         5         6         7         8         9
 total charge-density along one line
 
 pseudopotential strength for first ion, spin component:            1
 14.386  17.945   0.039   0.044   0.000   0.070   0.079   0.000
 17.945  22.397   0.049   0.055   0.000   0.088   0.100   0.000
  0.039   0.049   3.204  -0.002  -0.000   5.452  -0.004  -0.000
  0.044   0.055  -0.002   3.200  -0.000  -0.004   5.446  -0.000
  0.000   0.000  -0.000  -0.000   3.205  -0.000  -0.000   5.454
  0.070   0.088   5.452  -0.004  -0.000   9.335  -0.006  -0.000
  0.079   0.100  -0.004   5.446  -0.000  -0.006   9.325  -0.000
  0.000   0.000  -0.000  -0.000   5.454  -0.000  -0.000   9.339
 -0.000  -0.000   0.000   0.000   0.006   0.000   0.000   0.012
 -0.005  -0.006   0.011   0.013   0.000   0.020   0.023   0.000
 -0.005  -0.006  -0.003   0.011  -0.000  -0.006   0.021  -0.000
 -0.000  -0.000   0.000   0.000   0.011   0.000   0.000   0.020
  0.001   0.002  -0.012  -0.000   0.000  -0.021   0.000   0.000
 total augmentation occupancy for first ion, spin component:            1
  2.806  -0.766   0.336   0.364  -0.000  -0.066  -0.065   0.000  -0.000  -0.003  -0.001  -0.001   0.006
 -0.766   0.728  -0.414  -0.472  -0.001   0.068   0.072   0.000   0.000  -0.005   0.000   0.001  -0.003
  0.336  -0.414   1.252   0.052   0.001  -0.211  -0.000  -0.000  -0.000   0.043  -0.101  -0.001   0.005
  0.364  -0.472   0.052   1.367   0.001  -0.001  -0.224   0.000   0.000  -0.020   0.099   0.000   0.001
 -0.000  -0.001   0.001   0.001   1.250  -0.000   0.000  -0.220   0.147  -0.000   0.000   0.044   0.000
 -0.066   0.068  -0.211  -0.001  -0.000   0.040  -0.001   0.000   0.000  -0.007   0.017   0.000  -0.001
 -0.065   0.072  -0.000  -0.224   0.000  -0.001   0.042  -0.000   0.000   0.003  -0.017  -0.000  -0.000
  0.000   0.000  -0.000   0.000  -0.220   0.000  -0.000   0.043  -0.026   0.000  -0.000  -0.007  -0.000
 -0.000   0.000  -0.000   0.000   0.147   0.000   0.000  -0.026   0.031   0.000  -0.000   0.004  -0.000
 -0.003  -0.005   0.043  -0.020  -0.000  -0.007   0.003   0.000   0.000   0.014  -0.007   0.000   0.001
 -0.001   0.000  -0.101   0.099   0.000   0.017  -0.017  -0.000  -0.000  -0.007   0.031  -0.000  -0.002
 -0.001   0.001  -0.001   0.000   0.044   0.000  -0.000  -0.007   0.004   0.000  -0.000   0.011  -0.000
  0.006  -0.003   0.005   0.001   0.000  -0.001  -0.000  -0.000  -0.000   0.001  -0.002  -0.000   0.009


------------------------ aborting loop because EDIFF is reached ----------------------------------------


    CHARGE:  cpu time      0.0088: real time      0.0088
    FORLOC:  cpu time      0.0004: real time      0.0004
    FORNL :  cpu time      0.0270: real time      0.0271
    STRESS:  cpu time      0.2536: real time      0.2543
    FORCOR:  cpu time      0.0067: real time      0.0067
    FORHAR:  cpu time      0.0027: real time      0.0028
    MIXING:  cpu time      0.0017: real time      0.0017
    OFIELD:  cpu time      0.0000: real time      0.0000

  FORCE on cell =-STRESS in cart. coord.  units (eV):
  Direction    XX          YY          ZZ          XY          YZ          ZX
  --------------------------------------------------------------------------------------
  Alpha Z    91.66130    91.66130    91.66130
  Ewald    -456.92200  -531.70994  -457.43324     1.60606     0.00007     0.00006
  Hartree    55.18229    20.16205    52.28847     0.63518     0.00001     0.00001
  E(xc)    -141.73791  -141.82159  -141.78868     0.00764    -0.00000     0.00000
  Local    -167.67869   -64.49253  -172.88761    -2.29002    -0.00008    -0.00006
  n-local   241.49868   241.18535   242.83725     0.02687     0.00000     0.00000
  augment   -11.28189   -11.76892   -11.97370    -0.00378     0.00000     0.00000
  Kinetic   391.97119   399.37643   403.10608     0.06590    -0.00001    -0.00002
  Fock        0.00000     0.00000     0.00000     0.00000     0.00000     0.00000
  -------------------------------------------------------------------------------------
  Total       2.69297     2.59216     5.80987     0.04786     0.00000    -0.00001
  in kB      23.33997    22.46628    50.35419     0.41482     0.00001    -0.00007
  external pressure =       32.05 kB  Pullay stress =        0.00 kB


 VOLUME and BASIS-vectors are now :
 -----------------------------------------------------------------------------
  energy-cutoff  :      360.00
  volume of cell :      184.86
      direct lattice vectors                 reciprocal lattice vectors
     3.858100176  0.000000000  0.000000000     0.259194929  0.000000000  0.000000000
     0.000000000  4.526575088  0.000000000     0.000000000  0.220917577  0.000000000
     0.000000000  0.000000000 10.585176468     0.000000000  0.000000000  0.094471736

  length of vectors
     3.858100176  4.526575088 10.585176468     0.259194929  0.220917577  0.094471736


 FORCES acting on ions
    electron-ion (+dipol)            ewald-force                    non-local-force                 convergence-correction
 -----------------------------------------------------------------------------------------------
   0.167E+00 0.187E+02 0.194E+02   -.186E+00 -.210E+02 -.220E+02   0.235E-01 0.216E+01 0.286E+01   -.627E-05 -.432E-03 -.966E-03
   0.167E+00 0.187E+02 -.194E+02   -.186E+00 -.210E+02 0.220E+02   0.235E-01 0.216E+01 -.286E+01   -.609E-05 -.433E-03 0.965E-03
   -.167E+00 -.187E+02 -.194E+02   0.186E+00 0.210E+02 0.220E+02   -.233E-01 -.216E+01 -.286E+01   0.633E-05 0.433E-03 0.974E-03
   -.167E+00 -.187E+02 0.194E+02   0.186E+00 0.210E+02 -.220E+02   -.233E-01 -.216E+01 0.286E+01   0.592E-05 0.433E-03 -.975E-03
   0.652E-01 -.191E+02 -.118E+02   -.830E-01 0.206E+02 0.131E+02   -.311E-02 -.118E+01 -.158E+01   0.275E-04 0.882E-03 0.191E-02
   0.651E-01 -.191E+02 0.118E+02   -.830E-01 0.206E+02 -.131E+02   -.311E-02 -.118E+01 0.158E+01   0.273E-04 0.883E-03 -.191E-02
   -.651E-01 0.191E+02 0.118E+02   0.829E-01 -.206E+02 -.131E+02   0.299E-02 0.118E+01 0.158E+01   -.262E-04 -.881E-03 -.192E-02
   -.652E-01 0.191E+02 -.118E+02   0.830E-01 -.206E+02 0.131E+02   0.299E-02 0.118E+01 -.158E+01   -.271E-04 -.878E-03 0.192E-02
 -----------------------------------------------------------------------------------------------
   -.250E-04 -.914E-06 0.393E-05   0.347E-14 0.000E+00 0.373E-13   0.291E-04 0.249E-03 -.177E-05   0.144E-05 0.640E-05 -.143E-05
 
 
 POSITION                                       TOTAL-FORCE (eV/Angst)
 -----------------------------------------------------------------------------------
      2.97745      1.58919      1.23098         0.004507     -0.185301      0.201303
      1.04840      3.85248      4.06160         0.004508     -0.185305     -0.201293
      2.89357      3.98702      9.35419        -0.004391      0.185302     -0.201257
      0.96452      1.72374      6.52357        -0.004386      0.185300      0.201252
      2.97745      1.02674      3.75268        -0.020900      0.308435     -0.277578
      1.04840      3.29003      1.53991        -0.020898      0.308430      0.277570
      2.89357      0.02290      6.83250         0.020780     -0.308429      0.277532
      0.96452      2.28618      9.04526         0.020781     -0.308432     -0.277529
 -----------------------------------------------------------------------------------
    total drift:                                0.000006      0.000254      0.000001


--------------------------------------------------------------------------------------------------------



  FREE ENERGIE OF THE ION-ELECTRON SYSTEM (eV)
  ---------------------------------------------------
  free  energy   TOTEN  =       -33.29919145 eV

  energy  without entropy=      -33.29919145  energy(sigma->0) =      -33.29919145
 


--------------------------------------------------------------------------------------------------------


    POTLOK:  cpu time      0.2230: real time      0.2237


--------------------------------------------------------------------------------------------------------


     LOOP+:  cpu time      6.9892: real time      7.0260
    4ORBIT:  cpu time      0.0000: real time      0.0000

 total amount of memory used by VASP MPI-rank0    36587. kBytes
=======================================================================

   base      :      30000. kBytes
   nonl-proj :       5001. kBytes
   fftplans  :        306. kBytes
   grid      :        466. kBytes
   one-center:         16. kBytes
   wavefun   :        798. kBytes
 
  
  
 General timing and accounting informations for this job:
 ========================================================
  
                  Total CPU time used (sec):        8.560
                            User time (sec):        8.306
                          System time (sec):        0.255
                         Elapsed time (sec):        8.870
  
                   Maximum memory used (kb):      174584.
                   Average memory used (kb):          N/A
  
                          Minor page faults:        16634
                          Major page faults:           38
                 Voluntary context switches:         1828
