 running  160 mpi-ranks, with    1 threads/rank, on   10 nodes
 distrk:  each k-point on   80 cores,    2 groups
 distr:  one band on    5 cores,   16 groups
 vasp.6.4.2 20Jul23 (build Oct 12 2023 10:31:02) complex                         
 POSCAR found type information on POSCAR GeSe
 POSCAR found :  2 types and       8 ions
 Reading from existing POTCAR
 scaLAPACK will be used
 Reading from existing POTCAR
 LDA part: xc-table for Pade appr. of Perdew
 POSCAR, INCAR and KPOINTS ok, starting setup
 FFT: planning ... GRIDC
 FFT: planning ... GRID_SOFT
 FFT: planning ... GRID
 WAVECAR not read
 entering main loop
       N       E                     dE             d eps       ncg     rms          rms(c)
DAV:   1     0.131050586507E+03    0.13105E+03   -0.13010E+04  2560   0.779E+02
DAV:   2    -0.253733456171E+02   -0.15642E+03   -0.15211E+03  3712   0.142E+02
DAV:   3    -0.335695340847E+02   -0.81962E+01   -0.81806E+01  3280   0.373E+01
DAV:   4    -0.336229403031E+02   -0.53406E-01   -0.53399E-01  3424   0.342E+00
DAV:   5    -0.336232844680E+02   -0.34416E-03   -0.34416E-03  3296   0.265E-01    0.663E+00
DAV:   6    -0.333136818254E+02    0.30960E+00   -0.54165E-01  3296   0.254E+00    0.419E+00
DAV:   7    -0.332892078923E+02    0.24474E-01   -0.21507E-01  2832   0.168E+00    0.105E+00
DAV:   8    -0.332874271267E+02    0.17808E-02   -0.19137E-02  3088   0.543E-01    0.184E-01
DAV:   9    -0.332877666624E+02   -0.33954E-03   -0.28217E-03  3456   0.232E-01    0.619E-02
DAV:  10    -0.332878286779E+02   -0.62015E-04   -0.17490E-04  3376   0.536E-02    0.232E-02
DAV:  11    -0.332878563025E+02   -0.27625E-04   -0.35379E-05  3088   0.274E-02    0.103E-02
DAV:  12    -0.332878573663E+02   -0.10639E-05   -0.38974E-06  3456   0.905E-03    0.322E-03
DAV:  13    -0.332878574845E+02   -0.11813E-06   -0.66711E-07  2000   0.382E-03
   1 F= -.33287857E+02 E0= -.33287857E+02  d E =-.766950E-07
