 running  128 mpi-ranks, with    1 threads/rank, on    2 nodes
 distrk:  each k-point on   64 cores,    2 groups
 distr:  one band on    8 cores,    8 groups
 vasp.6.4.2 20Jul23 (build Oct 12 2023 10:31:02) complex                         
 POSCAR found type information on POSCAR GeSe
 POSCAR found :  2 types and      72 ions
 Reading from existing POTCAR
 -----------------------------------------------------------------------------
|                                                                             |
|           W    W    AA    RRRRR   N    N  II  N    N   GGGG   !!!           |
|           W    W   A  A   R    R  NN   N  II  NN   N  G    G  !!!           |
|           W    W  A    A  R    R  N N  N  II  N N  N  G       !!!           |
|           W WW W  AAAAAA  RRRRR   N  N N  II  N  N N  G  GGG   !            |
|           WW  WW  A    A  R   R   N   NN  II  N   NN  G    G                |
|           W    W  A    A  R    R  N    N  II  N    N   GGGG   !!!           |
|                                                                             |
|     You use a magnetic or noncollinear calculation, but did not specify     |
|     the initial magnetic moment with the MAGMOM tag. Note that a            |
|     default of 1 will be used for all atoms. This ferromagnetic setup       |
|     may break the symmetry of the crystal, in particular it may rule        |
|     out finding an antiferromagnetic solution. Thence, we recommend         |
|     setting the initial magnetic moment manually or verifying carefully     |
|     that this magnetic setup is desired.                                    |
|                                                                             |
 -----------------------------------------------------------------------------

 scaLAPACK will be used
 Reading from existing POTCAR
 -----------------------------------------------------------------------------
|                                                                             |
|               ----> ADVICE to this user running VASP <----                  |
|                                                                             |
|     You have a (more or less) 'large supercell' and for larger cells it     |
|     might be more efficient to use real-space projection operators.         |
|     Therefore, try LREAL= Auto in the INCAR file.                           |
|     Mind: For very accurate calculation, you might also keep the            |
|     reciprocal projection scheme (i.e. LREAL=.FALSE.).                      |
|                                                                             |
 -----------------------------------------------------------------------------

 LDA part: xc-table for Pade appr. of Perdew
 -----------------------------------------------------------------------------
|                                                                             |
|           W    W    AA    RRRRR   N    N  II  N    N   GGGG   !!!           |
|           W    W   A  A   R    R  NN   N  II  NN   N  G    G  !!!           |
|           W    W  A    A  R    R  N N  N  II  N N  N  G       !!!           |
|           W WW W  AAAAAA  RRRRR   N  N N  II  N  N N  G  GGG   !            |
|           WW  WW  A    A  R   R   N   NN  II  N   NN  G    G                |
|           W    W  A    A  R    R  N    N  II  N    N   GGGG   !!!           |
|                                                                             |
|     The number of bands has been changed from the values supplied in        |
|     the INCAR file. This is a result of running the parallel version.       |
|     The orbitals not found in the WAVECAR file will be initialized with     |
|     random numbers, which is usually adequate. For correlated               |
|     calculations, however, you should redo the groundstate calculation.     |
|     I found NBANDS = 220. Now, NBANDS = 224.                                |
|                                                                             |
 -----------------------------------------------------------------------------

 POSCAR, INCAR and KPOINTS ok, starting setup
 FFT: planning ... GRIDC
 FFT: planning ... GRID_SOFT
 FFT: planning ... GRID
 WAVECAR not read
 WARNING: random wavefunctions but no delay for mixing, default for NELMDL
 entering main loop
       N       E                     dE             d eps       ncg     rms          rms(c)
DAV:   1     0.181717917912E+04    0.18172E+04   -0.14191E+05  7168   0.135E+03
DAV:   2    -0.648820208579E+02   -0.18821E+04   -0.18062E+04  8488   0.205E+02
DAV:   3    -0.281771764828E+03   -0.21689E+03   -0.21114E+03  8552   0.690E+01
DAV:   4    -0.289603562117E+03   -0.78318E+01   -0.77472E+01  8816   0.130E+01
DAV:   5    -0.289874693288E+03   -0.27113E+00   -0.27040E+00  8992   0.208E+00    0.292E+01
DAV:   6    -0.289398757548E+03    0.47594E+00   -0.26599E+01  7864   0.762E+00    0.173E+01
DAV:   7    -0.296800151254E+03   -0.74014E+01   -0.86035E+00  8016   0.447E+00    0.908E+00
DAV:   8    -0.300015160941E+03   -0.32150E+01   -0.17579E+00  8160   0.227E+00    0.323E+00
DAV:   9    -0.300382590968E+03   -0.36743E+00   -0.41971E-01  9088   0.101E+00    0.146E+00
DAV:  10    -0.300478455405E+03   -0.95864E-01   -0.88659E-02  8088   0.453E-01    0.728E-01
DAV:  11    -0.300509398848E+03   -0.30943E-01   -0.36153E-02  8960   0.282E-01    0.285E-01
DAV:  12    -0.300512645040E+03   -0.32462E-02   -0.44354E-03  8464   0.118E-01    0.110E-01
DAV:  13    -0.300512752170E+03   -0.10713E-03   -0.60661E-04  9904   0.384E-02    0.503E-02
DAV:  14    -0.300512771834E+03   -0.19664E-04   -0.10719E-04  8272   0.197E-02    0.176E-02
DAV:  15    -0.300512775868E+03   -0.40339E-05   -0.19384E-05  8608   0.966E-03    0.745E-03
DAV:  16    -0.300512776392E+03   -0.52387E-06   -0.15043E-06  4904   0.280E-03
   1 F= -.30051278E+03 E0= -.30051278E+03  d E =-.224366E-11  mag=     0.0005
