 running  128 mpi-ranks, with    1 threads/rank, on    2 nodes
 distrk:  each k-point on   64 cores,    2 groups
 distr:  one band on    8 cores,    8 groups
 vasp.6.4.2 20Jul23 (build Oct 12 2023 10:31:02) complex                         
 POSCAR found type information on POSCAR GeSe
 POSCAR found :  2 types and      72 ions
 Reading from existing POTCAR
 -----------------------------------------------------------------------------
|                                                                             |
|           W    W    AA    RRRRR   N    N  II  N    N   GGGG   !!!           |
|           W    W   A  A   R    R  NN   N  II  NN   N  G    G  !!!           |
|           W    W  A    A  R    R  N N  N  II  N N  N  G       !!!           |
|           W WW W  AAAAAA  RRRRR   N  N N  II  N  N N  G  GGG   !            |
|           WW  WW  A    A  R   R   N   NN  II  N   NN  G    G                |
|           W    W  A    A  R    R  N    N  II  N    N   GGGG   !!!           |
|                                                                             |
|     You use a magnetic or noncollinear calculation, but did not specify     |
|     the initial magnetic moment with the MAGMOM tag. Note that a            |
|     default of 1 will be used for all atoms. This ferromagnetic setup       |
|     may break the symmetry of the crystal, in particular it may rule        |
|     out finding an antiferromagnetic solution. Thence, we recommend         |
|     setting the initial magnetic moment manually or verifying carefully     |
|     that this magnetic setup is desired.                                    |
|                                                                             |
 -----------------------------------------------------------------------------

 scaLAPACK will be used
 Reading from existing POTCAR
 -----------------------------------------------------------------------------
|                                                                             |
|               ----> ADVICE to this user running VASP <----                  |
|                                                                             |
|     You have a (more or less) 'large supercell' and for larger cells it     |
|     might be more efficient to use real-space projection operators.         |
|     Therefore, try LREAL= Auto in the INCAR file.                           |
|     Mind: For very accurate calculation, you might also keep the            |
|     reciprocal projection scheme (i.e. LREAL=.FALSE.).                      |
|                                                                             |
 -----------------------------------------------------------------------------

 LDA part: xc-table for Pade appr. of Perdew
 -----------------------------------------------------------------------------
|                                                                             |
|           W    W    AA    RRRRR   N    N  II  N    N   GGGG   !!!           |
|           W    W   A  A   R    R  NN   N  II  NN   N  G    G  !!!           |
|           W    W  A    A  R    R  N N  N  II  N N  N  G       !!!           |
|           W WW W  AAAAAA  RRRRR   N  N N  II  N  N N  G  GGG   !            |
|           WW  WW  A    A  R   R   N   NN  II  N   NN  G    G                |
|           W    W  A    A  R    R  N    N  II  N    N   GGGG   !!!           |
|                                                                             |
|     The number of bands has been changed from the values supplied in        |
|     the INCAR file. This is a result of running the parallel version.       |
|     The orbitals not found in the WAVECAR file will be initialized with     |
|     random numbers, which is usually adequate. For correlated               |
|     calculations, however, you should redo the groundstate calculation.     |
|     I found NBANDS = 220. Now, NBANDS = 224.                                |
|                                                                             |
 -----------------------------------------------------------------------------

 POSCAR, INCAR and KPOINTS ok, starting setup
 FFT: planning ... GRIDC
 FFT: planning ... GRID_SOFT
 FFT: planning ... GRID
 WAVECAR not read
 WARNING: random wavefunctions but no delay for mixing, default for NELMDL
 entering main loop
       N       E                     dE             d eps       ncg     rms          rms(c)
DAV:   1     0.180870963299E+04    0.18087E+04   -0.14147E+05  7168   0.135E+03
DAV:   2    -0.645110107902E+02   -0.18732E+04   -0.17981E+04  8512   0.204E+02
DAV:   3    -0.281918169813E+03   -0.21741E+03   -0.21155E+03  8528   0.690E+01
DAV:   4    -0.290026903280E+03   -0.81087E+01   -0.80209E+01  8872   0.131E+01
DAV:   5    -0.290297075311E+03   -0.27017E+00   -0.26940E+00  9016   0.208E+00    0.288E+01
DAV:   6    -0.289684775058E+03    0.61230E+00   -0.27539E+01  7992   0.766E+00    0.170E+01
DAV:   7    -0.296968431033E+03   -0.72837E+01   -0.84574E+00  8088   0.441E+00    0.906E+00
DAV:   8    -0.300279280459E+03   -0.33108E+01   -0.17348E+00  8080   0.224E+00    0.327E+00
DAV:   9    -0.300685032523E+03   -0.40575E+00   -0.45035E-01  9088   0.103E+00    0.145E+00
DAV:  10    -0.300783596100E+03   -0.98564E-01   -0.92903E-02  8184   0.458E-01    0.729E-01
DAV:  11    -0.300814378393E+03   -0.30782E-01   -0.37896E-02  9000   0.281E-01    0.278E-01
DAV:  12    -0.300817282745E+03   -0.29044E-02   -0.42633E-03  8488   0.118E-01    0.105E-01
DAV:  13    -0.300817384019E+03   -0.10127E-03   -0.65926E-04  9752   0.391E-02    0.432E-02
DAV:  14    -0.300817400275E+03   -0.16256E-04   -0.89384E-05  8240   0.184E-02    0.162E-02
DAV:  15    -0.300817402663E+03   -0.23876E-05   -0.15859E-05  8656   0.802E-03    0.717E-03
DAV:  16    -0.300817403084E+03   -0.42133E-06   -0.14968E-06  4856   0.261E-03
   1 F= -.30081740E+03 E0= -.30081740E+03  d E =-.216337E-15  mag=     0.0004
