 vasp.6.4.2 20Jul23 (build Oct 12 2023 10:31:02) complex                         
 executed on              LinuxNV date 2025.05.19  20:54:20
 running  160 mpi-ranks, with    1 threads/rank, on   10 nodes
 distrk:  each k-point on   80 cores,    2 groups
 distr:  one band on NCORE=   5 cores,   16 groups


--------------------------------------------------------------------------------------------------------


 INCAR:
   ENCUT = 360.000000
   SIGMA = 0.050000
   EDIFF = 1.00e-06
   ALGO = Normal
   GGA = PE
   PREC = Normal
   SYSTEM = ./
   ICHARG = 2
   ISMEAR = 0
   ISPIN = 1
   ISTART = 0
   ISYM = 0
   KPAR = 2
   LMAXMIX = 4
   NELM = 100
   NPAR = 16
   LASPH = .TRUE.
   LCHARG = .FALSE.
   LWAVE = .FALSE.

 POTCAR:    PAW_PBE Ge 05Jan2001                  
 POTCAR:    PAW_PBE Se 06Sep2000                  
 POTCAR:    PAW_PBE Ge 05Jan2001                  
   VRHFIN =Ge: s2p2                                                                                 
   LEXCH  = PE                                                                                      
   EATOM  =   104.9960 eV,    7.7170 Ry                                                             
                                                                                                    
   TITEL  = PAW_PBE Ge 05Jan2001                                                                    
   LULTRA =        F    use ultrasoft PP ?                                                          
   IUNSCR =        1    unscreen: 0-lin 1-nonlin 2-no                                               
   RPACOR =    2.170    partial core radius                                                         
   POMASS =   72.610; ZVAL   =    4.000    mass and valenz                                          
   RCORE  =    2.300    outmost cutoff radius                                                       
   RWIGS  =    2.300; RWIGS  =    1.217    wigner-seitz radius (au A)                               
   ENMAX  =  173.807; ENMIN  =  130.355 eV                                                          
   ICORE  =        3    local potential                                                             
   LCOR   =        T    correct aug charges                                                         
   LPAW   =        T    paw PP                                                                      
   EAUG   =  385.843                                                                                
   DEXC   =    0.000                                                                                
   RMAX   =    2.342    core radius for proj-oper                                                   
   RAUG   =    1.300    factor for augmentation sphere                                              
   RDEP   =    2.318    radius for radial grids                                                     
   RDEPT  =    2.103    core radius for aug-charge                                                  
                                                                                                    
   Atomic configuration                                                                             
   10 entries                                                                                       
     n  l   j            E        occ.                                                              
     1  0  0.50    -10959.8463   2.0000                                                             
     2  0  0.50     -1371.6056   2.0000                                                             
     2  1  1.50     -1198.4791   6.0000                                                             
     3  0  0.50      -168.4733   2.0000                                                             
     3  1  1.50      -115.6019   6.0000                                                             
     3  2  2.50       -29.3106  10.0000                                                             
     4  0  0.50       -11.7309   2.0000                                                             
     4  1  0.50        -3.8952   2.0000                                                             
     4  2  1.50        -4.0817   0.0000                                                             
     4  3  2.50        -4.0817   0.0000                                                             
   Description                                                                                      
     l       E           TYP  RCUT    TYP  RCUT                                                     
     0    -11.7309493     23  2.300                                                                 
     0     -7.4578696     23  2.300                                                                 
     1     -3.8952261     23  2.300                                                                 
     1      6.1178114     23  2.300                                                                 
     2     -4.0817478     23  2.300                                                                 
     3     -1.3605826      7  2.300                                                                 
  local pseudopotential read in
  partial core-charges read in
  partial kinetic energy density read in
  atomic valenz-charges read in
  non local Contribution for L=            0  read in
    real space projection operators read in
  non local Contribution for L=            0  read in
    real space projection operators read in
  non local Contribution for L=            1  read in
    real space projection operators read in
  non local Contribution for L=            1  read in
    real space projection operators read in
  non local Contribution for L=            2  read in
    real space projection operators read in
    PAW grid and wavefunctions read in
 
   number of l-projection  operators is LMAX  =            5
   number of lm-projection operators is LMMAX =           13
 
 POTCAR:    PAW_PBE Se 06Sep2000                  
   VRHFIN =Se: s2p4                                                                                 
   LEXCH  = PE                                                                                      
   EATOM  =   257.1286 eV,   18.8984 Ry                                                             
                                                                                                    
   TITEL  = PAW_PBE Se 06Sep2000                                                                    
   LULTRA =        F    use ultrasoft PP ?                                                          
   IUNSCR =        1    unscreen: 0-lin 1-nonlin 2-no                                               
   RPACOR =    1.900    partial core radius                                                         
   POMASS =   78.960; ZVAL   =    6.000    mass and valenz                                          
   RCORE  =    2.100    outmost cutoff radius                                                       
   RWIGS  =    2.200; RWIGS  =    1.164    wigner-seitz radius (au A)                               
   ENMAX  =  211.555; ENMIN  =  158.666 eV                                                          
   ICORE  =        3    local potential                                                             
   LCOR   =        T    correct aug charges                                                         
   LPAW   =        T    paw PP                                                                      
   EAUG   =  446.842                                                                                
   DEXC   =    0.000                                                                                
   RMAX   =    2.147    core radius for proj-oper                                                   
   RAUG   =    1.300    factor for augmentation sphere                                              
   RDEP   =    2.177    radius for radial grids                                                     
   RDEPT  =    1.928    core radius for aug-charge                                                  
                                                                                                    
   Atomic configuration                                                                             
   10 entries                                                                                       
     n  l   j            E        occ.                                                              
     1  0  0.50    -12503.4787   2.0000                                                             
     2  0  0.50     -1606.9547   2.0000                                                             
     2  1  1.50     -1413.3140   6.0000                                                             
     3  0  0.50      -213.4885   2.0000                                                             
     3  1  1.50      -152.9538   6.0000                                                             
     3  2  2.50       -53.1221  10.0000                                                             
     4  0  0.50       -17.2865   2.0000                                                             
     4  1  0.50        -6.5110   4.0000                                                             
     4  2  2.50        -6.8029   0.0000                                                             
     4  3  2.50        -6.8029   0.0000                                                             
   Description                                                                                      
     l       E           TYP  RCUT    TYP  RCUT                                                     
     0    -17.2865377     23  2.100                                                                 
     0    -15.3094411     23  2.100                                                                 
     1     -6.5110275     23  2.100                                                                 
     1     -0.0695192     23  2.100                                                                 
     2     -6.8029130     23  2.100                                                                 
     3     -1.3605826      7  2.100                                                                 
  local pseudopotential read in
  partial core-charges read in
  partial kinetic energy density read in
  atomic valenz-charges read in
  non local Contribution for L=            0  read in
    real space projection operators read in
  non local Contribution for L=            0  read in
    real space projection operators read in
  non local Contribution for L=            1  read in
    real space projection operators read in
  non local Contribution for L=            1  read in
    real space projection operators read in
  non local Contribution for L=            2  read in
    real space projection operators read in
    PAW grid and wavefunctions read in
 
   number of l-projection  operators is LMAX  =            5
   number of lm-projection operators is LMMAX =           13
 
  PAW_PBE Ge 05Jan2001                  :
 energy of atom  1       EATOM= -104.9960
 kinetic energy error for atom=    0.0005 (will be added to EATOM!!)
  PAW_PBE Se 06Sep2000                  :
 energy of atom  2       EATOM= -257.1286
 kinetic energy error for atom=    0.0030 (will be added to EATOM!!)
 
 
 POSCAR: Ge Se
  positions in cartesian coordinates
  No initial velocities read in
 exchange correlation table for  LEXCH =        8
   RHO(1)=    0.500       N(1)  =     2000
   RHO(2)=  100.500       N(2)  =     4000
 


--------------------------------------------------------------------------------------------------------


 ion  position               nearest neighbor table
   1  0.207  0.661  0.132-   5 2.59   6 2.60   6 2.60
   2  0.707  0.161  0.368-   6 2.59   5 2.60   5 2.60
   3  0.750  0.904  0.868-   7 2.59   8 2.60   8 2.60
   4  0.250  0.404  0.632-   8 2.59   7 2.60   7 2.60
   5  0.207  0.545  0.351-   1 2.59   2 2.60   2 2.60
   6  0.707  0.045  0.149-   2 2.59   1 2.60   1 2.60
   7  0.750  0.021  0.649-   3 2.59   4 2.60   4 2.60
   8  0.250  0.521  0.851-   4 2.59   3 2.60   3 2.60
 

IMPORTANT INFORMATION: All symmetrisations will be switched off!
NOSYMM: (Re-)initialisation of all symmetry stuff for point group C_1.


----------------------------------------------------------------------------------------

                                     Primitive cell                                     

  volume of cell :     202.3233

  direct lattice vectors                    reciprocal lattice vectors
     3.858100176  0.000000000  0.000000000     0.259194929  0.000000000  0.000000000
     0.000000000  4.526575088  0.000000000     0.000000000  0.220917577  0.000000000
     0.000000000  0.000000000 11.585176468     0.000000000  0.000000000  0.086317200

  length of vectors
     3.858100176  4.526575088 11.585176468     0.259194929  0.220917577  0.086317200

  position of ions in fractional coordinates (direct lattice)
     0.206521742  0.661460749  0.131971745
     0.706521706  0.161460736  0.368028228
     0.749999855  0.903756548  0.868028249
     0.249999781  0.403756501  0.631971759
     0.206521726  0.544683096  0.351109927
     0.706521743  0.044683117  0.148890049
     0.749999761  0.020534152  0.648890076
     0.249999838  0.520534176  0.851109946

  ion indices of the primitive-cell ions
   primitive index   ion index
                 1           1
                 2           2
                 3           3
                 4           4
                 5           5
                 6           6
                 7           7
                 8           8

----------------------------------------------------------------------------------------

 
 
 KPOINTS: KPOINTS created by Atomic Simulation Env

Automatic generation of k-mesh.
 Grid dimensions read from file:
 generate k-points for:    6    6    2

 Generating k-lattice:

  Cartesian coordinates                     Fractional coordinates (reciprocal lattice)
     0.043199155  0.000000000  0.000000000     0.166666667  0.000000000  0.000000000
     0.000000000  0.036819596  0.000000000     0.000000000  0.166666667  0.000000000
     0.000000000  0.000000000  0.043158600     0.000000000  0.000000000  0.500000000

  Length of vectors
     0.043199155  0.036819596  0.043158600

  Shift w.r.t. Gamma in fractional coordinates (k-lattice)
     0.000000000  0.000000000  0.000000000

 
 Subroutine IBZKPT returns following result:
 ===========================================
 
 Found     40 irreducible k-points:
 
 Following reciprocal coordinates:
            Coordinates               Weight
  0.000000  0.000000  0.000000      1.000000
  0.166667  0.000000  0.000000      2.000000
  0.333333  0.000000  0.000000      2.000000
  0.500000  0.000000  0.000000      1.000000
  0.000000  0.166667  0.000000      2.000000
  0.166667  0.166667  0.000000      2.000000
  0.166667 -0.166667  0.000000      2.000000
  0.333333  0.166667  0.000000      2.000000
  0.333333 -0.166667  0.000000      2.000000
  0.500000  0.166667  0.000000      2.000000
  0.000000  0.333333  0.000000      2.000000
  0.166667  0.333333  0.000000      2.000000
  0.166667 -0.333333  0.000000      2.000000
  0.333333  0.333333  0.000000      2.000000
  0.333333 -0.333333  0.000000      2.000000
  0.500000  0.333333  0.000000      2.000000
  0.000000  0.500000  0.000000      1.000000
  0.166667  0.500000  0.000000      2.000000
  0.333333  0.500000  0.000000      2.000000
  0.500000  0.500000  0.000000      1.000000
  0.000000  0.000000  0.500000      1.000000
  0.166667  0.000000  0.500000      2.000000
  0.333333  0.000000  0.500000      2.000000
  0.500000  0.000000  0.500000      1.000000
  0.000000  0.166667  0.500000      2.000000
  0.166667  0.166667  0.500000      2.000000
  0.166667 -0.166667  0.500000      2.000000
  0.333333  0.166667  0.500000      2.000000
  0.333333 -0.166667  0.500000      2.000000
  0.500000  0.166667  0.500000      2.000000
  0.000000  0.333333  0.500000      2.000000
  0.166667  0.333333  0.500000      2.000000
  0.166667 -0.333333  0.500000      2.000000
  0.333333  0.333333  0.500000      2.000000
  0.333333 -0.333333  0.500000      2.000000
  0.500000  0.333333  0.500000      2.000000
  0.000000  0.500000  0.500000      1.000000
  0.166667  0.500000  0.500000      2.000000
  0.333333  0.500000  0.500000      2.000000
  0.500000  0.500000  0.500000      1.000000
 
 Following cartesian coordinates:
            Coordinates               Weight
  0.000000  0.000000  0.000000      1.000000
  0.043199  0.000000  0.000000      2.000000
  0.086398  0.000000  0.000000      2.000000
  0.129597  0.000000  0.000000      1.000000
  0.000000  0.036820  0.000000      2.000000
  0.043199  0.036820  0.000000      2.000000
  0.043199 -0.036820  0.000000      2.000000
  0.086398  0.036820  0.000000      2.000000
  0.086398 -0.036820  0.000000      2.000000
  0.129597  0.036820  0.000000      2.000000
  0.000000  0.073639  0.000000      2.000000
  0.043199  0.073639  0.000000      2.000000
  0.043199 -0.073639  0.000000      2.000000
  0.086398  0.073639  0.000000      2.000000
  0.086398 -0.073639  0.000000      2.000000
  0.129597  0.073639  0.000000      2.000000
  0.000000  0.110459  0.000000      1.000000
  0.043199  0.110459  0.000000      2.000000
  0.086398  0.110459  0.000000      2.000000
  0.129597  0.110459  0.000000      1.000000
  0.000000  0.000000  0.043159      1.000000
  0.043199  0.000000  0.043159      2.000000
  0.086398  0.000000  0.043159      2.000000
  0.129597  0.000000  0.043159      1.000000
  0.000000  0.036820  0.043159      2.000000
  0.043199  0.036820  0.043159      2.000000
  0.043199 -0.036820  0.043159      2.000000
  0.086398  0.036820  0.043159      2.000000
  0.086398 -0.036820  0.043159      2.000000
  0.129597  0.036820  0.043159      2.000000
  0.000000  0.073639  0.043159      2.000000
  0.043199  0.073639  0.043159      2.000000
  0.043199 -0.073639  0.043159      2.000000
  0.086398  0.073639  0.043159      2.000000
  0.086398 -0.073639  0.043159      2.000000
  0.129597  0.073639  0.043159      2.000000
  0.000000  0.110459  0.043159      1.000000
  0.043199  0.110459  0.043159      2.000000
  0.086398  0.110459  0.043159      2.000000
  0.129597  0.110459  0.043159      1.000000
 


--------------------------------------------------------------------------------------------------------




 Dimension of arrays:
   k-points           NKPTS =     40   k-points in BZ     NKDIM =     40   number of bands    NBANDS=     32
   number of dos      NEDOS =    301   number of ions     NIONS =      8
   non local maximal  LDIM  =      5   non local SUM 2l+1 LMDIM =     13
   total plane-waves  NPLWV =  23328
   max r-space proj   IRMAX =      1   max aug-charges    IRDMAX=   6465
   dimension x,y,z NGX =    18 NGY =   24 NGZ =   54
   dimension x,y,z NGXF=    36 NGYF=   48 NGZF=  108
   support grid    NGXF=    36 NGYF=   48 NGZF=  108
   ions per type =               4   4
   NGX,Y,Z   is equivalent  to a cutoff of   7.76,  8.81,  7.75 a.u.
   NGXF,Y,Z  is equivalent  to a cutoff of  15.51, 17.63, 15.50 a.u.

 SYSTEM =  ./                                      
 POSCAR =  Ge Se                                   

 Startparameter for this run:
   NWRITE =      2    write-flag & timer
   PREC   = normal    normal or accurate (medium, high low for compatibility)
   ISTART =      0    job   : 0-new  1-cont  2-samecut
   ICHARG =      2    charge: 1-file 2-atom 10-const
   ISPIN  =      1    spin polarized calculation?
   LNONCOLLINEAR =      F non collinear calculations
   LSORBIT =      F    spin-orbit coupling
   INIWAV =      1    electr: 0-lowe 1-rand  2-diag
   LASPH  =      T    aspherical Exc in radial PAW
 Electronic Relaxation 1
   ENCUT  =  360.0 eV  26.46 Ry    5.14 a.u.   5.97  7.00 17.92*2*pi/ulx,y,z
   ENINI  =  360.0     initial cutoff
   ENAUG  =  446.8 eV  augmentation charge cutoff
   NELM   =    100;   NELMIN=  2; NELMDL= -5     # of ELM steps 
   EDIFF  = 0.1E-05   stopping-criterion for ELM
   LREAL  =      F    real-space projection
   NLSPLINE    = F    spline interpolate recip. space projectors
   LCOMPAT=      F    compatible to vasp.4.4
   GGA_COMPAT  = T    GGA compatible to vasp.4.4-vasp.4.6
   LMAXPAW     = -100 max onsite density
   LMAXMIX     =    4 max onsite mixed and CHGCAR
   VOSKOWN=      0    Vosko Wilk Nusair interpolation
   ROPT   =    0.00000   0.00000
 Ionic relaxation
   EDIFFG = 0.1E-04   stopping-criterion for IOM
   NSW    =      0    number of steps for IOM
   NBLOCK =      1;   KBLOCK =      1    inner block; outer block 
   IBRION =     -1    ionic relax: 0-MD 1-quasi-New 2-CG
   NFREE  =      0    steps in history (QN), initial steepest desc. (CG)
   ISIF   =      2    stress and relaxation
   IWAVPR =     10    prediction:  0-non 1-charg 2-wave 3-comb
   ISYM   =      0    0-nonsym 1-usesym 2-fastsym
   LCORR  =      T    Harris-Foulkes like correction to forces

   POTIM  = 0.5000    time-step for ionic-motion
   TEIN   =    0.0    initial temperature
   TEBEG  =    0.0;   TEEND  =   0.0 temperature during run
   SMASS  =  -3.00    Nose mass-parameter (am)
   estimated Nose-frequenzy (Omega)   =  0.10E-29 period in steps = 0.13E+47 mass=  -0.340E-27a.u.
   SCALEE = 1.0000    scale energy and forces
   NPACO  =    256;   APACO  = 10.0  distance and # of slots for P.C.
   PSTRESS=    0.0 pullay stress

  Mass of Ions in am
   POMASS =  72.61 78.96
  Ionic Valenz
   ZVAL   =   4.00  6.00
  Atomic Wigner-Seitz radii
   RWIGS  =  -1.00 -1.00
  virtual crystal weights 
   VCA    =   1.00  1.00
   NELECT =      40.0000    total number of electrons
   NUPDOWN=      -1.0000    fix difference up-down

 DOS related values:
   EMIN   =  10.00;   EMAX   =-10.00  energy-range for DOS
   EFERMI =   0.00;   METHOD = LEGACY      
   ISMEAR =     0;   SIGMA  =   0.05  broadening in eV -4-tet -1-fermi 0-gaus

 Electronic relaxation 2 (details)
   IALGO  =     38    algorithm
   LDIAG  =      T    sub-space diagonalisation (order eigenvalues)
   LSUBROT=      F    optimize rotation matrix (better conditioning)
   TURBO    =      0    0=normal 1=particle mesh
   IRESTART =      0    0=no restart 2=restart with 2 vectors
   NREBOOT  =      0    no. of reboots
   NMIN     =      0    reboot dimension
   EREF     =   0.00    reference energy to select bands
   IMIX   =      4    mixing-type and parameters
     AMIX     =   0.40;   BMIX     =  1.00
     AMIX_MAG =   1.60;   BMIX_MAG =  1.00
     AMIN     =   0.10
     WC   =   100.;   INIMIX=   1;  MIXPRE=   1;  MAXMIX= -45

 Intra band minimization:
   WEIMIN = 0.0000     energy-eigenvalue tresh-hold
   EBREAK =  0.78E-08  absolut break condition
   DEPER  =   0.30     relativ break condition  

   TIME   =   0.40     timestep for ELM

  volume/ion in A,a.u.               =      25.29       170.67
  Fermi-wavevector in a.u.,A,eV,Ry     =   0.953702  1.802236 12.375155  0.909548
  Thomas-Fermi vector in A             =   2.082382
 
 Write flags
   LWAVE        =      F    write WAVECAR
   LDOWNSAMPLE  =      F    k-point downsampling of WAVECAR
   LCHARG       =      F    write CHGCAR
   LVTOT        =      F    write LOCPOT, total local potential
   LVHAR        =      F    write LOCPOT, Hartree potential only
   LELF         =      F    write electronic localiz. function (ELF)
   LORBIT       =      0    0 simple, 1 ext, 2 COOP (PROOUT), +10 PAW based schemes


 Dipole corrections
   LMONO  =      F    monopole corrections only (constant potential shift)
   LDIPOL =      F    correct potential (dipole corrections)
   IDIPOL =      0    1-x, 2-y, 3-z, 4-all directions 
   EPSILON=  1.0000000 bulk dielectric constant

 Exchange correlation treatment:
   GGA     =    PE    GGA type
   LEXCH   =     8    internal setting for exchange type
   LIBXC   =     F    Libxc                    
   VOSKOWN =     0    Vosko Wilk Nusair interpolation
   LHFCALC =     F    Hartree Fock is set to
   LHFONE  =     F    Hartree Fock one center treatment
   AEXX    =    0.0000 exact exchange contribution

 Linear response parameters
   LEPSILON=     F    determine dielectric tensor
   LRPA    =     F    only Hartree local field effects (RPA)
   LNABLA  =     F    use nabla operator in PAW spheres
   LVEL    =     F    velocity operator in full k-point grid
   CSHIFT  =0.1000    complex shift for real part using Kramers Kronig
   OMEGAMAX=  -1.0    maximum frequency
   DEG_THRESHOLD= 0.2000000E-02 threshold for treating states as degnerate
   RTIME   =   -0.100 relaxation time in fs
  (WPLASMAI=    0.000 imaginary part of plasma frequency in eV, 0.658/RTIME)
   DFIELD  = 0.0000000 0.0000000 0.0000000 field for delta impulse in time
 
  Optional k-point grid parameters
   LKPOINTS_OPT  =     F    use optional k-point grid
   KPOINTS_OPT_MODE=     1    mode for optional k-point grid
 
 Orbital magnetization related:
   ORBITALMAG=     F  switch on orbital magnetization
   LCHIMAG   =     F  perturbation theory with respect to B field
   DQ        =  0.001000  dq finite difference perturbation B field
   LLRAUG    =     F  two centre corrections for induced B field
   LBONE     =     F  B-component reconstruction in AE one-centre
   LVGVCALC  =     T  calculate vGv susceptibility
   LVGVAPPL  =     F  apply vGv susceptibility instead of pGv for G=0

 Random number generation:
   RANDOM_GENERATOR = DEFAULT
   PCG_SEED         = not used


--------------------------------------------------------------------------------------------------------


 Static calculation
 charge density and potential will be updated during run
 non-spin polarized calculation
 Variant of blocked Davidson
 Davidson routine will perform the subspace rotation
 perform sub-space diagonalisation
    after iterative eigenvector-optimisation
 modified Broyden-mixing scheme, WC =      100.0
 initial mixing is a Kerker type mixing with AMIX =  0.4000 and BMIX =      1.0000
 Hartree-type preconditioning will be used
 using additional bands            12
 reciprocal scheme for non local part
 use partial core corrections
 calculate Harris-corrections to forces 
   (improved forces if not selfconsistent)
 use gradient corrections 
 use of overlap-Matrix (Vanderbilt PP)
 Gauss-broadening in eV      SIGMA  =   0.05


--------------------------------------------------------------------------------------------------------


  energy-cutoff  :      360.00
  volume of cell :      202.32
      direct lattice vectors                 reciprocal lattice vectors
     3.858100176  0.000000000  0.000000000     0.259194929  0.000000000  0.000000000
     0.000000000  4.526575088  0.000000000     0.000000000  0.220917577  0.000000000
     0.000000000  0.000000000 11.585176468     0.000000000  0.000000000  0.086317200

  length of vectors
     3.858100176  4.526575088 11.585176468     0.259194929  0.220917577  0.086317200


 
 k-points in units of 2pi/SCALE and weight: KPOINTS created by Atomic Simulation Env
   0.00000000  0.00000000  0.00000000       0.014
   0.04319915  0.00000000  0.00000000       0.028
   0.08639831  0.00000000  0.00000000       0.028
   0.12959746  0.00000000  0.00000000       0.014
   0.00000000  0.03681960  0.00000000       0.028
   0.04319915  0.03681960  0.00000000       0.028
   0.04319915 -0.03681960  0.00000000       0.028
   0.08639831  0.03681960  0.00000000       0.028
   0.08639831 -0.03681960  0.00000000       0.028
   0.12959746  0.03681960  0.00000000       0.028
   0.00000000  0.07363919  0.00000000       0.028
   0.04319915  0.07363919  0.00000000       0.028
   0.04319915 -0.07363919  0.00000000       0.028
   0.08639831  0.07363919  0.00000000       0.028
   0.08639831 -0.07363919  0.00000000       0.028
   0.12959746  0.07363919  0.00000000       0.028
   0.00000000  0.11045879  0.00000000       0.014
   0.04319915  0.11045879  0.00000000       0.028
   0.08639831  0.11045879  0.00000000       0.028
   0.12959746  0.11045879  0.00000000       0.014
   0.00000000  0.00000000  0.04315860       0.014
   0.04319915  0.00000000  0.04315860       0.028
   0.08639831  0.00000000  0.04315860       0.028
   0.12959746  0.00000000  0.04315860       0.014
   0.00000000  0.03681960  0.04315860       0.028
   0.04319915  0.03681960  0.04315860       0.028
   0.04319915 -0.03681960  0.04315860       0.028
   0.08639831  0.03681960  0.04315860       0.028
   0.08639831 -0.03681960  0.04315860       0.028
   0.12959746  0.03681960  0.04315860       0.028
   0.00000000  0.07363919  0.04315860       0.028
   0.04319915  0.07363919  0.04315860       0.028
   0.04319915 -0.07363919  0.04315860       0.028
   0.08639831  0.07363919  0.04315860       0.028
   0.08639831 -0.07363919  0.04315860       0.028
   0.12959746  0.07363919  0.04315860       0.028
   0.00000000  0.11045879  0.04315860       0.014
   0.04319915  0.11045879  0.04315860       0.028
   0.08639831  0.11045879  0.04315860       0.028
   0.12959746  0.11045879  0.04315860       0.014
 
 k-points in reciprocal lattice and weights: KPOINTS created by Atomic Simulation Env
   0.00000000  0.00000000  0.00000000       0.014
   0.16666667  0.00000000  0.00000000       0.028
   0.33333333  0.00000000  0.00000000       0.028
   0.50000000  0.00000000  0.00000000       0.014
   0.00000000  0.16666667  0.00000000       0.028
   0.16666667  0.16666667  0.00000000       0.028
   0.16666667 -0.16666667  0.00000000       0.028
   0.33333333  0.16666667  0.00000000       0.028
   0.33333333 -0.16666667  0.00000000       0.028
   0.50000000  0.16666667  0.00000000       0.028
   0.00000000  0.33333333  0.00000000       0.028
   0.16666667  0.33333333  0.00000000       0.028
   0.16666667 -0.33333333  0.00000000       0.028
   0.33333333  0.33333333  0.00000000       0.028
   0.33333333 -0.33333333  0.00000000       0.028
   0.50000000  0.33333333  0.00000000       0.028
   0.00000000  0.50000000  0.00000000       0.014
   0.16666667  0.50000000  0.00000000       0.028
   0.33333333  0.50000000  0.00000000       0.028
   0.50000000  0.50000000  0.00000000       0.014
   0.00000000  0.00000000  0.50000000       0.014
   0.16666667  0.00000000  0.50000000       0.028
   0.33333333  0.00000000  0.50000000       0.028
   0.50000000  0.00000000  0.50000000       0.014
   0.00000000  0.16666667  0.50000000       0.028
   0.16666667  0.16666667  0.50000000       0.028
   0.16666667 -0.16666667  0.50000000       0.028
   0.33333333  0.16666667  0.50000000       0.028
   0.33333333 -0.16666667  0.50000000       0.028
   0.50000000  0.16666667  0.50000000       0.028
   0.00000000  0.33333333  0.50000000       0.028
   0.16666667  0.33333333  0.50000000       0.028
   0.16666667 -0.33333333  0.50000000       0.028
   0.33333333  0.33333333  0.50000000       0.028
   0.33333333 -0.33333333  0.50000000       0.028
   0.50000000  0.33333333  0.50000000       0.028
   0.00000000  0.50000000  0.50000000       0.014
   0.16666667  0.50000000  0.50000000       0.028
   0.33333333  0.50000000  0.50000000       0.028
   0.50000000  0.50000000  0.50000000       0.014
 
 position of ions in fractional coordinates (direct lattice) 
   0.20652174  0.66146075  0.13197174
   0.70652171  0.16146074  0.36802823
   0.74999985  0.90375655  0.86802825
   0.24999978  0.40375650  0.63197176
   0.20652173  0.54468310  0.35110993
   0.70652174  0.04468312  0.14889005
   0.74999976  0.02053415  0.64889008
   0.24999984  0.52053418  0.85110995
 
 position of ions in cartesian coordinates  (Angst):
   0.79678157  2.99415175  1.52891595
   2.72583152  0.73086415  4.26367197
   2.89357457  4.09092188 10.05626045
   0.96452420  1.82763412  7.32150435
   0.79678151  2.46554893  4.06767047
   2.72583166  0.20226148  1.72491749
   2.89357421  0.09294938  7.51750603
   0.96452442  2.35623703  9.86025892
 


--------------------------------------------------------------------------------------------------------


 k-point   1 :   0.0000 0.0000 0.0000  plane waves:    3119
 k-point   2 :   0.1667 0.0000 0.0000  plane waves:    3116
 k-point   3 :   0.3333 0.0000 0.0000  plane waves:    3142
 k-point   4 :   0.5000 0.0000 0.0000  plane waves:    3148
 k-point   5 :   0.0000 0.1667 0.0000  plane waves:    3108
 k-point   6 :   0.1667 0.1667 0.0000  plane waves:    3123
 k-point   7 :   0.1667-0.1667 0.0000  plane waves:    3123
 k-point   8 :   0.3333 0.1667 0.0000  plane waves:    3135
 k-point   9 :   0.3333-0.1667 0.0000  plane waves:    3135
 k-point  10 :   0.5000 0.1667 0.0000  plane waves:    3138
 k-point  11 :   0.0000 0.3333 0.0000  plane waves:    3116
 k-point  12 :   0.1667 0.3333 0.0000  plane waves:    3133
 k-point  13 :   0.1667-0.3333 0.0000  plane waves:    3133
 k-point  14 :   0.3333 0.3333 0.0000  plane waves:    3155
 k-point  15 :   0.3333-0.3333 0.0000  plane waves:    3155
 k-point  16 :   0.5000 0.3333 0.0000  plane waves:    3152
 k-point  17 :   0.0000 0.5000 0.0000  plane waves:    3134
 k-point  18 :   0.1667 0.5000 0.0000  plane waves:    3140
 k-point  19 :   0.3333 0.5000 0.0000  plane waves:    3144
 k-point  20 :   0.5000 0.5000 0.0000  plane waves:    3144
 k-point  21 :   0.0000 0.0000 0.5000  plane waves:    3092
 k-point  22 :   0.1667 0.0000 0.5000  plane waves:    3124
 k-point  23 :   0.3333 0.0000 0.5000  plane waves:    3140
 k-point  24 :   0.5000 0.0000 0.5000  plane waves:    3132
 k-point  25 :   0.0000 0.1667 0.5000  plane waves:    3112
 k-point  26 :   0.1667 0.1667 0.5000  plane waves:    3140
 k-point  27 :   0.1667-0.1667 0.5000  plane waves:    3140
 k-point  28 :   0.3333 0.1667 0.5000  plane waves:    3134
 k-point  29 :   0.3333-0.1667 0.5000  plane waves:    3134
 k-point  30 :   0.5000 0.1667 0.5000  plane waves:    3144
 k-point  31 :   0.0000 0.3333 0.5000  plane waves:    3130
 k-point  32 :   0.1667 0.3333 0.5000  plane waves:    3148
 k-point  33 :   0.1667-0.3333 0.5000  plane waves:    3148
 k-point  34 :   0.3333 0.3333 0.5000  plane waves:    3142
 k-point  35 :   0.3333-0.3333 0.5000  plane waves:    3142
 k-point  36 :   0.5000 0.3333 0.5000  plane waves:    3152
 k-point  37 :   0.0000 0.5000 0.5000  plane waves:    3132
 k-point  38 :   0.1667 0.5000 0.5000  plane waves:    3148
 k-point  39 :   0.3333 0.5000 0.5000  plane waves:    3140
 k-point  40 :   0.5000 0.5000 0.5000  plane waves:    3160

 maximum and minimum number of plane-waves per node :       659      606

 maximum number of plane-waves:      3160
 maximum index in each direction: 
   IXMAX=    5   IYMAX=    7   IZMAX=   17
   IXMIN=   -6   IYMIN=   -7   IZMIN=  -18


 parallel 3D FFT for wavefunctions:
    minimum data exchange during FFTs selected (reduces bandwidth)
 parallel 3D FFT for charge:
    minimum data exchange during FFTs selected (reduces bandwidth)


 total amount of memory used by VASP MPI-rank0    37119. kBytes
=======================================================================

   base      :      30000. kBytes
   nonl-proj :       5406. kBytes
   fftplans  :        334. kBytes
   grid      :        503. kBytes
   one-center:         16. kBytes
   wavefun   :        860. kBytes
 
     INWAV:  cpu time      0.0000: real time      0.0001
 Broyden mixing: mesh for mixing (old mesh)
   NGX = 11   NGY = 15   NGZ = 35
  (NGX  = 36   NGY  = 48   NGZ  =108)
  gives a total of   5775 points

 initial charge density was supplied:
 charge density of overlapping atoms calculated
 number of electron      40.0000000 magnetization 
 keeping initial charge density in first step


--------------------------------------------------------------------------------------------------------


 Maximum index for augmentation-charges           223 (set IRDMAX)


--------------------------------------------------------------------------------------------------------


 First call to EWALD:  gamma=   0.302
 Maximum number of real-space cells 4x 3x 2
 Maximum number of reciprocal cells 2x 2x 5

    FEWALD:  cpu time      0.0016: real time      0.0016


--------------------------------------- Ionic step        1  -------------------------------------------




--------------------------------------- Iteration      1(   1)  ---------------------------------------


    POTLOK:  cpu time      0.0083: real time      0.0083
    SETDIJ:  cpu time      0.2191: real time      0.2197
     EDDAV:  cpu time      0.3075: real time      0.3090
       DOS:  cpu time      0.0011: real time      0.0011
    --------------------------------------------
      LOOP:  cpu time      0.5359: real time      0.5381

 eigenvalue-minimisations  :  2560
 total energy-change (2. order) : 0.1321332E+03  (-0.1287926E+04)
 number of electron      40.0000000 magnetization 
 augmentation part       40.0000000 magnetization 

 Free energy of the ion-electron system (eV)
  ---------------------------------------------------
  alpha Z        PSCENC =        83.74935623
  Ewald energy   TEWEN  =     -1380.36123917
  -Hartree energ DENC   =      -148.59821743
  -exchange      EXHF   =         0.00000000
  -V(xc)+E(xc)   XCENC  =       -33.66909599
  PAW double counting   =      1193.78262552    -1080.73714043
  entropy T*S    EENTRO =        -0.00176715
  eigenvalues    EBANDS =        49.48402199
  atomic energy  EATOM  =      1448.48460880
  Solvation  Ediel_sol  =         0.00000000
  ---------------------------------------------------
  free energy    TOTEN  =       132.13315237 eV

  energy without entropy =      132.13491952  energy(sigma->0) =      132.13403594


--------------------------------------------------------------------------------------------------------




--------------------------------------- Iteration      1(   2)  ---------------------------------------


     EDDAV:  cpu time      0.4372: real time      0.4400
       DOS:  cpu time      0.0008: real time      0.0008
    --------------------------------------------
      LOOP:  cpu time      0.4379: real time      0.4408

 eigenvalue-minimisations  :  3728
 total energy-change (2. order) :-0.1570722E+03  (-0.1524671E+03)
 number of electron      40.0000000 magnetization 
 augmentation part       40.0000000 magnetization 

 Free energy of the ion-electron system (eV)
  ---------------------------------------------------
  alpha Z        PSCENC =        83.74935623
  Ewald energy   TEWEN  =     -1380.36123917
  -Hartree energ DENC   =      -148.59821743
  -exchange      EXHF   =         0.00000000
  -V(xc)+E(xc)   XCENC  =       -33.66909599
  PAW double counting   =      1193.78262552    -1080.73714043
  entropy T*S    EENTRO =        -0.00000007
  eigenvalues    EBANDS =      -107.58991289
  atomic energy  EATOM  =      1448.48460880
  Solvation  Ediel_sol  =         0.00000000
  ---------------------------------------------------
  free energy    TOTEN  =       -24.93901543 eV

  energy without entropy =      -24.93901536  energy(sigma->0) =      -24.93901540


--------------------------------------------------------------------------------------------------------




--------------------------------------- Iteration      1(   3)  ---------------------------------------


     EDDAV:  cpu time      0.3683: real time      0.3703
       DOS:  cpu time      0.0007: real time      0.0007
    --------------------------------------------
      LOOP:  cpu time      0.3690: real time      0.3710

 eigenvalue-minimisations  :  3184
 total energy-change (2. order) :-0.8906524E+01  (-0.8887849E+01)
 number of electron      40.0000000 magnetization 
 augmentation part       40.0000000 magnetization 

 Free energy of the ion-electron system (eV)
  ---------------------------------------------------
  alpha Z        PSCENC =        83.74935623
  Ewald energy   TEWEN  =     -1380.36123917
  -Hartree energ DENC   =      -148.59821743
  -exchange      EXHF   =         0.00000000
  -V(xc)+E(xc)   XCENC  =       -33.66909599
  PAW double counting   =      1193.78262552    -1080.73714043
  entropy T*S    EENTRO =        -0.00000000
  eigenvalues    EBANDS =      -116.49643703
  atomic energy  EATOM  =      1448.48460880
  Solvation  Ediel_sol  =         0.00000000
  ---------------------------------------------------
  free energy    TOTEN  =       -33.84553950 eV

  energy without entropy =      -33.84553950  energy(sigma->0) =      -33.84553950


--------------------------------------------------------------------------------------------------------




--------------------------------------- Iteration      1(   4)  ---------------------------------------


     EDDAV:  cpu time      0.4091: real time      0.4110
       DOS:  cpu time      0.0006: real time      0.0006
    --------------------------------------------
      LOOP:  cpu time      0.4096: real time      0.4116

 eigenvalue-minimisations  :  3344
 total energy-change (2. order) :-0.6557375E-01  (-0.6555886E-01)
 number of electron      40.0000000 magnetization 
 augmentation part       40.0000000 magnetization 

 Free energy of the ion-electron system (eV)
  ---------------------------------------------------
  alpha Z        PSCENC =        83.74935623
  Ewald energy   TEWEN  =     -1380.36123917
  -Hartree energ DENC   =      -148.59821743
  -exchange      EXHF   =         0.00000000
  -V(xc)+E(xc)   XCENC  =       -33.66909599
  PAW double counting   =      1193.78262552    -1080.73714043
  entropy T*S    EENTRO =        -0.00000000
  eigenvalues    EBANDS =      -116.56201078
  atomic energy  EATOM  =      1448.48460880
  Solvation  Ediel_sol  =         0.00000000
  ---------------------------------------------------
  free energy    TOTEN  =       -33.91111325 eV

  energy without entropy =      -33.91111325  energy(sigma->0) =      -33.91111325


--------------------------------------------------------------------------------------------------------




--------------------------------------- Iteration      1(   5)  ---------------------------------------


     EDDAV:  cpu time      0.3965: real time      0.3994
       DOS:  cpu time      0.0005: real time      0.0005
    CHARGE:  cpu time      0.0095: real time      0.0096
    MIXING:  cpu time      0.0004: real time      0.0004
    --------------------------------------------
      LOOP:  cpu time      0.4070: real time      0.4099

 eigenvalue-minimisations  :  3184
 total energy-change (2. order) :-0.4832808E-03  (-0.4831523E-03)
 number of electron      39.9999972 magnetization 
 augmentation part       -7.4475893 magnetization 

 Broyden mixing:
  rms(total) = 0.65551E+00    rms(broyden)= 0.65550E+00
  rms(prec ) = 0.73648E+00
  weight for this iteration     100.00

 Free energy of the ion-electron system (eV)
  ---------------------------------------------------
  alpha Z        PSCENC =        83.74935623
  Ewald energy   TEWEN  =     -1380.36123917
  -Hartree energ DENC   =      -148.59821743
  -exchange      EXHF   =         0.00000000
  -V(xc)+E(xc)   XCENC  =       -33.66909599
  PAW double counting   =      1193.78262552    -1080.73714043
  entropy T*S    EENTRO =        -0.00000000
  eigenvalues    EBANDS =      -116.56249406
  atomic energy  EATOM  =      1448.48460880
  Solvation  Ediel_sol  =         0.00000000
  ---------------------------------------------------
  free energy    TOTEN  =       -33.91159654 eV

  energy without entropy =      -33.91159654  energy(sigma->0) =      -33.91159654


--------------------------------------------------------------------------------------------------------




--------------------------------------- Iteration      1(   6)  ---------------------------------------


    POTLOK:  cpu time      0.0077: real time      0.0078
    SETDIJ:  cpu time      0.2188: real time      0.2194
     EDDAV:  cpu time      0.4660: real time      0.4697
       DOS:  cpu time      0.0008: real time      0.0008
    CHARGE:  cpu time      0.0061: real time      0.0061
    MIXING:  cpu time      0.0006: real time      0.0006
    --------------------------------------------
      LOOP:  cpu time      0.6999: real time      0.7044

 eigenvalue-minimisations  :  3184
 total energy-change (2. order) : 0.4128022E+00  (-0.8509421E-01)
 number of electron      39.9999973 magnetization 
 augmentation part       -7.3839754 magnetization 

 Broyden mixing:
  rms(total) = 0.41122E+00    rms(broyden)= 0.41122E+00
  rms(prec ) = 0.43077E+00
  weight for this iteration     100.00

 eigenvalues of (default mixing * dielectric matrix)
  average eigenvalue GAMMA=   2.1616
  2.1616

 Free energy of the ion-electron system (eV)
  ---------------------------------------------------
  alpha Z        PSCENC =        83.74935623
  Ewald energy   TEWEN  =     -1380.36123917
  -Hartree energ DENC   =      -155.05960304
  -exchange      EXHF   =         0.00000000
  -V(xc)+E(xc)   XCENC  =       -33.04290051
  PAW double counting   =      1458.39438997    -1345.66679402
  entropy T*S    EENTRO =        -0.00000014
  eigenvalues    EBANDS =      -109.99661251
  atomic energy  EATOM  =      1448.48460880
  Solvation  Ediel_sol  =         0.00000000
  ---------------------------------------------------
  free energy    TOTEN  =       -33.49879438 eV

  energy without entropy =      -33.49879424  energy(sigma->0) =      -33.49879431


--------------------------------------------------------------------------------------------------------




--------------------------------------- Iteration      1(   7)  ---------------------------------------


    POTLOK:  cpu time      0.0092: real time      0.0094
    SETDIJ:  cpu time      0.2168: real time      0.2174
     EDDAV:  cpu time      0.4207: real time      0.4227
       DOS:  cpu time      0.0009: real time      0.0009
    CHARGE:  cpu time      0.0055: real time      0.0055
    MIXING:  cpu time      0.0005: real time      0.0005
    --------------------------------------------
      LOOP:  cpu time      0.6535: real time      0.6563

 eigenvalue-minimisations  :  3408
 total energy-change (2. order) : 0.5916338E-02  (-0.2399952E-01)
 number of electron      39.9999973 magnetization 
 augmentation part       -7.3625078 magnetization 

 Broyden mixing:
  rms(total) = 0.13454E+00    rms(broyden)= 0.13454E+00
  rms(prec ) = 0.14308E+00
  weight for this iteration     100.00

 eigenvalues of (default mixing * dielectric matrix)
  average eigenvalue GAMMA=   1.8107
  1.2225  2.3989

 Free energy of the ion-electron system (eV)
  ---------------------------------------------------
  alpha Z        PSCENC =        83.74935623
  Ewald energy   TEWEN  =     -1380.36123917
  -Hartree energ DENC   =      -158.10783275
  -exchange      EXHF   =         0.00000000
  -V(xc)+E(xc)   XCENC  =       -32.56627947
  PAW double counting   =      1784.80752391    -1672.31023802
  entropy T*S    EENTRO =        -0.00000129
  eigenvalues    EBANDS =      -107.18877629
  atomic energy  EATOM  =      1448.48460880
  Solvation  Ediel_sol  =         0.00000000
  ---------------------------------------------------
  free energy    TOTEN  =       -33.49287805 eV

  energy without entropy =      -33.49287676  energy(sigma->0) =      -33.49287740


--------------------------------------------------------------------------------------------------------




--------------------------------------- Iteration      1(   8)  ---------------------------------------


    POTLOK:  cpu time      0.0086: real time      0.0088
    SETDIJ:  cpu time      0.2191: real time      0.2196
     EDDAV:  cpu time      0.3510: real time      0.3529
       DOS:  cpu time      0.0051: real time      0.0051
    CHARGE:  cpu time      0.0057: real time      0.0057
    MIXING:  cpu time      0.0005: real time      0.0005
    --------------------------------------------
      LOOP:  cpu time      0.5900: real time      0.5926

 eigenvalue-minimisations  :  2960
 total energy-change (2. order) : 0.1037743E-02  (-0.2857192E-02)
 number of electron      39.9999973 magnetization 
 augmentation part       -7.3730160 magnetization 

 Broyden mixing:
  rms(total) = 0.17216E-01    rms(broyden)= 0.17216E-01
  rms(prec ) = 0.21635E-01
  weight for this iteration     100.00

 eigenvalues of (default mixing * dielectric matrix)
  average eigenvalue GAMMA=   1.6862
  2.4885  1.2851  1.2851

 Free energy of the ion-electron system (eV)
  ---------------------------------------------------
  alpha Z        PSCENC =        83.74935623
  Ewald energy   TEWEN  =     -1380.36123917
  -Hartree energ DENC   =      -158.20184882
  -exchange      EXHF   =         0.00000000
  -V(xc)+E(xc)   XCENC  =       -32.42859433
  PAW double counting   =      1928.22985619    -1815.78798802
  entropy T*S    EENTRO =        -0.00000032
  eigenvalues    EBANDS =      -107.17599085
  atomic energy  EATOM  =      1448.48460880
  Solvation  Ediel_sol  =         0.00000000
  ---------------------------------------------------
  free energy    TOTEN  =       -33.49184030 eV

  energy without entropy =      -33.49183998  energy(sigma->0) =      -33.49184014


--------------------------------------------------------------------------------------------------------




--------------------------------------- Iteration      1(   9)  ---------------------------------------


    POTLOK:  cpu time      0.0079: real time      0.0081
    SETDIJ:  cpu time      0.2170: real time      0.2175
     EDDAV:  cpu time      0.3727: real time      0.3750
       DOS:  cpu time      0.0011: real time      0.0011
    CHARGE:  cpu time      0.0055: real time      0.0055
    MIXING:  cpu time      0.0005: real time      0.0005
    --------------------------------------------
      LOOP:  cpu time      0.6046: real time      0.6076

 eigenvalue-minimisations  :  3168
 total energy-change (2. order) :-0.4015757E-03  (-0.3894158E-03)
 number of electron      39.9999973 magnetization 
 augmentation part       -7.3704751 magnetization 

 Broyden mixing:
  rms(total) = 0.67156E-02    rms(broyden)= 0.67156E-02
  rms(prec ) = 0.78595E-02
  weight for this iteration     100.00

 eigenvalues of (default mixing * dielectric matrix)
  average eigenvalue GAMMA=   1.7512
  2.3280  2.3280  1.1743  1.1743

 Free energy of the ion-electron system (eV)
  ---------------------------------------------------
  alpha Z        PSCENC =        83.74935623
  Ewald energy   TEWEN  =     -1380.36123917
  -Hartree energ DENC   =      -158.64803883
  -exchange      EXHF   =         0.00000000
  -V(xc)+E(xc)   XCENC  =       -32.38506782
  PAW double counting   =      1938.68846234    -1826.25627834
  entropy T*S    EENTRO =        -0.00000047
  eigenvalues    EBANDS =      -106.76404461
  atomic energy  EATOM  =      1448.48460880
  Solvation  Ediel_sol  =         0.00000000
  ---------------------------------------------------
  free energy    TOTEN  =       -33.49224188 eV

  energy without entropy =      -33.49224141  energy(sigma->0) =      -33.49224165


--------------------------------------------------------------------------------------------------------




--------------------------------------- Iteration      1(  10)  ---------------------------------------


    POTLOK:  cpu time      0.0077: real time      0.0078
    SETDIJ:  cpu time      0.2177: real time      0.2184
     EDDAV:  cpu time      0.4001: real time      0.4017
       DOS:  cpu time      0.0008: real time      0.0008
    CHARGE:  cpu time      0.0054: real time      0.0054
    MIXING:  cpu time      0.0005: real time      0.0005
    --------------------------------------------
      LOOP:  cpu time      0.6323: real time      0.6347

 eigenvalue-minimisations  :  3264
 total energy-change (2. order) :-0.2267033E-03  (-0.4275856E-04)
 number of electron      39.9999973 magnetization 
 augmentation part       -7.3705738 magnetization 

 Broyden mixing:
  rms(total) = 0.22374E-02    rms(broyden)= 0.22374E-02
  rms(prec ) = 0.27632E-02
  weight for this iteration     100.00

 eigenvalues of (default mixing * dielectric matrix)
  average eigenvalue GAMMA=   1.7574
  2.6428  2.6428  1.1311  1.1853  1.1853

 Free energy of the ion-electron system (eV)
  ---------------------------------------------------
  alpha Z        PSCENC =        83.74935623
  Ewald energy   TEWEN  =     -1380.36123917
  -Hartree energ DENC   =      -158.69943571
  -exchange      EXHF   =         0.00000000
  -V(xc)+E(xc)   XCENC  =       -32.37833009
  PAW double counting   =      1933.19717756    -1820.75979375
  entropy T*S    EENTRO =        -0.00000042
  eigenvalues    EBANDS =      -106.72481203
  atomic energy  EATOM  =      1448.48460880
  Solvation  Ediel_sol  =         0.00000000
  ---------------------------------------------------
  free energy    TOTEN  =       -33.49246858 eV

  energy without entropy =      -33.49246816  energy(sigma->0) =      -33.49246837


--------------------------------------------------------------------------------------------------------




--------------------------------------- Iteration      1(  11)  ---------------------------------------


    POTLOK:  cpu time      0.0078: real time      0.0079
    SETDIJ:  cpu time      0.2155: real time      0.2161
     EDDAV:  cpu time      0.3945: real time      0.3966
       DOS:  cpu time      0.0007: real time      0.0007
    CHARGE:  cpu time      0.0055: real time      0.0055
    MIXING:  cpu time      0.0005: real time      0.0005
    --------------------------------------------
      LOOP:  cpu time      0.6245: real time      0.6273

 eigenvalue-minimisations  :  3200
 total energy-change (2. order) :-0.4880840E-04  (-0.5584116E-05)
 number of electron      39.9999973 magnetization 
 augmentation part       -7.3706301 magnetization 

 Broyden mixing:
  rms(total) = 0.12074E-02    rms(broyden)= 0.12074E-02
  rms(prec ) = 0.13997E-02
  weight for this iteration     100.00

 eigenvalues of (default mixing * dielectric matrix)
  average eigenvalue GAMMA=   1.8023
  2.5933  2.5933  2.3295  0.9707  1.1634  1.1634

 Free energy of the ion-electron system (eV)
  ---------------------------------------------------
  alpha Z        PSCENC =        83.74935623
  Ewald energy   TEWEN  =     -1380.36123917
  -Hartree energ DENC   =      -158.74116540
  -exchange      EXHF   =         0.00000000
  -V(xc)+E(xc)   XCENC  =       -32.37189468
  PAW double counting   =      1933.83952650    -1821.40193902
  entropy T*S    EENTRO =        -0.00000041
  eigenvalues    EBANDS =      -106.68977024
  atomic energy  EATOM  =      1448.48460880
  Solvation  Ediel_sol  =         0.00000000
  ---------------------------------------------------
  free energy    TOTEN  =       -33.49251739 eV

  energy without entropy =      -33.49251698  energy(sigma->0) =      -33.49251718


--------------------------------------------------------------------------------------------------------




--------------------------------------- Iteration      1(  12)  ---------------------------------------


    POTLOK:  cpu time      0.0077: real time      0.0078
    SETDIJ:  cpu time      0.2184: real time      0.2189
     EDDAV:  cpu time      0.4230: real time      0.4250
       DOS:  cpu time      0.0009: real time      0.0009
    CHARGE:  cpu time      0.0055: real time      0.0055
    MIXING:  cpu time      0.0006: real time      0.0006
    --------------------------------------------
      LOOP:  cpu time      0.6561: real time      0.6588

 eigenvalue-minimisations  :  3344
 total energy-change (2. order) :-0.4440296E-05  (-0.1173029E-05)
 number of electron      39.9999973 magnetization 
 augmentation part       -7.3705194 magnetization 

 Broyden mixing:
  rms(total) = 0.28559E-03    rms(broyden)= 0.28559E-03
  rms(prec ) = 0.39019E-03
  weight for this iteration     100.00

 eigenvalues of (default mixing * dielectric matrix)
  average eigenvalue GAMMA=   1.7308
  3.0374  2.3752  2.1718  1.2560  1.0434  1.1160  1.1160

 Free energy of the ion-electron system (eV)
  ---------------------------------------------------
  alpha Z        PSCENC =        83.74935623
  Ewald energy   TEWEN  =     -1380.36123917
  -Hartree energ DENC   =      -158.75846383
  -exchange      EXHF   =         0.00000000
  -V(xc)+E(xc)   XCENC  =       -32.37022703
  PAW double counting   =      1933.64108591    -1821.20359094
  entropy T*S    EENTRO =        -0.00000042
  eigenvalues    EBANDS =      -106.67405139
  atomic energy  EATOM  =      1448.48460880
  Solvation  Ediel_sol  =         0.00000000
  ---------------------------------------------------
  free energy    TOTEN  =       -33.49252183 eV

  energy without entropy =      -33.49252141  energy(sigma->0) =      -33.49252162


--------------------------------------------------------------------------------------------------------




--------------------------------------- Iteration      1(  13)  ---------------------------------------


    POTLOK:  cpu time      0.0076: real time      0.0077
    SETDIJ:  cpu time      0.2177: real time      0.2183
     EDDAV:  cpu time      0.3439: real time      0.3456
       DOS:  cpu time      0.0009: real time      0.0009
    --------------------------------------------
      LOOP:  cpu time      0.5701: real time      0.5725

 eigenvalue-minimisations  :  2816
 total energy-change (2. order) :-0.7719545E-06  (-0.2264882E-06)
 number of electron      39.9999973 magnetization 
 augmentation part       -7.3705194 magnetization 

 Free energy of the ion-electron system (eV)
  ---------------------------------------------------
  alpha Z        PSCENC =        83.74935623
  Ewald energy   TEWEN  =     -1380.36123917
  -Hartree energ DENC   =      -158.76207597
  -exchange      EXHF   =         0.00000000
  -V(xc)+E(xc)   XCENC  =       -32.36967457
  PAW double counting   =      1933.73183987    -1821.29423997
  entropy T*S    EENTRO =        -0.00000041
  eigenvalues    EBANDS =      -106.67109740
  atomic energy  EATOM  =      1448.48460880
  Solvation  Ediel_sol  =         0.00000000
  ---------------------------------------------------
  free energy    TOTEN  =       -33.49252260 eV

  energy without entropy =      -33.49252219  energy(sigma->0) =      -33.49252240


--------------------------------------------------------------------------------------------------------




 average (electrostatic) potential at core
  the test charge radii are     1.1631  1.0808
  (the norm of the test charge is              1.0000)
       1 -33.7799       2 -33.7799       3 -33.7799       4 -33.7799       5 -55.2993
       6 -55.2993       7 -55.2993       8 -55.2993
 
 
 
 E-fermi :   3.3189     XC(G=0):  -9.0413     alpha+bet : -8.3433

 Fermi energy:         3.3188831918

 k-point     1 :       0.0000    0.0000    0.0000
  band No.  band energies     occupation 
      1     -11.2315      2.00000
      2     -11.0067      2.00000
      3      -9.9739      2.00000
      4      -9.6556      2.00000
      5      -4.9370      2.00000
      6      -4.4863      2.00000
      7      -2.9957      2.00000
      8      -2.6869      2.00000
      9      -2.1206      2.00000
     10      -0.7557      2.00000
     11      -0.2733      2.00000
     12      -0.2503      2.00000
     13      -0.0980      2.00000
     14       0.1635      2.00000
     15       0.8879      2.00000
     16       1.1171      2.00000
     17       1.4959      2.00000
     18       1.7245      2.00000
     19       1.7881      2.00000
     20       2.8923      2.00000
     21       3.6173      0.00000
     22       5.2165      0.00000
     23       5.6858      0.00000
     24       5.7507      0.00000
     25       6.1899      0.00000
     26       6.7015      0.00000
     27       6.8794      0.00000
     28       7.0866      0.00000
     29       7.3790      0.00000
     30       8.2469      0.00000
     31       8.2877      0.00000
     32       8.5609      0.00000

 k-point     2 :       0.1667    0.0000    0.0000
  band No.  band energies     occupation 
      1     -11.0453      2.00000
      2     -10.8304      2.00000
      3      -9.8654      2.00000
      4      -9.5909      2.00000
      5      -5.1522      2.00000
      6      -4.7242      2.00000
      7      -3.4731      2.00000
      8      -3.0342      2.00000
      9      -2.0198      2.00000
     10      -0.5945      2.00000
     11      -0.4910      2.00000
     12      -0.1436      2.00000
     13      -0.0918      2.00000
     14       0.0779      2.00000
     15       0.8092      2.00000
     16       0.8825      2.00000
     17       1.5336      2.00000
     18       1.5775      2.00000
     19       1.9984      2.00000
     20       3.1263      2.00000
     21       3.4625      0.00005
     22       5.3296      0.00000
     23       5.5336      0.00000
     24       6.0257      0.00000
     25       6.0691      0.00000
     26       6.3961      0.00000
     27       6.5808      0.00000
     28       7.1546      0.00000
     29       7.2650      0.00000
     30       7.3687      0.00000
     31       7.5626      0.00000
     32       8.6421      0.00000

 k-point     3 :       0.3333    0.0000    0.0000
  band No.  band energies     occupation 
      1     -10.5387      2.00000
      2     -10.3628      2.00000
      3      -9.6908      2.00000
      4      -9.5635      2.00000
      5      -5.5812      2.00000
      6      -5.1494      2.00000
      7      -4.5767      2.00000
      8      -4.0645      2.00000
      9      -1.4662      2.00000
     10      -0.5279      2.00000
     11      -0.3350      2.00000
     12       0.1790      2.00000
     13       0.1978      2.00000
     14       0.5608      2.00000
     15       0.8136      2.00000
     16       0.8390      2.00000
     17       1.0328      2.00000
     18       1.7437      2.00000
     19       2.2452      2.00000
     20       2.8697      2.00000
     21       3.8153      0.00000
     22       4.0581      0.00000
     23       4.3252      0.00000
     24       5.1981      0.00000
     25       5.3639      0.00000
     26       5.3818      0.00000
     27       5.4172      0.00000
     28       6.2755      0.00000
     29       6.5036      0.00000
     30       6.5068      0.00000
     31       7.2385      0.00000
     32       8.3062      0.00000

 k-point     4 :       0.5000    0.0000    0.0000
  band No.  band energies     occupation 
      1      -9.9169      2.00000
      2      -9.9169      2.00000
      3      -9.8450      2.00000
      4      -9.8450      2.00000
      5      -5.4828      2.00000
      6      -5.4828      2.00000
      7      -4.9804      2.00000
      8      -4.9804      2.00000
      9      -0.6992      2.00000
     10      -0.6992      2.00000
     11       0.1665      2.00000
     12       0.1665      2.00000
     13       0.6340      2.00000
     14       0.6340      2.00000
     15       0.7104      2.00000
     16       0.7104      2.00000
     17       1.3776      2.00000
     18       1.3776      2.00000
     19       2.3619      2.00000
     20       2.3619      2.00000
     21       3.8472      0.00000
     22       3.8472      0.00000
     23       4.6710      0.00000
     24       4.6710      0.00000
     25       4.8413      0.00000
     26       4.8413      0.00000
     27       5.1919      0.00000
     28       5.1919      0.00000
     29       5.4468      0.00000
     30       5.4468      0.00000
     31       7.6594      0.00000
     32       7.6594      0.00000

 k-point     5 :       0.0000    0.1667    0.0000
  band No.  band energies     occupation 
      1     -11.1171      2.00000
      2     -10.9011      2.00000
      3      -9.9833      2.00000
      4      -9.7119      2.00000
      5      -5.1630      2.00000
      6      -4.7193      2.00000
      7      -3.6921      2.00000
      8      -3.0426      2.00000
      9      -1.9653      2.00000
     10      -0.2889      2.00000
     11       0.0384      2.00000
     12       0.0913      2.00000
     13       0.1854      2.00000
     14       0.2939      2.00000
     15       1.1496      2.00000
     16       1.2466      2.00000
     17       1.4677      2.00000
     18       1.5264      2.00000
     19       2.1639      2.00000
     20       3.0776      2.00000
     21       3.5458      0.00000
     22       5.1774      0.00000
     23       5.3643      0.00000
     24       5.5990      0.00000
     25       5.8543      0.00000
     26       6.2903      0.00000
     27       6.4221      0.00000
     28       6.9509      0.00000
     29       7.2243      0.00000
     30       7.5039      0.00000
     31       7.8477      0.00000
     32       8.8345      0.00000

 k-point     6 :       0.1667    0.1667    0.0000
  band No.  band energies     occupation 
      1     -10.9366      2.00000
      2     -10.7304      2.00000
      3      -9.8762      2.00000
      4      -9.6409      2.00000
      5      -5.2711      2.00000
      6      -4.8046      2.00000
      7      -3.8545      2.00000
      8      -3.3438      2.00000
      9      -1.8321      2.00000
     10      -1.0808      2.00000
     11      -0.7308      2.00000
     12       0.0106      2.00000
     13       0.2874      2.00000
     14       0.5890      2.00000
     15       0.8617      2.00000
     16       0.9486      2.00000
     17       1.3299      2.00000
     18       1.8990      2.00000
     19       2.3114      2.00000
     20       3.1586      1.99999
     21       3.5413      0.00000
     22       4.9068      0.00000
     23       5.1366      0.00000
     24       5.4399      0.00000
     25       6.0676      0.00000
     26       6.4650      0.00000
     27       6.7046      0.00000
     28       7.1489      0.00000
     29       7.2097      0.00000
     30       7.3709      0.00000
     31       7.4513      0.00000
     32       8.5055      0.00000

 k-point     7 :       0.1667   -0.1667    0.0000
  band No.  band energies     occupation 
      1     -10.9362      2.00000
      2     -10.7308      2.00000
      3      -9.8749      2.00000
      4      -9.6426      2.00000
      5      -5.2574      2.00000
      6      -4.8191      2.00000
      7      -3.8961      2.00000
      8      -3.2927      2.00000
      9      -1.8265      2.00000
     10      -1.0944      2.00000
     11      -0.7040      2.00000
     12      -0.0116      2.00000
     13       0.2884      2.00000
     14       0.5641      2.00000
     15       0.8786      2.00000
     16       0.9467      2.00000
     17       1.2898      2.00000
     18       1.9395      2.00000
     19       2.2765      2.00000
     20       3.1742      1.99996
     21       3.6029      0.00000
     22       4.8596      0.00000
     23       5.1760      0.00000
     24       5.4870      0.00000
     25       6.0318      0.00000
     26       6.4920      0.00000
     27       6.6840      0.00000
     28       7.0679      0.00000
     29       7.1164      0.00000
     30       7.2944      0.00000
     31       7.5639      0.00000
     32       8.5516      0.00000

 k-point     8 :       0.3333    0.1667    0.0000
  band No.  band energies     occupation 
      1     -10.4513      2.00000
      2     -10.2837      2.00000
      3      -9.6959      2.00000
      4      -9.5822      2.00000
      5      -5.5337      2.00000
      6      -5.0483      2.00000
      7      -4.5931      2.00000
      8      -4.1463      2.00000
      9      -1.3928      2.00000
     10      -1.3285      2.00000
     11      -1.0184      2.00000
     12      -0.0888      2.00000
     13       0.1626      2.00000
     14       0.4432      2.00000
     15       0.5503      2.00000
     16       0.9989      2.00000
     17       1.1729      2.00000
     18       1.5452      2.00000
     19       2.0657      2.00000
     20       2.8831      2.00000
     21       3.7121      0.00000
     22       4.7334      0.00000
     23       4.7565      0.00000
     24       4.9806      0.00000
     25       5.1934      0.00000
     26       5.8472      0.00000
     27       6.2681      0.00000
     28       6.6972      0.00000
     29       7.1893      0.00000
     30       7.5630      0.00000
     31       7.8079      0.00000
     32       8.1057      0.00000

 k-point     9 :       0.3333   -0.1667    0.0000
  band No.  band energies     occupation 
      1     -10.4504      2.00000
      2     -10.2844      2.00000
      3      -9.6917      2.00000
      4      -9.5870      2.00000
      5      -5.5076      2.00000
      6      -5.0757      2.00000
      7      -4.6358      2.00000
      8      -4.0990      2.00000
      9      -1.3860      2.00000
     10      -1.3316      2.00000
     11      -0.9987      2.00000
     12      -0.1013      2.00000
     13       0.1895      2.00000
     14       0.3847      2.00000
     15       0.5563      2.00000
     16       1.0032      2.00000
     17       1.1400      2.00000
     18       1.5395      2.00000
     19       2.0581      2.00000
     20       2.9560      2.00000
     21       3.7211      0.00000
     22       4.7070      0.00000
     23       4.7550      0.00000
     24       5.0372      0.00000
     25       5.2856      0.00000
     26       5.7461      0.00000
     27       6.3128      0.00000
     28       6.6151      0.00000
     29       7.0057      0.00000
     30       7.5077      0.00000
     31       7.7970      0.00000
     32       8.3075      0.00000

 k-point    10 :       0.5000    0.1667    0.0000
  band No.  band energies     occupation 
      1      -9.8777      2.00000
      2      -9.8766      2.00000
      3      -9.8095      2.00000
      4      -9.8079      2.00000
      5      -5.4129      2.00000
      6      -5.3831      2.00000
      7      -4.9261      2.00000
      8      -4.8950      2.00000
      9      -0.9032      2.00000
     10      -0.8830      2.00000
     11      -0.4214      2.00000
     12      -0.4110      2.00000
     13      -0.1863      2.00000
     14      -0.1145      2.00000
     15       0.5197      2.00000
     16       0.5326      2.00000
     17       1.2017      2.00000
     18       1.2433      2.00000
     19       2.3989      2.00000
     20       2.4315      2.00000
     21       4.0705      0.00000
     22       4.0848      0.00000
     23       4.9582      0.00000
     24       4.9815      0.00000
     25       5.4440      0.00000
     26       5.5546      0.00000
     27       6.1584      0.00000
     28       6.1611      0.00000
     29       6.5861      0.00000
     30       6.6200      0.00000
     31       7.4761      0.00000
     32       7.6535      0.00000

 k-point    11 :       0.0000    0.3333    0.0000
  band No.  band energies     occupation 
      1     -10.8026      2.00000
      2     -10.6162      2.00000
      3     -10.0827      2.00000
      4      -9.9159      2.00000
      5      -5.4530      2.00000
      6      -4.9449      2.00000
      7      -4.6483      2.00000
      8      -3.9755      2.00000
      9      -1.4383      2.00000
     10       0.2044      2.00000
     11       0.4117      2.00000
     12       0.6415      2.00000
     13       0.6966      2.00000
     14       0.7026      2.00000
     15       1.1449      2.00000
     16       1.2790      2.00000
     17       1.3914      2.00000
     18       2.5726      2.00000
     19       2.6825      2.00000
     20       2.8357      2.00000
     21       4.0845      0.00000
     22       4.2283      0.00000
     23       4.5665      0.00000
     24       5.2249      0.00000
     25       5.6819      0.00000
     26       5.6827      0.00000
     27       5.8871      0.00000
     28       6.0909      0.00000
     29       6.4051      0.00000
     30       6.8254      0.00000
     31       7.6938      0.00000
     32       8.7636      0.00000

 k-point    12 :       0.1667    0.3333    0.0000
  band No.  band energies     occupation 
      1     -10.6396      2.00000
      2     -10.4631      2.00000
      3      -9.9703      2.00000
      4      -9.8234      2.00000
      5      -5.4081      2.00000
      6      -4.8723      2.00000
      7      -4.6084      2.00000
      8      -4.0200      2.00000
      9      -1.3285      2.00000
     10      -1.0462      2.00000
     11      -0.6902      2.00000
     12      -0.0907      2.00000
     13       0.2275      2.00000
     14       0.2783      2.00000
     15       0.7846      2.00000
     16       1.3378      2.00000
     17       1.9790      2.00000
     18       2.0257      2.00000
     19       2.4112      2.00000
     20       2.8819      2.00000
     21       4.0601      0.00000
     22       4.8716      0.00000
     23       5.2392      0.00000
     24       5.3196      0.00000
     25       5.6808      0.00000
     26       5.7297      0.00000
     27       6.4721      0.00000
     28       6.8505      0.00000
     29       7.3504      0.00000
     30       7.4494      0.00000
     31       7.8219      0.00000
     32       8.4419      0.00000

 k-point    13 :       0.1667   -0.3333    0.0000
  band No.  band energies     occupation 
      1     -10.6388      2.00000
      2     -10.4637      2.00000
      3      -9.9685      2.00000
      4      -9.8255      2.00000
      5      -5.3909      2.00000
      6      -4.8893      2.00000
      7      -4.6374      2.00000
      8      -3.9889      2.00000
      9      -1.3078      2.00000
     10      -1.0646      2.00000
     11      -0.6651      2.00000
     12      -0.1175      2.00000
     13       0.2442      2.00000
     14       0.2533      2.00000
     15       0.7858      2.00000
     16       1.3197      2.00000
     17       1.9441      2.00000
     18       2.0393      2.00000
     19       2.4238      2.00000
     20       2.9219      2.00000
     21       4.0648      0.00000
     22       4.9331      0.00000
     23       5.1853      0.00000
     24       5.3014      0.00000
     25       5.6622      0.00000
     26       5.8147      0.00000
     27       6.5181      0.00000
     28       6.7042      0.00000
     29       7.3253      0.00000
     30       7.5157      0.00000
     31       7.6817      0.00000
     32       8.6164      0.00000

 k-point    14 :       0.3333    0.3333    0.0000
  band No.  band energies     occupation 
      1     -10.2201      2.00000
      2     -10.0811      2.00000
      3      -9.7519      2.00000
      4      -9.6702      2.00000
      5      -5.3752      2.00000
      6      -4.8206      2.00000
      7      -4.7573      2.00000
      8      -4.3408      2.00000
      9      -1.8974      2.00000
     10      -1.4904      2.00000
     11      -1.3137      2.00000
     12      -0.7673      2.00000
     13      -0.5022      2.00000
     14       0.0365      2.00000
     15       0.0498      2.00000
     16       0.6042      2.00000
     17       0.8470      2.00000
     18       1.4169      2.00000
     19       2.0814      2.00000
     20       2.6956      2.00000
     21       3.9376      0.00000
     22       5.3877      0.00000
     23       5.5551      0.00000
     24       5.6887      0.00000
     25       6.5756      0.00000
     26       7.0239      0.00000
     27       7.2739      0.00000
     28       7.5525      0.00000
     29       7.6235      0.00000
     30       7.9131      0.00000
     31       8.0511      0.00000
     32       8.8825      0.00000

 k-point    15 :       0.3333   -0.3333    0.0000
  band No.  band energies     occupation 
      1     -10.2186      2.00000
      2     -10.0821      2.00000
      3      -9.7461      2.00000
      4      -9.6770      2.00000
      5      -5.3317      2.00000
      6      -4.8665      2.00000
      7      -4.8218      2.00000
      8      -4.2710      2.00000
      9      -1.9060      2.00000
     10      -1.4686      2.00000
     11      -1.2939      2.00000
     12      -0.7728      2.00000
     13      -0.5269      2.00000
     14       0.0119      2.00000
     15       0.1195      2.00000
     16       0.5464      2.00000
     17       0.7752      2.00000
     18       1.4733      2.00000
     19       2.0426      2.00000
     20       2.7711      2.00000
     21       4.0108      0.00000
     22       5.2848      0.00000
     23       5.5050      0.00000
     24       5.7887      0.00000
     25       6.5817      0.00000
     26       7.0066      0.00000
     27       7.2263      0.00000
     28       7.3401      0.00000
     29       7.6513      0.00000
     30       7.8701      0.00000
     31       8.1749      0.00000
     32       8.8533      0.00000

 k-point    16 :       0.5000    0.3333    0.0000
  band No.  band energies     occupation 
      1      -9.7951      2.00000
      2      -9.7929      2.00000
      3      -9.7350      2.00000
      4      -9.7318      2.00000
      5      -5.2467      2.00000
      6      -5.1826      2.00000
      7      -4.7894      2.00000
      8      -4.7217      2.00000
      9      -1.4866      2.00000
     10      -1.4797      2.00000
     11      -1.1730      2.00000
     12      -1.1606      2.00000
     13      -0.7516      2.00000
     14      -0.7203      2.00000
     15      -0.0413      2.00000
     16      -0.0045      2.00000
     17       0.5823      2.00000
     18       0.5836      2.00000
     19       2.3565      2.00000
     20       2.4498      2.00000
     21       4.4831      0.00000
     22       4.5832      0.00000
     23       6.4031      0.00000
     24       6.4597      0.00000
     25       6.6442      0.00000
     26       6.6630      0.00000
     27       7.3304      0.00000
     28       7.4701      0.00000
     29       7.9536      0.00000
     30       8.1007      0.00000
     31       8.3467      0.00000
     32       8.4046      0.00000

 k-point    17 :       0.0000    0.5000    0.0000
  band No.  band energies     occupation 
      1     -10.3899      2.00000
      2     -10.3899      2.00000
      3     -10.2495      2.00000
      4     -10.2495      2.00000
      5      -5.3095      2.00000
      6      -5.3095      2.00000
      7      -4.6977      2.00000
      8      -4.6977      2.00000
      9      -0.6819      2.00000
     10      -0.6819      2.00000
     11       0.8729      2.00000
     12       0.8729      2.00000
     13       1.0767      2.00000
     14       1.0767      2.00000
     15       1.1891      2.00000
     16       1.1891      2.00000
     17       2.2881      2.00000
     18       2.2881      2.00000
     19       2.6494      2.00000
     20       2.6494      2.00000
     21       4.3723      0.00000
     22       4.3723      0.00000
     23       4.7893      0.00000
     24       4.7893      0.00000
     25       5.1016      0.00000
     26       5.1016      0.00000
     27       5.6891      0.00000
     28       5.6891      0.00000
     29       6.0458      0.00000
     30       6.0458      0.00000
     31       8.2966      0.00000
     32       8.2966      0.00000

 k-point    18 :       0.1667    0.5000    0.0000
  band No.  band energies     occupation 
      1     -10.2543      2.00000
      2     -10.2541      2.00000
      3     -10.1253      2.00000
      4     -10.1252      2.00000
      5      -5.2217      2.00000
      6      -5.2019      2.00000
      7      -4.6293      2.00000
      8      -4.6098      2.00000
      9      -0.6715      2.00000
     10      -0.6103      2.00000
     11      -0.5509      2.00000
     12      -0.5392      2.00000
     13      -0.2155      2.00000
     14      -0.1702      2.00000
     15       1.0973      2.00000
     16       1.1412      2.00000
     17       2.0845      2.00000
     18       2.1803      2.00000
     19       2.5979      2.00000
     20       2.6296      2.00000
     21       4.5369      0.00000
     22       4.5531      0.00000
     23       5.4543      0.00000
     24       5.5308      0.00000
     25       5.5977      0.00000
     26       5.6743      0.00000
     27       6.7186      0.00000
     28       6.8005      0.00000
     29       6.9923      0.00000
     30       7.0157      0.00000
     31       8.1480      0.00000
     32       8.2783      0.00000

[...]
     32       7.5131      0.00000

 k-point    32 :       0.1667    0.3333    0.5000
  band No.  band energies     occupation 
      1     -10.5624      2.00000
      2     -10.5624      2.00000
      3      -9.8856      2.00000
      4      -9.8856      2.00000
      5      -5.1867      2.00000
      6      -5.1867      2.00000
      7      -4.3153      2.00000
      8      -4.3153      2.00000
      9      -0.9471      2.00000
     10      -0.9471      2.00000
     11      -0.4999      2.00000
     12      -0.4999      2.00000
     13       0.2497      2.00000
     14       0.2497      2.00000
     15       0.9278      2.00000
     16       0.9278      2.00000
     17       2.0069      2.00000
     18       2.0069      2.00000
     19       2.3529      2.00000
     20       2.3529      2.00000
     21       4.9643      0.00000
     22       4.9644      0.00000
     23       5.4615      0.00000
     24       5.4615      0.00000
     25       5.8841      0.00000
     26       5.8841      0.00000
     27       6.5155      0.00000
     28       6.5155      0.00000
     29       7.2375      0.00000
     30       7.2375      0.00000
     31       7.6170      0.00000
     32       7.6170      0.00000

 k-point    33 :       0.1667   -0.3333    0.5000
  band No.  band energies     occupation 
      1     -10.5621      2.00000
      2     -10.5621      2.00000
      3      -9.8860      2.00000
      4      -9.8860      2.00000
      5      -5.1865      2.00000
      6      -5.1865      2.00000
      7      -4.3164      2.00000
      8      -4.3164      2.00000
      9      -0.9485      2.00000
     10      -0.9485      2.00000
     11      -0.4914      2.00000
     12      -0.4914      2.00000
     13       0.2489      2.00000
     14       0.2489      2.00000
     15       0.9233      2.00000
     16       0.9233      2.00000
     17       2.0291      2.00000
     18       2.0291      2.00000
     19       2.3237      2.00000
     20       2.3237      2.00000
     21       4.9919      0.00000
     22       4.9919      0.00000
     23       5.3888      0.00000
     24       5.3888      0.00000
     25       5.8920      0.00000
     26       5.8920      0.00000
     27       6.5502      0.00000
     28       6.5502      0.00000
     29       7.3640      0.00000
     30       7.3640      0.00000
     31       7.5495      0.00000
     32       7.5495      0.00000

 k-point    34 :       0.3333    0.3333    0.5000
  band No.  band energies     occupation 
      1     -10.1582      2.00000
      2     -10.1582      2.00000
      3      -9.7039      2.00000
      4      -9.7039      2.00000
      5      -5.1341      2.00000
      6      -5.1341      2.00000
      7      -4.5487      2.00000
      8      -4.5487      2.00000
      9      -1.7288      2.00000
     10      -1.7288      2.00000
     11      -0.9135      2.00000
     12      -0.9135      2.00000
     13      -0.2775      2.00000
     14      -0.2775      2.00000
     15       0.4160      2.00000
     16       0.4160      2.00000
     17       1.1399      2.00000
     18       1.1399      2.00000
     19       1.9122      2.00000
     20       1.9122      2.00000
     21       5.2559      0.00000
     22       5.2559      0.00000
     23       5.9096      0.00000
     24       5.9096      0.00000
     25       6.5270      0.00000
     26       6.5270      0.00000
     27       7.1410      0.00000
     28       7.1410      0.00000
     29       7.5019      0.00000
     30       7.5019      0.00000
     31       8.7621      0.00000
     32       8.7621      0.00000

 k-point    35 :       0.3333   -0.3333    0.5000
  band No.  band energies     occupation 
      1     -10.1575      2.00000
      2     -10.1575      2.00000
      3      -9.7048      2.00000
      4      -9.7048      2.00000
      5      -5.1328      2.00000
      6      -5.1328      2.00000
      7      -4.5506      2.00000
      8      -4.5506      2.00000
      9      -1.7360      2.00000
     10      -1.7360      2.00000
     11      -0.8940      2.00000
     12      -0.8940      2.00000
     13      -0.2838      2.00000
     14      -0.2838      2.00000
     15       0.4112      2.00000
     16       0.4112      2.00000
     17       1.1657      2.00000
     18       1.1657      2.00000
     19       1.8722      2.00000
     20       1.8722      2.00000
     21       5.2810      0.00000
     22       5.2810      0.00000
     23       5.8599      0.00000
     24       5.8599      0.00000
     25       6.6586      0.00000
     26       6.6586      0.00000
     27       7.1091      0.00000
     28       7.1091      0.00000
     29       7.4608      0.00000
     30       7.4608      0.00000
     31       8.7125      0.00000
     32       8.7125      0.00000

 k-point    36 :       0.5000    0.3333    0.5000
  band No.  band energies     occupation 
      1      -9.7696      2.00000
      2      -9.7696      2.00000
      3      -9.7589      2.00000
      4      -9.7589      2.00000
      5      -5.0467      2.00000
      6      -5.0467      2.00000
      7      -4.9536      2.00000
      8      -4.9536      2.00000
      9      -1.3490      2.00000
     10      -1.3490      2.00000
     11      -1.2995      2.00000
     12      -1.2995      2.00000
     13      -0.4599      2.00000
     14      -0.4599      2.00000
     15      -0.3743      2.00000
     16      -0.3743      2.00000
     17       1.3220      2.00000
     18       1.3220      2.00000
     19       1.3847      2.00000
     20       1.3847      2.00000
     21       5.6814      0.00000
     22       5.6814      0.00000
     23       5.9609      0.00000
     24       5.9609      0.00000
     25       6.6984      0.00000
     26       6.6984      0.00000
     27       6.8266      0.00000
     28       6.8266      0.00000
     29       8.2764      0.00000
     30       8.2764      0.00000
     31       8.3230      0.00000
     32       8.3230      0.00000

 k-point    37 :       0.0000    0.5000    0.5000
  band No.  band energies     occupation 
      1     -10.3836      2.00000
      2     -10.3836      2.00000
      3     -10.2569      2.00000
      4     -10.2569      2.00000
      5      -5.1315      2.00000
      6      -5.1315      2.00000
      7      -4.9284      2.00000
      8      -4.9284      2.00000
      9      -0.0318      2.00000
     10      -0.0318      2.00000
     11       0.3391      2.00000
     12       0.3391      2.00000
     13       0.8778      2.00000
     14       0.8778      2.00000
     15       1.0720      2.00000
     16       1.0720      2.00000
     17       2.4490      2.00000
     18       2.4490      2.00000
     19       2.4550      2.00000
     20       2.4550      2.00000
     21       4.5103      0.00000
     22       4.5103      0.00000
     23       4.6268      0.00000
     24       4.6268      0.00000
     25       5.8353      0.00000
     26       5.8353      0.00000
     27       5.8697      0.00000
     28       5.8697      0.00000
     29       6.4623      0.00000
     30       6.4623      0.00000
     31       6.9218      0.00000
     32       6.9218      0.00000

 k-point    38 :       0.1667    0.5000    0.5000
  band No.  band energies     occupation 
      1     -10.2474      2.00000
      2     -10.2474      2.00000
      3     -10.1330      2.00000
      4     -10.1330      2.00000
      5      -5.0439      2.00000
      6      -5.0439      2.00000
      7      -4.8356      2.00000
      8      -4.8356      2.00000
      9      -0.5741      2.00000
     10      -0.5741      2.00000
     11      -0.3992      2.00000
     12      -0.3992      2.00000
     13       0.2686      2.00000
     14       0.2686      2.00000
     15       0.3944      2.00000
     16       0.3944      2.00000
     17       2.0701      2.00000
     18       2.0701      2.00000
     19       2.3900      2.00000
     20       2.3900      2.00000
     21       5.2194      0.00000
     22       5.2194      0.00000
     23       5.4359      0.00000
     24       5.4359      0.00000
     25       6.1278      0.00000
     26       6.1278      0.00000
     27       6.7508      0.00000
     28       6.7508      0.00000
     29       6.9661      0.00000
     30       6.9661      0.00000
     31       7.2043      0.00000
     32       7.2043      0.00000

 k-point    39 :       0.3333    0.5000    0.5000
  band No.  band energies     occupation 
      1      -9.9313      2.00000
      2      -9.9313      2.00000
      3      -9.8581      2.00000
      4      -9.8581      2.00000
      5      -4.9370      2.00000
      6      -4.9370      2.00000
      7      -4.7626      2.00000
      8      -4.7626      2.00000
      9      -1.6665      2.00000
     10      -1.6665      2.00000
     11      -1.4284      2.00000
     12      -1.4284      2.00000
     13      -0.0934      2.00000
     14      -0.0934      2.00000
     15      -0.0177      2.00000
     16      -0.0177      2.00000
     17       1.1559      2.00000
     18       1.1559      2.00000
     19       1.5714      2.00000
     20       1.5714      2.00000
     21       5.8274      0.00000
     22       5.8274      0.00000
     23       6.4531      0.00000
     24       6.4531      0.00000
     25       6.7812      0.00000
     26       6.7812      0.00000
     27       7.1953      0.00000
     28       7.1953      0.00000
     29       8.4339      0.00000
     30       8.4339      0.00000
     31       8.6157      0.00000
     32       8.6157      0.00000

 k-point    40 :       0.5000    0.5000    0.5000
  band No.  band energies     occupation 
      1      -9.7249      2.00000
      2      -9.7249      2.00000
      3      -9.7209      2.00000
      4      -9.7209      2.00000
      5      -4.9550      2.00000
      6      -4.9550      2.00000
      7      -4.8597      2.00000
      8      -4.8597      2.00000
      9      -1.5971      2.00000
     10      -1.5971      2.00000
     11      -1.5417      2.00000
     12      -1.5417      2.00000
     13      -0.8319      2.00000
     14      -0.8319      2.00000
     15      -0.7418      2.00000
     16      -0.7418      2.00000
     17       1.3055      2.00000
     18       1.3055      2.00000
     19       1.3672      2.00000
     20       1.3672      2.00000
     21       5.6812      0.00000
     22       5.6812      0.00000
     23       6.0922      0.00000
     24       6.0922      0.00000
     25       7.5586      0.00000
     26       7.5586      0.00000
     27       7.5781      0.00000
     28       7.5781      0.00000
     29       8.8621      0.00000
     30       8.8621      0.00000
     31       9.1051      0.00000
     32       9.1051      0.00000


--------------------------------------------------------------------------------------------------------


 soft charge-density along one line, spin component            1
         0         1         2         3         4         5         6         7         8         9
 total charge-density along one line
 
 pseudopotential strength for first ion, spin component:            1
 14.606  18.225   0.043   0.042   0.000   0.077   0.077   0.001
 18.225  22.756   0.054   0.054   0.000   0.097   0.097   0.001
  0.043   0.054   3.239  -0.002  -0.000   5.515  -0.004  -0.000
  0.042   0.054  -0.002   3.238  -0.000  -0.004   5.513  -0.000
  0.000   0.000  -0.000  -0.000   3.241  -0.000  -0.000   5.518
  0.077   0.097   5.515  -0.004  -0.000   9.448  -0.006  -0.000
  0.077   0.097  -0.004   5.513  -0.000  -0.006   9.444  -0.000
  0.001   0.001  -0.000  -0.000   5.518  -0.000  -0.000   9.453
 -0.000  -0.000   0.000  -0.000   0.007   0.000  -0.000   0.014
 -0.005  -0.006   0.011   0.013  -0.000   0.020   0.024  -0.000
 -0.002  -0.003  -0.004   0.011  -0.000  -0.007   0.020  -0.000
 -0.000  -0.000  -0.000   0.000   0.011  -0.000   0.000   0.020
  0.002   0.002  -0.013   0.000   0.000  -0.023   0.000   0.000
 total augmentation occupancy for first ion, spin component:            1
  2.748  -0.722   0.355   0.352  -0.000  -0.065  -0.065   0.000  -0.000  -0.011  -0.001  -0.000   0.009
 -0.722   0.699  -0.446  -0.459  -0.002   0.070   0.072   0.000   0.001   0.002   0.001   0.001  -0.004
  0.355  -0.446   1.230   0.037   0.000  -0.201   0.005   0.000  -0.000   0.042  -0.097  -0.000  -0.000
  0.352  -0.459   0.037   1.295   0.001   0.005  -0.209  -0.000   0.000  -0.016   0.099  -0.000  -0.004
 -0.000  -0.002   0.000   0.001   1.239   0.000  -0.000  -0.214   0.146   0.000   0.000   0.035  -0.000
 -0.065   0.070  -0.201   0.005   0.000   0.037  -0.003  -0.000   0.000  -0.007   0.017  -0.000   0.000
 -0.065   0.072   0.005  -0.209  -0.000  -0.003   0.039   0.000  -0.000   0.003  -0.017   0.000   0.001
  0.000   0.000   0.000  -0.000  -0.214  -0.000   0.000   0.041  -0.026  -0.000  -0.000  -0.006   0.000
 -0.000   0.001  -0.000   0.000   0.146   0.000  -0.000  -0.026   0.031  -0.000  -0.000   0.002   0.000
 -0.011   0.002   0.042  -0.016   0.000  -0.007   0.003  -0.000  -0.000   0.011  -0.005  -0.000   0.001
 -0.001   0.001  -0.097   0.099   0.000   0.017  -0.017  -0.000  -0.000  -0.005   0.031  -0.000  -0.002
 -0.000   0.001  -0.000  -0.000   0.035  -0.000   0.000  -0.006   0.002  -0.000  -0.000   0.009   0.000
  0.009  -0.004  -0.000  -0.004  -0.000   0.000   0.001   0.000   0.000   0.001  -0.002   0.000   0.008


------------------------ aborting loop because EDIFF is reached ----------------------------------------


    CHARGE:  cpu time      0.0054: real time      0.0054
    FORLOC:  cpu time      0.0002: real time      0.0002
    FORNL :  cpu time      0.0274: real time      0.0275
    STRESS:  cpu time      0.2704: real time      0.2712
    FORCOR:  cpu time      0.0071: real time      0.0071
    FORHAR:  cpu time      0.0016: real time      0.0016
    MIXING:  cpu time      0.0006: real time      0.0006
    OFIELD:  cpu time      0.0000: real time      0.0000

  FORCE on cell =-STRESS in cart. coord.  units (eV):
  Direction    XX          YY          ZZ          XY          YZ          ZX
  --------------------------------------------------------------------------------------
  Alpha Z    83.74936    83.74936    83.74936
  Ewald    -409.83466  -463.06910  -507.45929    -1.28559    -0.00000     0.00000
  Hartree    80.28513    58.61331    19.86741    -0.50519    -0.00000    -0.00000
  E(xc)    -141.12800  -141.13372  -141.30840    -0.01095     0.00000    -0.00000
  Local    -231.81811  -163.21762   -81.31630     1.78537     0.00000    -0.00000
  n-local   240.86861   240.33300   241.54258     0.01520    -0.00000     0.00000
  augment   -11.35649   -11.75089   -11.94371     0.00226    -0.00000     0.00000
  Kinetic   390.20604   396.38538   400.59201    -0.16992     0.00000    -0.00000
  Fock        0.00000     0.00000     0.00000     0.00000     0.00000     0.00000
  -------------------------------------------------------------------------------------
  Total       0.97187    -0.09027     3.72366    -0.16881    -0.00000    -0.00000
  in kB       7.69614    -0.71484    29.48731    -1.33678    -0.00000    -0.00001
  external pressure =       12.16 kB  Pullay stress =        0.00 kB


 VOLUME and BASIS-vectors are now :
 -----------------------------------------------------------------------------
  energy-cutoff  :      360.00
  volume of cell :      202.32
      direct lattice vectors                 reciprocal lattice vectors
     3.858100176  0.000000000  0.000000000     0.259194929  0.000000000  0.000000000
     0.000000000  4.526575088  0.000000000     0.000000000  0.220917577  0.000000000
     0.000000000  0.000000000 11.585176468     0.000000000  0.000000000  0.086317200

  length of vectors
     3.858100176  4.526575088 11.585176468     0.259194929  0.220917577  0.086317200


 FORCES acting on ions
    electron-ion (+dipol)            ewald-force                    non-local-force                 convergence-correction
 -----------------------------------------------------------------------------------------------
   0.538E-01 0.153E+02 0.293E+02   -.912E-01 -.180E+02 -.320E+02   0.333E-01 0.252E+01 0.278E+01   -.175E-04 -.967E-04 -.664E-03
   0.538E-01 0.153E+02 -.293E+02   -.912E-01 -.180E+02 0.320E+02   0.333E-01 0.252E+01 -.278E+01   -.177E-04 -.967E-04 0.663E-03
   -.538E-01 -.153E+02 -.293E+02   0.912E-01 0.180E+02 0.320E+02   -.334E-01 -.252E+01 -.278E+01   0.176E-04 0.969E-04 0.665E-03
   -.538E-01 -.153E+02 0.293E+02   0.912E-01 0.180E+02 -.320E+02   -.334E-01 -.252E+01 0.278E+01   0.178E-04 0.969E-04 -.664E-03
   0.161E+00 -.186E+02 -.360E+02   -.136E+00 0.201E+02 0.377E+02   -.431E-01 -.142E+01 -.160E+01   0.408E-04 -.143E-03 0.107E-02
   0.161E+00 -.186E+02 0.360E+02   -.136E+00 0.201E+02 -.377E+02   -.431E-01 -.142E+01 0.160E+01   0.402E-04 -.143E-03 -.108E-02
   -.161E+00 0.186E+02 0.360E+02   0.136E+00 -.201E+02 -.377E+02   0.433E-01 0.142E+01 0.160E+01   -.410E-04 0.142E-03 -.108E-02
   -.161E+00 0.186E+02 -.360E+02   0.136E+00 -.201E+02 0.377E+02   0.433E-01 0.142E+01 -.160E+01   -.407E-04 0.143E-03 0.108E-02
 -----------------------------------------------------------------------------------------------
   -.799E-04 0.170E-04 0.103E-05   0.466E-14 0.355E-14 -.711E-14   0.375E-03 -.112E-03 -.523E-06   -.411E-06 -.650E-06 0.190E-06
 
 
 POSITION                                       TOTAL-FORCE (eV/Angst)
 -----------------------------------------------------------------------------------
      0.79678      2.99415      1.52892        -0.004139     -0.155818      0.157240
      2.72583      0.73086      4.26367        -0.004139     -0.155818     -0.157240
      2.89357      4.09092     10.05626         0.004014      0.155859     -0.157339
      0.96452      1.82763      7.32150         0.004014      0.155860      0.157339
      0.79678      2.46555      4.06767        -0.017893      0.155107      0.172378
      2.72583      0.20226      1.72492        -0.017893      0.155107     -0.172377
      2.89357      0.09295      7.51751         0.018018     -0.155148     -0.172014
      0.96452      2.35624      9.86026         0.018017     -0.155148      0.172012
 -----------------------------------------------------------------------------------
    total drift:                                0.000295     -0.000096      0.000001


--------------------------------------------------------------------------------------------------------



  FREE ENERGIE OF THE ION-ELECTRON SYSTEM (eV)
  ---------------------------------------------------
  free  energy   TOTEN  =       -33.49252260 eV

  energy  without entropy=      -33.49252219  energy(sigma->0) =      -33.49252240
 


--------------------------------------------------------------------------------------------------------


    POTLOK:  cpu time      0.2259: real time      0.2267


--------------------------------------------------------------------------------------------------------


     LOOP+:  cpu time      7.9415: real time      7.9805
    4ORBIT:  cpu time      0.0000: real time      0.0000

 total amount of memory used by VASP MPI-rank0    37119. kBytes
=======================================================================

   base      :      30000. kBytes
   nonl-proj :       5406. kBytes
   fftplans  :        334. kBytes
   grid      :        503. kBytes
   one-center:         16. kBytes
   wavefun   :        860. kBytes
 
  
  
 General timing and accounting informations for this job:
 ========================================================
  
                  Total CPU time used (sec):        9.583
                            User time (sec):        9.320
                          System time (sec):        0.263
                         Elapsed time (sec):        9.883
  
                   Maximum memory used (kb):      177516.
                   Average memory used (kb):          N/A
  
                          Minor page faults:        17663
                          Major page faults:           69
                 Voluntary context switches:         1937
