 running  160 mpi-ranks, with    1 threads/rank, on   10 nodes
 distrk:  each k-point on   80 cores,    2 groups
 distr:  one band on    5 cores,   16 groups
 vasp.6.4.2 20Jul23 (build Oct 12 2023 10:31:02) complex                         
 POSCAR found type information on POSCAR GeSe
 POSCAR found :  2 types and       8 ions
 Reading from existing POTCAR
 scaLAPACK will be used
 Reading from existing POTCAR
 LDA part: xc-table for Pade appr. of Perdew
 POSCAR, INCAR and KPOINTS ok, starting setup
 FFT: planning ... GRIDC
 FFT: planning ... GRID_SOFT
 FFT: planning ... GRID
 WAVECAR not read
 entering main loop
       N       E                     dE             d eps       ncg     rms          rms(c)
DAV:   1     0.131129889079E+03    0.13113E+03   -0.12887E+04  2560   0.772E+02
DAV:   2    -0.252838007947E+02   -0.15641E+03   -0.15181E+03  3728   0.139E+02
DAV:   3    -0.340751884051E+02   -0.87914E+01   -0.87725E+01  3184   0.381E+01
DAV:   4    -0.341397583726E+02   -0.64570E-01   -0.64552E-01  3360   0.373E+00
DAV:   5    -0.341402375793E+02   -0.47921E-03   -0.47919E-03  3152   0.312E-01    0.644E+00
DAV:   6    -0.337613202094E+02    0.37892E+00   -0.79863E-01  3152   0.298E+00    0.406E+00
DAV:   7    -0.337526509972E+02    0.86692E-02   -0.22298E-01  3088   0.168E+00    0.128E+00
DAV:   8    -0.337513757856E+02    0.12752E-02   -0.22616E-02  3072   0.563E-01    0.182E-01
DAV:   9    -0.337518110393E+02   -0.43525E-03   -0.33838E-03  3328   0.257E-01    0.691E-02
DAV:  10    -0.337519418914E+02   -0.13085E-03   -0.28091E-04  3264   0.728E-02    0.253E-02
DAV:  11    -0.337519786454E+02   -0.36754E-04   -0.43952E-05  3296   0.298E-02    0.120E-02
DAV:  12    -0.337519801929E+02   -0.15474E-05   -0.57294E-06  3392   0.994E-03    0.308E-03
DAV:  13    -0.337519808745E+02   -0.68159E-06   -0.13417E-06  2112   0.511E-03
   1 F= -.33751981E+02 E0= -.33751967E+02  d E =-.276303E-04
