 vasp.6.4.2 20Jul23 (build Oct 12 2023 10:31:02) complex                         
 executed on              LinuxNV date 2024.11.02  01:19:42
 running  128 mpi-ranks, with    1 threads/rank, on    2 nodes
 distrk:  each k-point on   64 cores,    2 groups
 distr:  one band on NCORE=   8 cores,    8 groups


--------------------------------------------------------------------------------------------------------


 INCAR:
   ENCUT = 520.000000
   SIGMA = 0.050000
   EDIFF = 1.00e-06
   ALGO = N
   GGA = PE
   PREC = Accurate
   SYSTEM = 01_AOPT
   ICHARG = 0
   ISMEAR = 0
   ISPIN = 2
   ISTART = 1
   ISYM = -1
   KPAR = 2
   LORBIT = 11
   NBANDS = 220
   NELM = 100
   NELMIN = 5
   NPAR = 8
   LASPH = .TRUE.
   LCHARG = .FALSE.
   LWAVE = .FALSE.
   LREAL = .FALSE.

 POTCAR:    PAW_PBE Ge 05Jan2001                  
 POTCAR:    PAW_PBE Se 06Sep2000                  
 -----------------------------------------------------------------------------
|                                                                             |
|           W    W    AA    RRRRR   N    N  II  N    N   GGGG   !!!           |
|           W    W   A  A   R    R  NN   N  II  NN   N  G    G  !!!           |
|           W    W  A    A  R    R  N N  N  II  N N  N  G       !!!           |
|           W WW W  AAAAAA  RRRRR   N  N N  II  N  N N  G  GGG   !            |
|           WW  WW  A    A  R   R   N   NN  II  N   NN  G    G                |
|           W    W  A    A  R    R  N    N  II  N    N   GGGG   !!!           |
|                                                                             |
|     You use a magnetic or noncollinear calculation, but did not specify     |
|     the initial magnetic moment with the MAGMOM tag. Note that a            |
|     default of 1 will be used for all atoms. This ferromagnetic setup       |
|     may break the symmetry of the crystal, in particular it may rule        |
|     out finding an antiferromagnetic solution. Thence, we recommend         |
|     setting the initial magnetic moment manually or verifying carefully     |
|     that this magnetic setup is desired.                                    |
|                                                                             |
 -----------------------------------------------------------------------------

 POTCAR:    PAW_PBE Ge 05Jan2001                  
   VRHFIN =Ge: s2p2                                                                                 
   LEXCH  = PE                                                                                      
   EATOM  =   104.9960 eV,    7.7170 Ry                                                             
                                                                                                    
   TITEL  = PAW_PBE Ge 05Jan2001                                                                    
   LULTRA =        F    use ultrasoft PP ?                                                          
   IUNSCR =        1    unscreen: 0-lin 1-nonlin 2-no                                               
   RPACOR =    2.170    partial core radius                                                         
   POMASS =   72.610; ZVAL   =    4.000    mass and valenz                                          
   RCORE  =    2.300    outmost cutoff radius                                                       
   RWIGS  =    2.300; RWIGS  =    1.217    wigner-seitz radius (au A)                               
   ENMAX  =  173.807; ENMIN  =  130.355 eV                                                          
   ICORE  =        3    local potential                                                             
   LCOR   =        T    correct aug charges                                                         
   LPAW   =        T    paw PP                                                                      
   EAUG   =  385.843                                                                                
   DEXC   =    0.000                                                                                
   RMAX   =    2.342    core radius for proj-oper                                                   
   RAUG   =    1.300    factor for augmentation sphere                                              
   RDEP   =    2.318    radius for radial grids                                                     
   RDEPT  =    2.103    core radius for aug-charge                                                  
                                                                                                    
   Atomic configuration                                                                             
   10 entries                                                                                       
     n  l   j            E        occ.                                                              
     1  0  0.50    -10959.8463   2.0000                                                             
     2  0  0.50     -1371.6056   2.0000                                                             
     2  1  1.50     -1198.4791   6.0000                                                             
     3  0  0.50      -168.4733   2.0000                                                             
     3  1  1.50      -115.6019   6.0000                                                             
     3  2  2.50       -29.3106  10.0000                                                             
     4  0  0.50       -11.7309   2.0000                                                             
     4  1  0.50        -3.8952   2.0000                                                             
     4  2  1.50        -4.0817   0.0000                                                             
     4  3  2.50        -4.0817   0.0000                                                             
   Description                                                                                      
     l       E           TYP  RCUT    TYP  RCUT                                                     
     0    -11.7309493     23  2.300                                                                 
     0     -7.4578696     23  2.300                                                                 
     1     -3.8952261     23  2.300                                                                 
     1      6.1178114     23  2.300                                                                 
     2     -4.0817478     23  2.300                                                                 
     3     -1.3605826      7  2.300                                                                 
  local pseudopotential read in
  partial core-charges read in
  partial kinetic energy density read in
  atomic valenz-charges read in
  non local Contribution for L=            0  read in
    real space projection operators read in
  non local Contribution for L=            0  read in
    real space projection operators read in
  non local Contribution for L=            1  read in
    real space projection operators read in
  non local Contribution for L=            1  read in
    real space projection operators read in
  non local Contribution for L=            2  read in
    real space projection operators read in
    PAW grid and wavefunctions read in
 
   number of l-projection  operators is LMAX  =            5
   number of lm-projection operators is LMMAX =           13
 
 POTCAR:    PAW_PBE Se 06Sep2000                  
   VRHFIN =Se: s2p4                                                                                 
   LEXCH  = PE                                                                                      
   EATOM  =   257.1286 eV,   18.8984 Ry                                                             
                                                                                                    
   TITEL  = PAW_PBE Se 06Sep2000                                                                    
   LULTRA =        F    use ultrasoft PP ?                                                          
   IUNSCR =        1    unscreen: 0-lin 1-nonlin 2-no                                               
   RPACOR =    1.900    partial core radius                                                         
   POMASS =   78.960; ZVAL   =    6.000    mass and valenz                                          
   RCORE  =    2.100    outmost cutoff radius                                                       
   RWIGS  =    2.200; RWIGS  =    1.164    wigner-seitz radius (au A)                               
   ENMAX  =  211.555; ENMIN  =  158.666 eV                                                          
   ICORE  =        3    local potential                                                             
   LCOR   =        T    correct aug charges                                                         
   LPAW   =        T    paw PP                                                                      
   EAUG   =  446.842                                                                                
   DEXC   =    0.000                                                                                
   RMAX   =    2.147    core radius for proj-oper                                                   
   RAUG   =    1.300    factor for augmentation sphere                                              
   RDEP   =    2.177    radius for radial grids                                                     
   RDEPT  =    1.928    core radius for aug-charge                                                  
                                                                                                    
   Atomic configuration                                                                             
   10 entries                                                                                       
     n  l   j            E        occ.                                                              
     1  0  0.50    -12503.4787   2.0000                                                             
     2  0  0.50     -1606.9547   2.0000                                                             
     2  1  1.50     -1413.3140   6.0000                                                             
     3  0  0.50      -213.4885   2.0000                                                             
     3  1  1.50      -152.9538   6.0000                                                             
     3  2  2.50       -53.1221  10.0000                                                             
     4  0  0.50       -17.2865   2.0000                                                             
     4  1  0.50        -6.5110   4.0000                                                             
     4  2  2.50        -6.8029   0.0000                                                             
     4  3  2.50        -6.8029   0.0000                                                             
   Description                                                                                      
     l       E           TYP  RCUT    TYP  RCUT                                                     
     0    -17.2865377     23  2.100                                                                 
     0    -15.3094411     23  2.100                                                                 
     1     -6.5110275     23  2.100                                                                 
     1     -0.0695192     23  2.100                                                                 
     2     -6.8029130     23  2.100                                                                 
     3     -1.3605826      7  2.100                                                                 
  local pseudopotential read in
  partial core-charges read in
  partial kinetic energy density read in
  atomic valenz-charges read in
  non local Contribution for L=            0  read in
    real space projection operators read in
  non local Contribution for L=            0  read in
    real space projection operators read in
  non local Contribution for L=            1  read in
    real space projection operators read in
  non local Contribution for L=            1  read in
    real space projection operators read in
  non local Contribution for L=            2  read in
    real space projection operators read in
    PAW grid and wavefunctions read in
 
   number of l-projection  operators is LMAX  =            5
   number of lm-projection operators is LMMAX =           13
 
 -----------------------------------------------------------------------------
|                                                                             |
|               ----> ADVICE to this user running VASP <----                  |
|                                                                             |
|     You have a (more or less) 'large supercell' and for larger cells it     |
|     might be more efficient to use real-space projection operators.         |
|     Therefore, try LREAL= Auto in the INCAR file.                           |
|     Mind: For very accurate calculation, you might also keep the            |
|     reciprocal projection scheme (i.e. LREAL=.FALSE.).                      |
|                                                                             |
 -----------------------------------------------------------------------------

  PAW_PBE Ge 05Jan2001                  :
 energy of atom  1       EATOM= -104.9960
 kinetic energy error for atom=    0.0002 (will be added to EATOM!!)
  PAW_PBE Se 06Sep2000                  :
 energy of atom  2       EATOM= -257.1286
 kinetic energy error for atom=    0.0007 (will be added to EATOM!!)
 
 
 POSCAR: Ge Se
  positions in cartesian coordinates
  No initial velocities read in
 exchange correlation table for  LEXCH =        8
   RHO(1)=    0.500       N(1)  =     2000
   RHO(2)=  100.500       N(2)  =     4000
 


--------------------------------------------------------------------------------------------------------


 ion  position               nearest neighbor table
   1  0.028  0.026  0.126-  55 2.50  53 2.65  45 2.65
   2  0.245  0.876  0.369-  67 2.50  45 2.67  48 2.84
   3  0.568  0.205  0.373-  49 2.51  68 2.52
   4  0.553  0.512  0.381-  69 2.61  50 2.63  49 2.70
   5  0.589  0.839  0.356-  70 2.53  44 2.57  48 2.66  72 2.83
   6  0.902  0.190  0.373-  56 2.58  55 2.59  46 2.80
   7  0.908  0.538  0.347-  71 2.43  72 2.64  47 2.78
   8  0.895  0.851  0.356-  53 2.56  44 2.63  72 2.66
   9  0.075  0.139  0.640-  57 2.48  51 2.60  37 2.64
  10  0.053  0.510  0.637-  58 2.52  43 2.57  38 2.62
  11  0.062  0.827  0.653-  59 2.47  52 2.63  37 2.65
  12  0.387  0.159  0.630-  60 2.54  40 2.55  51 2.70
  13  0.381  0.502  0.628-  38 2.56  61 2.63  39 2.74
  14  0.396  0.824  0.640-  62 2.49  39 2.56  42 2.67
  15  0.714  0.167  0.621-  63 2.62  41 2.68  40 2.72
  16  0.736  0.470  0.613-  41 2.49  64 2.66  43 2.80
  17  0.230  0.544  0.372-  66 2.57  47 2.57  50 2.73
  18  0.221  0.183  0.372-  54 2.55  45 2.57  46 2.67
  19  0.721  0.830  0.633-  65 2.47  42 2.54  52 2.63
  20  0.876  0.666  0.875-  52 2.55  64 2.59  58 2.73
  21  0.894  0.998  0.867-  37 2.43  63 2.64  65 2.82
  22  0.074  0.368  0.129-  71 2.51  46 2.61  66 2.70
  23  0.102  0.700  0.146-  47 2.54  53 2.72  67 2.77
  24  0.424  0.037  0.142-  54 2.58  48 2.60  68 2.82
  25  0.399  0.338  0.135-  49 2.49  54 2.60  66 2.79
  26  0.733  0.032  0.120-  44 2.57  68 2.57  55 2.57
  27  0.739  0.367  0.149-  56 2.47  69 2.54
  28  0.407  0.686  0.136-  70 2.46  50 2.64  67 2.71
  29  0.225  0.315  0.882-  57 2.56  38 2.58  60 2.63
  30  0.229  0.658  0.859-  39 2.51  58 2.56  59 2.66
  31  0.238  0.979  0.869-  59 2.57  62 2.71  51 2.73
  32  0.550  0.334  0.854-  61 2.51  41 2.61  60 2.64
  33  0.582  0.651  0.868-  42 2.58  64 2.60  61 2.65
  34  0.565  0.980  0.871-  65 2.50  40 2.57  62 2.62
  35  0.923  0.325  0.869-  43 2.54  57 2.66
  36  0.728  0.694  0.138-  72 2.42  70 2.49  69 2.84
  37  0.925  0.989  0.651-  21 2.43   9 2.64  11 2.65
  38  0.218  0.382  0.662-  13 2.56  29 2.58  10 2.62
  39  0.251  0.679  0.635-  30 2.51  14 2.56  13 2.74
  40  0.545  0.031  0.648-  12 2.55  34 2.57  15 2.72
  41  0.585  0.338  0.622-  16 2.49  32 2.61  15 2.68
  42  0.568  0.696  0.641-  19 2.54  33 2.58  14 2.67
  43  0.924  0.350  0.642-  35 2.54  10 2.57  16 2.80
  44  0.734  0.986  0.345-  26 2.57   5 2.57   8 2.63
  45  0.092  0.024  0.353-  18 2.57   1 2.65   2 2.67
  46  0.072  0.337  0.362-  22 2.61  18 2.67   6 2.80
  47  0.076  0.682  0.372-  23 2.54  17 2.57   7 2.78
  48  0.441  0.992  0.370-  24 2.60   5 2.66   2 2.84
  49  0.422  0.342  0.358-  25 2.49   3 2.51   4 2.70
  50  0.411  0.667  0.373-   4 2.63  28 2.64  17 2.73
  51  0.235  0.005  0.626-   9 2.60  12 2.70  31 2.73
  52  0.890  0.705  0.650-  20 2.55  19 2.63  11 2.63
  53  0.933  0.836  0.130-   8 2.56   1 2.65  23 2.72
  54  0.270  0.175  0.149-  18 2.55  24 2.58  25 2.60
  55  0.887  0.167  0.142-   1 2.50  26 2.57   6 2.59
  56  0.765  0.344  0.368-  27 2.47   6 2.58
  57  0.075  0.176  0.860-   9 2.48  29 2.56  35 2.66
  58  0.058  0.545  0.861-  10 2.52  30 2.56  20 2.73
  59  0.099  0.827  0.871-  11 2.47  31 2.57  30 2.66
  60  0.394  0.191  0.856-  12 2.54  29 2.63  32 2.64
  61  0.435  0.498  0.857-  32 2.51  13 2.63  33 2.65
  62  0.407  0.842  0.864-  14 2.49  34 2.62  31 2.71
  63  0.760  0.161  0.851-  15 2.62  21 2.64
  64  0.737  0.514  0.847-  20 2.59  33 2.60  16 2.66
  65  0.720  0.855  0.854-  19 2.47  34 2.50  21 2.82
  66  0.245  0.500  0.146-  17 2.57  22 2.70  25 2.79
  67  0.265  0.850  0.146-   2 2.50  28 2.71  23 2.77
  68  0.595  0.183  0.149-   3 2.52  26 2.57  24 2.82
  69  0.594  0.510  0.150-  27 2.54   4 2.61  36 2.84
  70  0.564  0.807  0.133-  28 2.46  36 2.49   5 2.53
  71  0.925  0.503  0.132-   7 2.43  22 2.51
  72  0.758  0.688  0.353-  36 2.42   7 2.64   8 2.66   5 2.83
 

IMPORTANT INFORMATION: All symmetrisations will be switched off!
NOSYMM: (Re-)initialisation of all symmetry stuff for point group C_1.


----------------------------------------------------------------------------------------

                                     Primitive cell                                     

  volume of cell :    1727.4201

  direct lattice vectors                    reciprocal lattice vectors
    12.433788115 -0.000001076 -0.000002439     0.080426013  0.000000007  0.000000020
    -0.000001084 12.525615253  0.000001448     0.000000007  0.079836398 -0.000000012
    -0.000002801  0.000001651 11.091631524     0.000000018 -0.000000010  0.090158062

  length of vectors
    12.433788115 12.525615253 11.091631524     0.080426013  0.079836398  0.090158062

  position of ions in fractional coordinates (direct lattice)
     0.027530489  0.025797667  0.125886178
     0.245265934  0.876227562  0.368915326
     0.567753398  0.205117513  0.372989678
     0.553130399  0.512273244  0.380614254
     0.589342986  0.838867048  0.356252046
     0.902104286  0.189651852  0.373032017
     0.907832013  0.538209854  0.346931426
     0.895243683  0.850897539  0.356162013
     0.074748440  0.138606735  0.640041895
     0.052964079  0.510345015  0.637264324
     0.061742003  0.826576862  0.652528097
     0.386811630  0.159454813  0.629914287
     0.381079388  0.501949361  0.627817345
     0.396215193  0.824062917  0.640459729
     0.714224601  0.167159912  0.620791136
     0.735665509  0.469968212  0.612777163
     0.229696449  0.543552664  0.371915613
     0.220534609  0.183468122  0.371963725
     0.720943871  0.830073394  0.632704969
     0.875908749  0.665774733  0.875241952
     0.894087803  0.998340986  0.867275927
     0.074188492  0.367745647  0.129287294
     0.102413851  0.699803989  0.146003240
     0.423560005  0.036721310  0.141685402
     0.398930642  0.337609643  0.135317927
     0.732784529  0.031563846  0.119507437
     0.738924740  0.367423340  0.149235224
     0.407090199  0.686326032  0.135890622
     0.225168062  0.314805322  0.882182232
     0.229282533  0.658432468  0.859029263
     0.238482201  0.978606759  0.869447780
     0.549910086  0.333604149  0.854246004
     0.581755756  0.651232331  0.868087210
     0.564557756  0.980169880  0.871366778
     0.922985460  0.324767556  0.868821777
     0.727973582  0.693624077  0.137625867
     0.925171176  0.989000698  0.651415894
     0.217562481  0.382210709  0.662178012
     0.251344839  0.678751446  0.635008103
     0.545251189  0.031238625  0.648242415
     0.585489294  0.338368155  0.622189669
     0.568180071  0.695833673  0.641110410
     0.924350091  0.349954386  0.641761754
     0.733683205  0.985547848  0.345042878
     0.091674028  0.024352982  0.353477957
     0.071759812  0.336666866  0.361725447
     0.076413059  0.681766249  0.372013879
     0.441380086  0.991945031  0.369649980
     0.421643558  0.342356051  0.357909979
     0.410852123  0.666966396  0.372685803
     0.234706558  0.005270898  0.625556039
     0.889693489  0.704567347  0.650386427
     0.933246249  0.836410288  0.129959071
     0.270152972  0.174977403  0.149265722
     0.887023694  0.167336606  0.141643241
     0.764665596  0.344242547  0.368133158
     0.075237231  0.176001669  0.859911490
     0.057907043  0.544523084  0.861107966
     0.099016330  0.826744049  0.870931394
     0.394115211  0.190566151  0.855733632
     0.435221973  0.498146216  0.856662007
     0.407247381  0.841548242  0.863918015
     0.760345380  0.161194383  0.850945839
     0.736948985  0.513871206  0.847311856
     0.719815283  0.854720102  0.854062874
     0.245237574  0.500036615  0.145821218
     0.265408786  0.850270769  0.146498098
     0.595469316  0.182870130  0.149208963
     0.593926875  0.510099161  0.149533982
     0.563504678  0.806586758  0.132796597
     0.924659700  0.502523474  0.132401632
     0.758112601  0.687825402  0.352896222

  ion indices of the primitive-cell ions
   primitive index   ion index
                 1           1
                 2           2
                 3           3
                 4           4
                 5           5
                 6           6
                 7           7
                 8           8
                 9           9
                10          10
                11          11
                12          12
                13          13
                14          14
                15          15
                16          16
                17          17
                18          18
                19          19
                20          20
                21          21
                22          22
                23          23
                24          24
                25          25
                26          26
                27          27
                28          28
                29          29
                30          30
                31          31
                32          32
                33          33
                34          34
                35          35
                36          36
                37          37
                38          38
                39          39
                40          40
                41          41
                42          42
                43          43
                44          44
                45          45
                46          46
                47          47
                48          48
                49          49
                50          50
                51          51
                52          52
                53          53
                54          54
                55          55
                56          56
                57          57
                58          58
                59          59
                60          60
                61          61
                62          62
                63          63
                64          64
                65          65
                66          66
                67          67
                68          68
                69          69
                70          70
                71          71
                72          72

----------------------------------------------------------------------------------------

 
 
 KPOINTS: KPOINTS created by Atomic Simulation Env

Automatic generation of k-mesh.
 Grid dimensions read from file:
 generate k-points for:    2    2    2

 Generating k-lattice:

  Cartesian coordinates                     Fractional coordinates (reciprocal lattice)
     0.040213006  0.000000003  0.000000010     0.500000000 -0.000000000 -0.000000000
     0.000000003  0.039918199 -0.000000006    -0.000000000  0.500000000  0.000000000
     0.000000009 -0.000000005  0.045079031     0.000000000  0.000000000  0.500000000

  Length of vectors
     0.040213006  0.039918199  0.045079031

  Shift w.r.t. Gamma in fractional coordinates (k-lattice)
     0.000000000  0.000000000  0.000000000

 
 Subroutine IBZKPT returns following result:
 ===========================================
 
 Found      8 irreducible k-points:
 
 Following reciprocal coordinates:
            Coordinates               Weight
  0.000000  0.000000  0.000000      1.000000
  0.500000  0.000000  0.000000      1.000000
  0.000000  0.500000  0.000000      1.000000
  0.500000  0.500000  0.000000      1.000000
  0.000000  0.000000  0.500000      1.000000
  0.500000  0.000000  0.500000      1.000000
  0.000000  0.500000  0.500000      1.000000
  0.500000  0.500000  0.500000      1.000000
 
 Following cartesian coordinates:
            Coordinates               Weight
  0.000000  0.000000  0.000000      1.000000
  0.040213  0.000000  0.000000      1.000000
  0.000000  0.039918 -0.000000      1.000000
  0.040213  0.039918  0.000000      1.000000
  0.000000 -0.000000  0.045079      1.000000
  0.040213 -0.000000  0.045079      1.000000
  0.000000  0.039918  0.045079      1.000000
  0.040213  0.039918  0.045079      1.000000
 
 -----------------------------------------------------------------------------
|                                                                             |
|           W    W    AA    RRRRR   N    N  II  N    N   GGGG   !!!           |
|           W    W   A  A   R    R  NN   N  II  NN   N  G    G  !!!           |
|           W    W  A    A  R    R  N N  N  II  N N  N  G       !!!           |
|           W WW W  AAAAAA  RRRRR   N  N N  II  N  N N  G  GGG   !            |
|           WW  WW  A    A  R   R   N   NN  II  N   NN  G    G                |
|           W    W  A    A  R    R  N    N  II  N    N   GGGG   !!!           |
|                                                                             |
|     The number of bands has been changed from the values supplied in        |
|     the INCAR file. This is a result of running the parallel version.       |
|     The orbitals not found in the WAVECAR file will be initialized with     |
|     random numbers, which is usually adequate. For correlated               |
|     calculations, however, you should redo the groundstate calculation.     |
|     I found NBANDS = 220. Now, NBANDS = 224.                                |
|                                                                             |
 -----------------------------------------------------------------------------



--------------------------------------------------------------------------------------------------------




 Dimension of arrays:
   k-points           NKPTS =      8   k-points in BZ     NKDIM =      8   number of bands    NBANDS=    224
   number of dos      NEDOS =    301   number of ions     NIONS =     72
   non local maximal  LDIM  =      5   non local SUM 2l+1 LMDIM =     13
   total plane-waves  NPLWV = 774144
   max r-space proj   IRMAX =      1   max aug-charges    IRDMAX=  24554
   dimension x,y,z NGX =    96 NGY =   96 NGZ =   84
   dimension x,y,z NGXF=   192 NGYF=  192 NGZF=  168
   support grid    NGXF=   192 NGYF=  192 NGZF=  168
   ions per type =              36  36
   NGX,Y,Z   is equivalent  to a cutoff of  12.84, 12.74, 12.59 a.u.
   NGXF,Y,Z  is equivalent  to a cutoff of  25.67, 25.48, 25.18 a.u.

 SYSTEM =  01_AOPT                                 
 POSCAR =  Ge Se                                   

 Startparameter for this run:
   NWRITE =      2    write-flag & timer
   PREC   = accura    normal or accurate (medium, high low for compatibility)
   ISTART =      0    job   : 0-new  1-cont  2-samecut
   ICHARG =      2    charge: 1-file 2-atom 10-const
   ISPIN  =      2    spin polarized calculation?
   LNONCOLLINEAR =      F non collinear calculations
   LSORBIT =      F    spin-orbit coupling
   INIWAV =      1    electr: 0-lowe 1-rand  2-diag
   LASPH  =      T    aspherical Exc in radial PAW
 Electronic Relaxation 1
   ENCUT  =  520.0 eV  38.22 Ry    6.18 a.u.  23.12 23.29 20.62*2*pi/ulx,y,z
   ENINI  =  520.0     initial cutoff
   ENAUG  =  446.8 eV  augmentation charge cutoff
   NELM   =    100;   NELMIN=  5; NELMDL=  0     # of ELM steps 
   EDIFF  = 0.1E-05   stopping-criterion for ELM
   LREAL  =      F    real-space projection
   NLSPLINE    = F    spline interpolate recip. space projectors
   LCOMPAT=      F    compatible to vasp.4.4
   GGA_COMPAT  = T    GGA compatible to vasp.4.4-vasp.4.6
   LMAXPAW     = -100 max onsite density
   LMAXMIX     =    2 max onsite mixed and CHGCAR
   VOSKOWN=      0    Vosko Wilk Nusair interpolation
   ROPT   =    0.00000   0.00000
 Ionic relaxation
   EDIFFG = 0.1E-04   stopping-criterion for IOM
   NSW    =      0    number of steps for IOM
   NBLOCK =      1;   KBLOCK =      1    inner block; outer block 
   IBRION =     -1    ionic relax: 0-MD 1-quasi-New 2-CG
   NFREE  =      0    steps in history (QN), initial steepest desc. (CG)
   ISIF   =      2    stress and relaxation
   IWAVPR =     10    prediction:  0-non 1-charg 2-wave 3-comb
   ISYM   =     -1    0-nonsym 1-usesym 2-fastsym
   LCORR  =      T    Harris-Foulkes like correction to forces

   POTIM  = 0.5000    time-step for ionic-motion
   TEIN   =    0.0    initial temperature
   TEBEG  =    0.0;   TEEND  =   0.0 temperature during run
   SMASS  =  -3.00    Nose mass-parameter (am)
   estimated Nose-frequenzy (Omega)   =  0.10E-29 period in steps = 0.13E+47 mass=  -0.353E-26a.u.
   SCALEE = 1.0000    scale energy and forces
   NPACO  =    256;   APACO  = 10.0  distance and # of slots for P.C.
   PSTRESS=    0.0 pullay stress

  Mass of Ions in am
   POMASS =  72.61 78.96
  Ionic Valenz
   ZVAL   =   4.00  6.00
  Atomic Wigner-Seitz radii
   RWIGS  =  -1.00 -1.00
  virtual crystal weights 
   VCA    =   1.00  1.00
   NELECT =     360.0000    total number of electrons
   NUPDOWN=      -1.0000    fix difference up-down

 DOS related values:
   EMIN   =  10.00;   EMAX   =-10.00  energy-range for DOS
   EFERMI =   0.00;   METHOD = LEGACY      
   ISMEAR =     0;   SIGMA  =   0.05  broadening in eV -4-tet -1-fermi 0-gaus

 Electronic relaxation 2 (details)
   IALGO  =     38    algorithm
   LDIAG  =      T    sub-space diagonalisation (order eigenvalues)
   LSUBROT=      F    optimize rotation matrix (better conditioning)
   TURBO    =      0    0=normal 1=particle mesh
   IRESTART =      0    0=no restart 2=restart with 2 vectors
   NREBOOT  =      0    no. of reboots
   NMIN     =      0    reboot dimension
   EREF     =   0.00    reference energy to select bands
   IMIX   =      4    mixing-type and parameters
     AMIX     =   0.40;   BMIX     =  1.00
     AMIX_MAG =   1.60;   BMIX_MAG =  1.00
     AMIN     =   0.10
     WC   =   100.;   INIMIX=   1;  MIXPRE=   1;  MAXMIX= -45

 Intra band minimization:
   WEIMIN = 0.0000     energy-eigenvalue tresh-hold
   EBREAK =  0.11E-08  absolut break condition
   DEPER  =   0.30     relativ break condition  

   TIME   =   0.40     timestep for ELM

  volume/ion in A,a.u.               =      23.99       161.91
  Fermi-wavevector in a.u.,A,eV,Ry     =   0.970606  1.834180 12.817725  0.942076
  Thomas-Fermi vector in A             =   2.100755
 
 Write flags
   LWAVE        =      F    write WAVECAR
   LDOWNSAMPLE  =      F    k-point downsampling of WAVECAR
   LCHARG       =      F    write CHGCAR
   LVTOT        =      F    write LOCPOT, total local potential
   LVHAR        =      F    write LOCPOT, Hartree potential only
   LELF         =      F    write electronic localiz. function (ELF)
   LORBIT       =     11    0 simple, 1 ext, 2 COOP (PROOUT), +10 PAW based schemes


 Dipole corrections
   LMONO  =      F    monopole corrections only (constant potential shift)
   LDIPOL =      F    correct potential (dipole corrections)
   IDIPOL =      0    1-x, 2-y, 3-z, 4-all directions 
   EPSILON=  1.0000000 bulk dielectric constant

 Exchange correlation treatment:
   GGA     =    PE    GGA type
   LEXCH   =     8    internal setting for exchange type
   LIBXC   =     F    Libxc                    
   VOSKOWN =     0    Vosko Wilk Nusair interpolation
   LHFCALC =     F    Hartree Fock is set to
   LHFONE  =     F    Hartree Fock one center treatment
   AEXX    =    0.0000 exact exchange contribution

 Linear response parameters
   LEPSILON=     F    determine dielectric tensor
   LRPA    =     F    only Hartree local field effects (RPA)
   LNABLA  =     F    use nabla operator in PAW spheres
   LVEL    =     F    velocity operator in full k-point grid
   CSHIFT  =0.1000    complex shift for real part using Kramers Kronig
   OMEGAMAX=  -1.0    maximum frequency
   DEG_THRESHOLD= 0.2000000E-02 threshold for treating states as degnerate
   RTIME   =   -0.100 relaxation time in fs
  (WPLASMAI=    0.000 imaginary part of plasma frequency in eV, 0.658/RTIME)
   DFIELD  = 0.0000000 0.0000000 0.0000000 field for delta impulse in time
 
  Optional k-point grid parameters
   LKPOINTS_OPT  =     F    use optional k-point grid
   KPOINTS_OPT_MODE=     1    mode for optional k-point grid
 
 Orbital magnetization related:
   ORBITALMAG=     F  switch on orbital magnetization
   LCHIMAG   =     F  perturbation theory with respect to B field
   DQ        =  0.001000  dq finite difference perturbation B field
   LLRAUG    =     F  two centre corrections for induced B field
   LBONE     =     F  B-component reconstruction in AE one-centre
   LVGVCALC  =     T  calculate vGv susceptibility
   LVGVAPPL  =     F  apply vGv susceptibility instead of pGv for G=0

 Random number generation:
   RANDOM_GENERATOR = DEFAULT
   PCG_SEED         = not used


--------------------------------------------------------------------------------------------------------


 Static calculation
 charge density and potential will be updated during run
 spin polarized calculation
 Variant of blocked Davidson
 Davidson routine will perform the subspace rotation
 perform sub-space diagonalisation
    after iterative eigenvector-optimisation
 modified Broyden-mixing scheme, WC =      100.0
 initial mixing is a Kerker type mixing with AMIX =  0.4000 and BMIX =      1.0000
 Hartree-type preconditioning will be used
 using additional bands            44
 reciprocal scheme for non local part
 use partial core corrections
 calculate Harris-corrections to forces 
   (improved forces if not selfconsistent)
 use gradient corrections 
 use of overlap-Matrix (Vanderbilt PP)
 Gauss-broadening in eV      SIGMA  =   0.05


--------------------------------------------------------------------------------------------------------


  energy-cutoff  :      520.00
  volume of cell :     1727.42
      direct lattice vectors                 reciprocal lattice vectors
    12.433788115 -0.000001076 -0.000002439     0.080426013  0.000000007  0.000000020
    -0.000001084 12.525615253  0.000001448     0.000000007  0.079836398 -0.000000012
    -0.000002801  0.000001651 11.091631524     0.000000018 -0.000000010  0.090158062

  length of vectors
    12.433788115 12.525615253 11.091631524     0.080426013  0.079836398  0.090158062


 
 k-points in units of 2pi/SCALE and weight: KPOINTS created by Atomic Simulation Env
   0.00000000  0.00000000  0.00000000       0.125
   0.04021301  0.00000000  0.00000001       0.125
   0.00000000  0.03991820 -0.00000001       0.125
   0.04021301  0.03991820  0.00000000       0.125
   0.00000001 -0.00000001  0.04507903       0.125
   0.04021302 -0.00000000  0.04507904       0.125
   0.00000001  0.03991819  0.04507902       0.125
   0.04021302  0.03991820  0.04507904       0.125
 
 k-points in reciprocal lattice and weights: KPOINTS created by Atomic Simulation Env
   0.00000000  0.00000000  0.00000000       0.125
   0.50000000  0.00000000  0.00000000       0.125
   0.00000000  0.50000000  0.00000000       0.125
   0.50000000  0.50000000  0.00000000       0.125
   0.00000000  0.00000000  0.50000000       0.125
   0.50000000  0.00000000  0.50000000       0.125
   0.00000000  0.50000000  0.50000000       0.125
   0.50000000  0.50000000  0.50000000       0.125
 
 position of ions in fractional coordinates (direct lattice) 
   0.02753049  0.02579767  0.12588618
   0.24526593  0.87622756  0.36891533
   0.56775340  0.20511751  0.37298968
   0.55313040  0.51227324  0.38061425
   0.58934299  0.83886705  0.35625205
   0.90210429  0.18965185  0.37303202
   0.90783201  0.53820985  0.34693143
   0.89524368  0.85089754  0.35616201
   0.07474844  0.13860674  0.64004190
   0.05296408  0.51034501  0.63726432
   0.06174200  0.82657686  0.65252810
   0.38681163  0.15945481  0.62991429
   0.38107939  0.50194936  0.62781735
   0.39621519  0.82406292  0.64045973
   0.71422460  0.16715991  0.62079114
   0.73566551  0.46996821  0.61277716
   0.22969645  0.54355266  0.37191561
   0.22053461  0.18346812  0.37196373
   0.72094387  0.83007339  0.63270497
   0.87590875  0.66577473  0.87524195
   0.89408780  0.99834099  0.86727593
   0.07418849  0.36774565  0.12928729
   0.10241385  0.69980399  0.14600324
   0.42356001  0.03672131  0.14168540
   0.39893064  0.33760964  0.13531793
   0.73278453  0.03156385  0.11950744
   0.73892474  0.36742334  0.14923522
   0.40709020  0.68632603  0.13589062
   0.22516806  0.31480532  0.88218223
   0.22928253  0.65843247  0.85902926
   0.23848220  0.97860676  0.86944778
   0.54991009  0.33360415  0.85424600
   0.58175576  0.65123233  0.86808721
   0.56455776  0.98016988  0.87136678
   0.92298546  0.32476756  0.86882178
   0.72797358  0.69362408  0.13762587
   0.92517118  0.98900070  0.65141589
   0.21756248  0.38221071  0.66217801
   0.25134484  0.67875145  0.63500810
   0.54525119  0.03123863  0.64824242
   0.58548929  0.33836816  0.62218967
   0.56818007  0.69583367  0.64111041
   0.92435009  0.34995439  0.64176175
   0.73368320  0.98554785  0.34504288
   0.09167403  0.02435298  0.35347796
   0.07175981  0.33666687  0.36172545
   0.07641306  0.68176625  0.37201388
   0.44138009  0.99194503  0.36964998
   0.42164356  0.34235605  0.35790998
   0.41085212  0.66696640  0.37268580
   0.23470656  0.00527090  0.62555604
   0.88969349  0.70456735  0.65038643
   0.93324625  0.83641029  0.12995907
   0.27015297  0.17497740  0.14926572
   0.88702369  0.16733661  0.14164324
   0.76466560  0.34424255  0.36813316
   0.07523723  0.17600167  0.85991149
   0.05790704  0.54452308  0.86110797
   0.09901633  0.82674405  0.87093139
   0.39411521  0.19056615  0.85573363
   0.43522197  0.49814622  0.85666201
   0.40724738  0.84154824  0.86391802
   0.76034538  0.16119438  0.85094584
   0.73694899  0.51387121  0.84731186
   0.71981528  0.85472010  0.85406287
   0.24523757  0.50003661  0.14582122
   0.26540879  0.85027077  0.14649810
   0.59546932  0.18287013  0.14920896
   0.59392688  0.51009916  0.14953398
   0.56350468  0.80658676  0.13279660
   0.92465970  0.50252347  0.13240163
   0.75811260  0.68782540  0.35289622
 
 position of ions in cartesian coordinates  (Angst):
   0.34230789  0.32313183  1.39628307
   3.04958267 10.97528966  4.09187353
   7.05932418  2.56922305  4.13706298
   6.87750456  6.41653759  4.22163246
   7.32776390 10.50732584  3.95141620
  11.21657230  2.37550577  4.13753176
  11.28778934  6.74140916  3.84803411
  11.13126835 10.65801482  3.95041686
   0.92940432  1.73613561  7.09910888
   0.65854180  6.39238629  7.06830168
   0.76768426 10.35338476  7.23760226
   4.80953191  1.99727026  6.98677645
   4.73825806  6.28722520  6.96351846
   4.92645308 10.32189568  7.10374355
   8.88051543  2.09378100  6.88558504
   9.14710684  5.88664123  6.79669739
   2.85599534  6.80833191  4.12515117
   2.74207936  2.29805148  4.12568431
   8.96406067 10.39718023  7.01772982
  10.89086062  8.33923865  9.70786005
  11.11689479 12.50483556  9.61950428
   0.92244323  4.60624062  1.43400737
   1.27339096  8.76547565  1.61941491
   5.26645492  0.45995677  1.57152129
   4.96021833  4.22876829  1.50089610
   9.11128719  0.39535600  1.32553071
   9.18763284  4.60220285  1.65526084
   5.06167215  8.59665560  1.50724871
   2.79968917  3.94313155  9.78484016
   2.85084732  8.24727293  9.52803645
   2.96523366 12.25765293  9.64359524
   6.83746274  4.17859804  9.47498104
   7.23342467  8.15708643  9.62850298
   7.01958801 12.27723163  9.66487926
  11.47620286  4.06791390  9.63664923
   9.05146813  8.68806776  1.52649463
  11.50337948 12.38784230  7.22526424
   2.70512352  4.78742514  7.34463454
   3.12516596  8.50178024  7.04327626
   6.77953590  0.39128348  7.19006472
   7.27984772  4.23826973  6.90109761
   7.06462806  8.71574531  7.11096006
  11.49317100  4.38339406  7.11818315
   9.12245947 12.34459293  3.82708810
   1.13985442  0.30503656  3.92064706
   0.89224491  4.21696016  4.01212568
   0.95010201  8.53954226  4.12624166
   5.48802436 12.42472195  4.10002174
   5.24262529  4.28822031  3.96980507
   5.10844648  8.35416463  4.13369357
   2.91828985  0.06602202  6.93843651
  11.06225775  8.82513962  7.21384544
  11.60378485 10.47655267  1.44145706
   3.35902420  2.19169958  1.65559998
  11.02906409  2.09599322  1.57105271
   9.50768860  4.31184948  4.08319597
   0.93548118  2.20453052  9.53782146
   0.72000090  6.82048800  9.55109290
   1.23114473 10.35547920  9.66005106
   4.90034243  2.38695927  9.49148144
   5.41145485  6.23958878  9.50177898
   5.06362431 10.54091048  9.58226052
   9.45397080  2.01905941  9.43837607
   9.16306460  6.43655362  9.39806984
   8.95002740 10.70589578  9.47295018
   3.04923108  6.26326623  1.61739534
   3.30003528 10.65016447  1.62490350
   7.40393869  2.29056050  1.65496965
   7.38475995  6.38930544  1.65857512
   7.00649652 10.10299501  1.47293071
  11.49702187  6.29441491  1.46854859
   9.42620972  8.61543611  3.91419401
 


--------------------------------------------------------------------------------------------------------


 k-point   1 :   0.0000 0.0000 0.0000  plane waves:   46481
 k-point   2 :   0.5000 0.0000 0.0000  plane waves:   46562
 k-point   3 :   0.0000 0.5000 0.0000  plane waves:   46502
 k-point   4 :   0.5000 0.5000 0.0000  plane waves:   46532
 k-point   5 :   0.0000 0.0000 0.5000  plane waves:   46582
 k-point   6 :   0.5000 0.0000 0.5000  plane waves:   46500
 k-point   7 :   0.0000 0.5000 0.5000  plane waves:   46576
 k-point   8 :   0.5000 0.5000 0.5000  plane waves:   46480

 maximum and minimum number of plane-waves per node :      5844     5770

 maximum number of plane-waves:     46582
 maximum index in each direction: 
   IXMAX=   23   IYMAX=   23   IZMAX=   20
   IXMIN=  -23   IYMIN=  -23   IZMIN=  -21


 parallel 3D FFT for wavefunctions:
    minimum data exchange during FFTs selected (reduces bandwidth)
 parallel 3D FFT for charge:
    minimum data exchange during FFTs selected (reduces bandwidth)


 total amount of memory used by VASP MPI-rank0   111085. kBytes
=======================================================================

   base      :      30000. kBytes
   nonl-proj :      16445. kBytes
   fftplans  :       6180. kBytes
   grid      :      15593. kBytes
   one-center:        146. kBytes
   wavefun   :      42721. kBytes
 
     INWAV:  cpu time      0.0000: real time      0.0001
 Broyden mixing: mesh for mixing (old mesh)
   NGX = 47   NGY = 47   NGZ = 41
  (NGX  =192   NGY  =192   NGZ  =168)
  gives a total of  90569 points

 initial charge density was supplied:
 charge density of overlapping atoms calculated
 number of electron     360.0000000 magnetization      72.0000000
 keeping initial charge density in first step


--------------------------------------------------------------------------------------------------------


 Maximum index for augmentation-charges           894 (set IRDMAX)


--------------------------------------------------------------------------------------------------------


 First call to EWALD:  gamma=   0.148
 Maximum number of real-space cells 3x 3x 3
 Maximum number of reciprocal cells 3x 3x 3

    FEWALD:  cpu time      0.0079: real time      0.0079


--------------------------------------- Ionic step        1  -------------------------------------------




--------------------------------------- Iteration      1(   1)  ---------------------------------------


    POTLOK:  cpu time      0.1396: real time      0.1406
    SETDIJ:  cpu time      0.5976: real time      0.5993
     EDDAV:  cpu time      8.6732: real time      8.7177
       DOS:  cpu time      0.0014: real time      0.0014
    --------------------------------------------
      LOOP:  cpu time      9.4119: real time      9.4589

 eigenvalue-minimisations  :  7168
 total energy-change (2. order) : 0.1825919E+04  (-0.1418443E+05)
 number of electron     360.0000000 magnetization      72.0000000
 augmentation part      360.0000000 magnetization      72.0000000

 Free energy of the ion-electron system (eV)
  ---------------------------------------------------
  alpha Z        PSCENC =       794.53752929
  Ewald energy   TEWEN  =    -12776.26074682
  -Hartree energ DENC   =     -1173.77824871
  -exchange      EXHF   =         0.00000000
  -V(xc)+E(xc)   XCENC  =      -292.79723643
  PAW double counting   =     10738.42099860    -9719.93139476
  entropy T*S    EENTRO =        -0.01875189
  eigenvalues    EBANDS =      1219.29539993
  atomic energy  EATOM  =     13036.45147835
  Solvation  Ediel_sol  =         0.00000000
  ---------------------------------------------------
  free energy    TOTEN  =      1825.91902756 eV

  energy without entropy =     1825.93777945  energy(sigma->0) =     1825.92840351


--------------------------------------------------------------------------------------------------------




--------------------------------------- Iteration      1(   2)  ---------------------------------------


     EDDAV:  cpu time      9.7832: real time      9.8346
       DOS:  cpu time      0.0014: real time      0.0014
    --------------------------------------------
      LOOP:  cpu time      9.7845: real time      9.8360

 eigenvalue-minimisations  :  8496
 total energy-change (2. order) :-0.1888900E+04  (-0.1814600E+04)
 number of electron     360.0000000 magnetization      72.0000000
 augmentation part      360.0000000 magnetization      72.0000000

 Free energy of the ion-electron system (eV)
  ---------------------------------------------------
  alpha Z        PSCENC =       794.53752929
  Ewald energy   TEWEN  =    -12776.26074682
  -Hartree energ DENC   =     -1173.77824871
  -exchange      EXHF   =         0.00000000
  -V(xc)+E(xc)   XCENC  =      -292.79723643
  PAW double counting   =     10738.42099860    -9719.93139476
  entropy T*S    EENTRO =        -0.01998986
  eigenvalues    EBANDS =      -669.60297174
  atomic energy  EATOM  =     13036.45147835
  Solvation  Ediel_sol  =         0.00000000
  ---------------------------------------------------
  free energy    TOTEN  =       -62.98058208 eV

  energy without entropy =      -62.96059222  energy(sigma->0) =      -62.97058715


--------------------------------------------------------------------------------------------------------




--------------------------------------- Iteration      1(   3)  ---------------------------------------


     EDDAV:  cpu time      9.8481: real time      9.8961
       DOS:  cpu time      0.0012: real time      0.0012
    --------------------------------------------
      LOOP:  cpu time      9.8493: real time      9.8973

 eigenvalue-minimisations  :  8576
 total energy-change (2. order) :-0.2183680E+03  (-0.2125243E+03)
 number of electron     360.0000000 magnetization      72.0000000
 augmentation part      360.0000000 magnetization      72.0000000

 Free energy of the ion-electron system (eV)
  ---------------------------------------------------
  alpha Z        PSCENC =       794.53752929
  Ewald energy   TEWEN  =    -12776.26074682
  -Hartree energ DENC   =     -1173.77824871
  -exchange      EXHF   =         0.00000000
  -V(xc)+E(xc)   XCENC  =      -292.79723643
  PAW double counting   =     10738.42099860    -9719.93139476
  entropy T*S    EENTRO =        -0.00000727
  eigenvalues    EBANDS =      -887.99094149
  atomic energy  EATOM  =     13036.45147835
  Solvation  Ediel_sol  =         0.00000000
  ---------------------------------------------------
  free energy    TOTEN  =      -281.34856924 eV

  energy without entropy =     -281.34856197  energy(sigma->0) =     -281.34856561


--------------------------------------------------------------------------------------------------------




--------------------------------------- Iteration      1(   4)  ---------------------------------------


     EDDAV:  cpu time      9.9440: real time      9.9907
       DOS:  cpu time      0.0018: real time      0.0018
    --------------------------------------------
      LOOP:  cpu time      9.9458: real time      9.9925

 eigenvalue-minimisations  :  8680
 total energy-change (2. order) :-0.7989943E+01  (-0.7894897E+01)
 number of electron     360.0000000 magnetization      72.0000000
 augmentation part      360.0000000 magnetization      72.0000000

 Free energy of the ion-electron system (eV)
  ---------------------------------------------------
  alpha Z        PSCENC =       794.53752929
  Ewald energy   TEWEN  =    -12776.26074682
  -Hartree energ DENC   =     -1173.77824871
  -exchange      EXHF   =         0.00000000
  -V(xc)+E(xc)   XCENC  =      -292.79723643
  PAW double counting   =     10738.42099860    -9719.93139476
  entropy T*S    EENTRO =        -0.00000007
  eigenvalues    EBANDS =      -895.98089171
  atomic energy  EATOM  =     13036.45147835
  Solvation  Ediel_sol  =         0.00000000
  ---------------------------------------------------
  free energy    TOTEN  =      -289.33851226 eV

  energy without entropy =     -289.33851219  energy(sigma->0) =     -289.33851222


--------------------------------------------------------------------------------------------------------




--------------------------------------- Iteration      1(   5)  ---------------------------------------


     EDDAV:  cpu time     10.2604: real time     10.3158
       DOS:  cpu time      0.0009: real time      0.0009
    CHARGE:  cpu time      0.4235: real time      0.4254
    MIXING:  cpu time      0.0072: real time      0.0073
    --------------------------------------------
      LOOP:  cpu time     10.6920: real time     10.7494

 eigenvalue-minimisations  :  9072
 total energy-change (2. order) :-0.3177649E+00  (-0.3169377E+00)
 number of electron     359.9999999 magnetization      48.8400148
 augmentation part      -66.8647795 magnetization      49.0509981

 Broyden mixing:
  rms(total) = 0.29650E+01    rms(broyden)= 0.29650E+01
  rms(prec ) = 0.31083E+01
  weight for this iteration     100.00

 Free energy of the ion-electron system (eV)
  ---------------------------------------------------
  alpha Z        PSCENC =       794.53752929
  Ewald energy   TEWEN  =    -12776.26074682
  -Hartree energ DENC   =     -1173.77824871
  -exchange      EXHF   =         0.00000000
  -V(xc)+E(xc)   XCENC  =      -292.79723643
  PAW double counting   =     10738.42099860    -9719.93139476
  entropy T*S    EENTRO =        -0.00000009
  eigenvalues    EBANDS =      -896.29865657
  atomic energy  EATOM  =     13036.45147835
  Solvation  Ediel_sol  =         0.00000000
  ---------------------------------------------------
  free energy    TOTEN  =      -289.65627714 eV

  energy without entropy =     -289.65627705  energy(sigma->0) =     -289.65627709


--------------------------------------------------------------------------------------------------------




--------------------------------------- Iteration      1(   6)  ---------------------------------------


    POTLOK:  cpu time      0.1358: real time      0.1369
    SETDIJ:  cpu time      0.6068: real time      0.6091
     EDDAV:  cpu time      9.2959: real time      9.3390
       DOS:  cpu time      0.0012: real time      0.0012
    CHARGE:  cpu time      0.4178: real time      0.4194
    MIXING:  cpu time      0.0074: real time      0.0075
    --------------------------------------------
      LOOP:  cpu time     10.4649: real time     10.5130

 eigenvalue-minimisations  :  7864
 total energy-change (2. order) :-0.1691417E+00  (-0.2534863E+01)
 number of electron     359.9999999 magnetization      27.6958243
 augmentation part      -66.2507791 magnetization      28.8661772

 Broyden mixing:
  rms(total) = 0.17631E+01    rms(broyden)= 0.17631E+01
  rms(prec ) = 0.17997E+01
  weight for this iteration     100.00

 eigenvalues of (default mixing * dielectric matrix)
  average eigenvalue GAMMA=   1.0156
  1.0156

 Free energy of the ion-electron system (eV)
  ---------------------------------------------------
  alpha Z        PSCENC =       794.53752929
  Ewald energy   TEWEN  =    -12776.26074682
  -Hartree energ DENC   =     -1226.91706411
  -exchange      EXHF   =         0.00000000
  -V(xc)+E(xc)   XCENC  =      -286.09183011
  PAW double counting   =     13126.44421314   -12111.59302562
  entropy T*S    EENTRO =        -0.00000000
  eigenvalues    EBANDS =      -846.39597293
  atomic energy  EATOM  =     13036.45147835
  Solvation  Ediel_sol  =         0.00000000
  ---------------------------------------------------
  free energy    TOTEN  =      -289.82541880 eV

  energy without entropy =     -289.82541880  energy(sigma->0) =     -289.82541880


--------------------------------------------------------------------------------------------------------




--------------------------------------- Iteration      1(   7)  ---------------------------------------


    POTLOK:  cpu time      0.1321: real time      0.1330
    SETDIJ:  cpu time      0.6010: real time      0.6030
     EDDAV:  cpu time      9.4541: real time      9.4982
       DOS:  cpu time      0.0011: real time      0.0011
    CHARGE:  cpu time      0.4232: real time      0.4247
    MIXING:  cpu time      0.0074: real time      0.0074
    --------------------------------------------
      LOOP:  cpu time     10.6188: real time     10.6675

 eigenvalue-minimisations  :  7984
 total energy-change (2. order) :-0.7228829E+01  (-0.8543689E+00)
 number of electron     359.9999999 magnetization       8.8014525
 augmentation part      -66.2239137 magnetization       9.4723931

 Broyden mixing:
  rms(total) = 0.91525E+00    rms(broyden)= 0.91525E+00
  rms(prec ) = 0.93162E+00
  weight for this iteration     100.00

 eigenvalues of (default mixing * dielectric matrix)
  average eigenvalue GAMMA=   1.4740
  0.8610  2.0870

 Free energy of the ion-electron system (eV)
  ---------------------------------------------------
  alpha Z        PSCENC =       794.53752929
  Ewald energy   TEWEN  =    -12776.26074682
  -Hartree energ DENC   =     -1245.28744190
  -exchange      EXHF   =         0.00000000
  -V(xc)+E(xc)   XCENC  =      -288.95071167
  PAW double counting   =     15358.04105153   -14344.95293971
  entropy T*S    EENTRO =        -0.00000000
  eigenvalues    EBANDS =      -830.63246725
  atomic energy  EATOM  =     13036.45147835
  Solvation  Ediel_sol  =         0.00000000
  ---------------------------------------------------
  free energy    TOTEN  =      -297.05424818 eV

  energy without entropy =     -297.05424818  energy(sigma->0) =     -297.05424818


--------------------------------------------------------------------------------------------------------




--------------------------------------- Iteration      1(   8)  ---------------------------------------


    POTLOK:  cpu time      0.1307: real time      0.1314
    SETDIJ:  cpu time      0.6039: real time      0.6061
     EDDAV:  cpu time      9.5283: real time      9.5753
       DOS:  cpu time      0.0007: real time      0.0007
    CHARGE:  cpu time      0.4121: real time      0.4147
    MIXING:  cpu time      0.0076: real time      0.0076
    --------------------------------------------
      LOOP:  cpu time     10.6834: real time     10.7359

 eigenvalue-minimisations  :  8192
 total energy-change (2. order) :-0.3146945E+01  (-0.1757294E+00)
 number of electron     359.9999999 magnetization       4.4176156
 augmentation part      -66.2127306 magnetization       4.7162535

 Broyden mixing:
  rms(total) = 0.32466E+00    rms(broyden)= 0.32466E+00
  rms(prec ) = 0.33033E+00
  weight for this iteration     100.00

 eigenvalues of (default mixing * dielectric matrix)
  average eigenvalue GAMMA=   1.3583
  2.5025  0.9230  0.6494

 Free energy of the ion-electron system (eV)
  ---------------------------------------------------
  alpha Z        PSCENC =       794.53752929
  Ewald energy   TEWEN  =    -12776.26074682
  -Hartree energ DENC   =     -1252.05604082
  -exchange      EXHF   =         0.00000000
  -V(xc)+E(xc)   XCENC  =      -288.43835426
  PAW double counting   =     17259.34568548   -16247.32880769
  entropy T*S    EENTRO =        -0.00000000
  eigenvalues    EBANDS =      -826.45193712
  atomic energy  EATOM  =     13036.45147835
  Solvation  Ediel_sol  =         0.00000000
  ---------------------------------------------------
  free energy    TOTEN  =      -300.20119357 eV

  energy without entropy =     -300.20119357  energy(sigma->0) =     -300.20119357


--------------------------------------------------------------------------------------------------------




--------------------------------------- Iteration      1(   9)  ---------------------------------------


    POTLOK:  cpu time      0.1308: real time      0.1315
    SETDIJ:  cpu time      0.6036: real time      0.6054
     EDDAV:  cpu time     10.4040: real time     10.4575
       DOS:  cpu time      0.0010: real time      0.0010
    CHARGE:  cpu time      0.4202: real time      0.4217
    MIXING:  cpu time      0.0083: real time      0.0083
    --------------------------------------------
      LOOP:  cpu time     11.5680: real time     11.6255

 eigenvalue-minimisations  :  9064
 total energy-change (2. order) :-0.3354738E+00  (-0.3873595E-01)
 number of electron     359.9999999 magnetization       2.3322344
 augmentation part      -66.2472697 magnetization       2.4865322

 Broyden mixing:
  rms(total) = 0.14806E+00    rms(broyden)= 0.14806E+00
  rms(prec ) = 0.14990E+00
  weight for this iteration     100.00

 eigenvalues of (default mixing * dielectric matrix)
  average eigenvalue GAMMA=   1.3260
  2.6282  1.2305  0.8271  0.6184

 Free energy of the ion-electron system (eV)
  ---------------------------------------------------
  alpha Z        PSCENC =       794.53752929
  Ewald energy   TEWEN  =    -12776.26074682
  -Hartree energ DENC   =     -1251.16672310
  -exchange      EXHF   =         0.00000000
  -V(xc)+E(xc)   XCENC  =      -288.47886185
  PAW double counting   =     17520.41289444   -16508.72637107
  entropy T*S    EENTRO =        -0.00000000
  eigenvalues    EBANDS =      -827.30586666
  atomic energy  EATOM  =     13036.45147835
  Solvation  Ediel_sol  =         0.00000000
  ---------------------------------------------------
  free energy    TOTEN  =      -300.53666742 eV

  energy without entropy =     -300.53666742  energy(sigma->0) =     -300.53666742


--------------------------------------------------------------------------------------------------------




--------------------------------------- Iteration      1(  10)  ---------------------------------------


    POTLOK:  cpu time      0.1303: real time      0.1313
    SETDIJ:  cpu time      0.6026: real time      0.6041
     EDDAV:  cpu time      9.5560: real time      9.6011
       DOS:  cpu time      0.0011: real time      0.0011
    CHARGE:  cpu time      0.4138: real time      0.4154
    MIXING:  cpu time      0.0082: real time      0.0082
    --------------------------------------------
      LOOP:  cpu time     10.7120: real time     10.7612

 eigenvalue-minimisations  :  8152
 total energy-change (2. order) :-0.1089221E+00  (-0.9720955E-02)
 number of electron     359.9999999 magnetization       0.7809629
 augmentation part      -66.2512915 magnetization       0.8494809

 Broyden mixing:
  rms(total) = 0.73448E-01    rms(broyden)= 0.73448E-01
  rms(prec ) = 0.74544E-01
  weight for this iteration     100.00

 eigenvalues of (default mixing * dielectric matrix)
  average eigenvalue GAMMA=   1.3754
  2.6940  1.7831  0.9635  0.8111  0.6254

 Free energy of the ion-electron system (eV)
  ---------------------------------------------------
  alpha Z        PSCENC =       794.53752929
  Ewald energy   TEWEN  =    -12776.26074682
  -Hartree energ DENC   =     -1251.26276356
  -exchange      EXHF   =         0.00000000
  -V(xc)+E(xc)   XCENC  =      -288.47774484
  PAW double counting   =     17529.47955912   -16517.79669429
  entropy T*S    EENTRO =        -0.00000000
  eigenvalues    EBANDS =      -827.31620677
  atomic energy  EATOM  =     13036.45147835
  Solvation  Ediel_sol  =         0.00000000
  ---------------------------------------------------
  free energy    TOTEN  =      -300.64558952 eV

  energy without entropy =     -300.64558952  energy(sigma->0) =     -300.64558952


--------------------------------------------------------------------------------------------------------




--------------------------------------- Iteration      1(  11)  ---------------------------------------


    POTLOK:  cpu time      0.1298: real time      0.1305
    SETDIJ:  cpu time      0.6041: real time      0.6058
     EDDAV:  cpu time     10.1743: real time     10.2279
       DOS:  cpu time      0.0011: real time      0.0011
    CHARGE:  cpu time      0.4173: real time      0.4191
    MIXING:  cpu time      0.0077: real time      0.0077
    --------------------------------------------
      LOOP:  cpu time     11.3343: real time     11.3921

 eigenvalue-minimisations  :  8824
 total energy-change (2. order) :-0.3276835E-01  (-0.3506498E-02)
 number of electron     359.9999999 magnetization       0.1898519
 augmentation part      -66.2375792 magnetization       0.2097038

 Broyden mixing:
  rms(total) = 0.29416E-01    rms(broyden)= 0.29416E-01
  rms(prec ) = 0.29803E-01
  weight for this iteration     100.00

 eigenvalues of (default mixing * dielectric matrix)
  average eigenvalue GAMMA=   1.4055
  2.8978  2.1858  1.1752  0.8555  0.6941  0.6243

 Free energy of the ion-electron system (eV)
  ---------------------------------------------------
  alpha Z        PSCENC =       794.53752929
  Ewald energy   TEWEN  =    -12776.26074682
  -Hartree energ DENC   =     -1252.37090394
  -exchange      EXHF   =         0.00000000
  -V(xc)+E(xc)   XCENC  =      -288.42603472
  PAW double counting   =     17458.77965710   -16447.06859735
  entropy T*S    EENTRO =        -0.00000000
  eigenvalues    EBANDS =      -826.32073979
  atomic energy  EATOM  =     13036.45147835
  Solvation  Ediel_sol  =         0.00000000
  ---------------------------------------------------
  free energy    TOTEN  =      -300.67835787 eV

  energy without entropy =     -300.67835787  energy(sigma->0) =     -300.67835787


--------------------------------------------------------------------------------------------------------




--------------------------------------- Iteration      1(  12)  ---------------------------------------


    POTLOK:  cpu time      0.1305: real time      0.1332
    SETDIJ:  cpu time      0.6592: real time      0.6614
     EDDAV:  cpu time     10.0036: real time     10.0565
       DOS:  cpu time      0.0008: real time      0.0008
    CHARGE:  cpu time      0.4210: real time      0.4230
    MIXING:  cpu time      0.0082: real time      0.0082
    --------------------------------------------
      LOOP:  cpu time     11.2232: real time     11.2830

 eigenvalue-minimisations  :  8648
 total energy-change (2. order) :-0.3701240E-02  (-0.4731586E-03)
 number of electron     359.9999999 magnetization       0.0639885
 augmentation part      -66.2364297 magnetization       0.0687557

 Broyden mixing:
  rms(total) = 0.11082E-01    rms(broyden)= 0.11082E-01
  rms(prec ) = 0.11659E-01
  weight for this iteration     100.00

 eigenvalues of (default mixing * dielectric matrix)
  average eigenvalue GAMMA=   1.3715
  3.0066  2.3444  1.2229  0.8834  0.8834  0.6082  0.6513

 Free energy of the ion-electron system (eV)
  ---------------------------------------------------
  alpha Z        PSCENC =       794.53752929
  Ewald energy   TEWEN  =    -12776.26074682
  -Hartree energ DENC   =     -1252.56037610
  -exchange      EXHF   =         0.00000000
  -V(xc)+E(xc)   XCENC  =      -288.41887138
  PAW double counting   =     17422.67851542   -16410.94485756
  entropy T*S    EENTRO =        -0.00000000
  eigenvalues    EBANDS =      -826.16473032
  atomic energy  EATOM  =     13036.45147835
  Solvation  Ediel_sol  =         0.00000000
  ---------------------------------------------------
  free energy    TOTEN  =      -300.68205911 eV

  energy without entropy =     -300.68205911  energy(sigma->0) =     -300.68205911


--------------------------------------------------------------------------------------------------------




--------------------------------------- Iteration      1(  13)  ---------------------------------------


    POTLOK:  cpu time      0.1301: real time      0.1308
    SETDIJ:  cpu time      0.6042: real time      0.6064
     EDDAV:  cpu time     10.9876: real time     11.0434
       DOS:  cpu time      0.0008: real time      0.0008
    CHARGE:  cpu time      0.4191: real time      0.4208
    MIXING:  cpu time      0.0082: real time      0.0082
    --------------------------------------------
      LOOP:  cpu time     12.1499: real time     12.2104

 eigenvalue-minimisations  :  9792
 total energy-change (2. order) :-0.1485620E-03  (-0.5883513E-04)
 number of electron     359.9999999 magnetization       0.0161374
 augmentation part      -66.2379239 magnetization       0.0171944

 Broyden mixing:
  rms(total) = 0.46034E-02    rms(broyden)= 0.46034E-02
  rms(prec ) = 0.47997E-02
  weight for this iteration     100.00

 eigenvalues of (default mixing * dielectric matrix)
  average eigenvalue GAMMA=   1.3584
  3.0568  2.4499  1.1592  1.1592  0.9416  0.8478  0.6463  0.6063

 Free energy of the ion-electron system (eV)
  ---------------------------------------------------
  alpha Z        PSCENC =       794.53752929
  Ewald energy   TEWEN  =    -12776.26074682
  -Hartree energ DENC   =     -1252.46960623
  -exchange      EXHF   =         0.00000000
  -V(xc)+E(xc)   XCENC  =      -288.42793931
  PAW double counting   =     17408.29039546   -16396.54495164
  entropy T*S    EENTRO =        -0.00000000
  eigenvalues    EBANDS =      -826.25836677
  atomic energy  EATOM  =     13036.45147835
  Solvation  Ediel_sol  =         0.00000000
  ---------------------------------------------------
  free energy    TOTEN  =      -300.68220767 eV

  energy without entropy =     -300.68220767  energy(sigma->0) =     -300.68220767


--------------------------------------------------------------------------------------------------------




--------------------------------------- Iteration      1(  14)  ---------------------------------------


    POTLOK:  cpu time      0.1314: real time      0.1322
    SETDIJ:  cpu time      0.6054: real time      0.6075
     EDDAV:  cpu time      9.6881: real time      9.7359
       DOS:  cpu time      0.0008: real time      0.0008
    CHARGE:  cpu time      0.4173: real time      0.4190
    MIXING:  cpu time      0.0084: real time      0.0085
    --------------------------------------------
      LOOP:  cpu time     10.8514: real time     10.9038

 eigenvalue-minimisations  :  8304
 total energy-change (2. order) :-0.2090655E-04  (-0.1057558E-04)
 number of electron     359.9999999 magnetization       0.0047012
 augmentation part      -66.2376178 magnetization       0.0050654

 Broyden mixing:
  rms(total) = 0.15904E-02    rms(broyden)= 0.15904E-02
  rms(prec ) = 0.16967E-02
  weight for this iteration     100.00

 eigenvalues of (default mixing * dielectric matrix)
  average eigenvalue GAMMA=   1.3421
  3.0865  2.4693  1.4926  1.2097  0.8893  0.8893  0.7923  0.6086  0.6410

 Free energy of the ion-electron system (eV)
  ---------------------------------------------------
  alpha Z        PSCENC =       794.53752929
  Ewald energy   TEWEN  =    -12776.26074682
  -Hartree energ DENC   =     -1252.47493225
  -exchange      EXHF   =         0.00000000
  -V(xc)+E(xc)   XCENC  =      -288.42837945
  PAW double counting   =     17403.39434279   -16391.64571189
  entropy T*S    EENTRO =        -0.00000000
  eigenvalues    EBANDS =      -826.25580860
  atomic energy  EATOM  =     13036.45147835
  Solvation  Ediel_sol  =         0.00000000
  ---------------------------------------------------
  free energy    TOTEN  =      -300.68222858 eV

  energy without entropy =     -300.68222858  energy(sigma->0) =     -300.68222858


--------------------------------------------------------------------------------------------------------




--------------------------------------- Iteration      1(  15)  ---------------------------------------


    POTLOK:  cpu time      0.1302: real time      0.1310
    SETDIJ:  cpu time      0.6030: real time      0.6078
     EDDAV:  cpu time      9.9518: real time     10.0004
       DOS:  cpu time      0.0009: real time      0.0009
    CHARGE:  cpu time      0.4157: real time      0.4175
    MIXING:  cpu time      0.0087: real time      0.0088
    --------------------------------------------
      LOOP:  cpu time     11.1104: real time     11.1663

 eigenvalue-minimisations  :  8568
 total energy-change (2. order) :-0.4363930E-05  (-0.1676640E-05)
 number of electron     359.9999999 magnetization       0.0018366
 augmentation part      -66.2377003 magnetization       0.0020435

 Broyden mixing:
  rms(total) = 0.76207E-03    rms(broyden)= 0.76207E-03
  rms(prec ) = 0.81417E-03
  weight for this iteration     100.00

 eigenvalues of (default mixing * dielectric matrix)
  average eigenvalue GAMMA=   1.3020
  3.0970  2.4414  1.6751  1.1099  0.9649  0.9649  0.8109  0.7172  0.6191  0.6191

 Free energy of the ion-electron system (eV)
  ---------------------------------------------------
  alpha Z        PSCENC =       794.53752929
  Ewald energy   TEWEN  =    -12776.26074682
  -Hartree energ DENC   =     -1252.46906701
  -exchange      EXHF   =         0.00000000
  -V(xc)+E(xc)   XCENC  =      -288.42824182
  PAW double counting   =     17403.14864507   -16391.39952269
  entropy T*S    EENTRO =        -0.00000000
  eigenvalues    EBANDS =      -826.26230731
  atomic energy  EATOM  =     13036.45147835
  Solvation  Ediel_sol  =         0.00000000
  ---------------------------------------------------
  free energy    TOTEN  =      -300.68223294 eV

  energy without entropy =     -300.68223294  energy(sigma->0) =     -300.68223294


--------------------------------------------------------------------------------------------------------




--------------------------------------- Iteration      1(  16)  ---------------------------------------


    POTLOK:  cpu time      0.1303: real time      0.1310
    SETDIJ:  cpu time      0.6018: real time      0.6038
     EDDAV:  cpu time      6.7393: real time      6.7734
       DOS:  cpu time      0.0008: real time      0.0008
    --------------------------------------------
      LOOP:  cpu time      7.4721: real time      7.5089

 eigenvalue-minimisations  :  4928
 total energy-change (2. order) :-0.6635755E-06  (-0.1553354E-06)
 number of electron     359.9999999 magnetization       0.0018366
 augmentation part      -66.2377003 magnetization       0.0020435

 Free energy of the ion-electron system (eV)
  ---------------------------------------------------
  alpha Z        PSCENC =       794.53752929
  Ewald energy   TEWEN  =    -12776.26074682
  -Hartree energ DENC   =     -1252.46485434
  -exchange      EXHF   =         0.00000000
  -V(xc)+E(xc)   XCENC  =      -288.42841638
  PAW double counting   =     17403.09163718   -16391.34230751
  entropy T*S    EENTRO =        -0.00000000
  eigenvalues    EBANDS =      -826.26655337
  atomic energy  EATOM  =     13036.45147835
  Solvation  Ediel_sol  =         0.00000000
  ---------------------------------------------------
  free energy    TOTEN  =      -300.68223361 eV

  energy without entropy =     -300.68223361  energy(sigma->0) =     -300.68223361


--------------------------------------------------------------------------------------------------------




 average (electrostatic) potential at core
  the test charge radii are     1.1631  1.0808
  (the norm of the test charge is              1.0000)
       1 -33.3899       2 -33.5034       3 -33.5219       4 -33.5706       5 -33.3576
       6 -33.5981       7 -33.4022       8 -33.4199       9 -33.3592      10 -33.3063
      11 -33.2972      12 -33.4554      13 -33.5404      14 -33.2908      15 -33.6405
      16 -33.4978      17 -33.4260      18 -33.3795      19 -33.2615      20 -33.3573
      21 -33.5013      22 -33.4300      23 -33.5578      24 -33.5123      25 -33.4728
      26 -33.5105      27 -33.3741      28 -33.4235      29 -33.4212      30 -33.3974
      31 -33.5899      32 -33.4307      33 -33.3628      34 -33.2943      35 -33.6124
      36 -33.3838      37 -54.9110      38 -54.7595      39 -54.9688      40 -54.8632
      41 -55.0925      42 -54.7498      43 -54.8452      44 -54.8386      45 -54.8733
      46 -54.7774      47 -54.9620      48 -54.7196      49 -55.0646      50 -54.8460
      51 -54.9652      52 -54.7411      53 -54.8650      54 -54.9163      55 -55.1050
      56 -54.8950      57 -55.0831      58 -54.7983      59 -54.9330      60 -54.9326
      61 -54.8328      62 -54.9097      63 -54.6760      64 -54.7862      65 -55.0013
      66 -54.8112      67 -54.8606      68 -55.0127      69 -54.8009      70 -55.0207
      71 -54.8703      72 -55.0649
 
 
 
 E-fermi :   3.4499     XC(G=0):  -9.3369     alpha+bet : -8.7949

 Fermi energy:         3.4499338828

 spin component 1

 k-point     1 :       0.0000    0.0000    0.0000
  band No.  band energies     occupation 
      1     -11.0187      1.00000
      2     -10.7184      1.00000
      3     -10.5979      1.00000
      4     -10.4497      1.00000
      5     -10.4001      1.00000
      6     -10.3563      1.00000
      7     -10.2929      1.00000
      8     -10.1997      1.00000
      9     -10.1525      1.00000
     10     -10.0594      1.00000
     11     -10.0275      1.00000
     12      -9.9939      1.00000
     13      -9.9078      1.00000
     14      -9.8758      1.00000
     15      -9.7821      1.00000
     16      -9.7382      1.00000
     17      -9.7065      1.00000
     18      -9.6649      1.00000
     19      -9.6247      1.00000
     20      -9.5592      1.00000
     21      -9.5041      1.00000
     22      -9.4953      1.00000
     23      -9.4854      1.00000
     24      -9.4357      1.00000
     25      -9.3857      1.00000
     26      -9.3448      1.00000
     27      -9.3184      1.00000
     28      -9.2739      1.00000
     29      -9.2591      1.00000
     30      -9.2313      1.00000
     31      -9.2162      1.00000
     32      -9.1622      1.00000
     33      -9.1125      1.00000
     34      -9.0632      1.00000
     35      -9.0538      1.00000
     36      -9.0189      1.00000
     37      -5.4248      1.00000
     38      -5.3833      1.00000
     39      -5.3162      1.00000
     40      -5.2441      1.00000
     41      -5.1168      1.00000
     42      -5.1023      1.00000
     43      -5.0887      1.00000
     44      -5.0322      1.00000
     45      -4.8284      1.00000
     46      -4.7418      1.00000
     47      -4.6417      1.00000
     48      -4.5683      1.00000
     49      -4.5418      1.00000
     50      -4.5113      1.00000
     51      -4.4903      1.00000
     52      -4.4588      1.00000
     53      -4.4249      1.00000
     54      -4.3684      1.00000
     55      -4.3543      1.00000
     56      -4.3170      1.00000
     57      -4.2691      1.00000
     58      -4.2421      1.00000
     59      -4.2302      1.00000
     60      -4.1323      1.00000
     61      -4.1100      1.00000
     62      -4.0865      1.00000
     63      -4.0194      1.00000
     64      -3.9899      1.00000
     65      -3.9590      1.00000
     66      -3.8735      1.00000
     67      -3.7418      1.00000
     68      -3.6524      1.00000
     69      -3.5650      1.00000
     70      -3.5452      1.00000
     71      -2.5162      1.00000
     72      -2.3888      1.00000
     73      -1.8716      1.00000
     74      -1.6327      1.00000
     75      -1.5929      1.00000
     76      -1.5656      1.00000
     77      -1.5133      1.00000
     78      -1.5004      1.00000
     79      -1.3800      1.00000
     80      -1.3703      1.00000
     81      -1.2690      1.00000
     82      -1.1882      1.00000
     83      -1.1398      1.00000
     84      -1.0700      1.00000
     85      -1.0309      1.00000
     86      -0.8552      1.00000
     87      -0.8265      1.00000
     88      -0.7862      1.00000
     89      -0.7237      1.00000
     90      -0.6875      1.00000
     91      -0.6625      1.00000
     92      -0.6183      1.00000
     93      -0.6013      1.00000
     94      -0.3635      1.00000
     95      -0.2566      1.00000
     96      -0.2181      1.00000
     97      -0.1683      1.00000
     98      -0.1398      1.00000
     99      -0.0503      1.00000
    100      -0.0120      1.00000
    101       0.0264      1.00000
    102       0.0795      1.00000
    103       0.0837      1.00000
    104       0.1429      1.00000
    105       0.1580      1.00000
    106       0.2439      1.00000
    107       0.2596      1.00000
    108       0.2723      1.00000
    109       0.3252      1.00000
    110       0.3654      1.00000
    111       0.4011      1.00000
    112       0.4451      1.00000
    113       0.5091      1.00000
    114       0.5446      1.00000
    115       0.5842      1.00000
    116       0.6092      1.00000
    117       0.6439      1.00000
    118       0.6762      1.00000
    119       0.6891      1.00000
    120       0.7496      1.00000
    121       0.7659      1.00000
    122       0.8115      1.00000
    123       0.8245      1.00000
    124       0.8441      1.00000
    125       0.8922      1.00000
    126       0.9134      1.00000
    127       0.9400      1.00000
    128       0.9765      1.00000
    129       0.9866      1.00000
    130       1.0604      1.00000
    131       1.0991      1.00000
    132       1.1409      1.00000
    133       1.1602      1.00000
    134       1.2238      1.00000
    135       1.2404      1.00000
    136       1.2664      1.00000
    137       1.2861      1.00000
    138       1.3557      1.00000
    139       1.4092      1.00000
    140       1.4351      1.00000
    141       1.4393      1.00000
    142       1.4839      1.00000
    143       1.5026      1.00000
    144       1.6008      1.00000
    145       1.6410      1.00000
    146       1.7028      1.00000
    147       1.7295      1.00000
    148       1.8143      1.00000
[...]
   0.111E+02 -.722E+01 -.264E+02   -.118E+02 0.875E+01 0.290E+02   0.198E+00 -.197E+01 -.282E+01   0.218E-03 -.296E-03 0.115E-03
   -.191E+02 0.677E+01 0.320E+02   0.213E+02 -.778E+01 -.354E+02   -.195E+01 0.227E+00 0.235E+01   -.473E-04 0.156E-03 0.353E-03
   0.206E+02 -.167E+02 0.452E+02   -.218E+02 0.168E+02 -.475E+02   0.155E+01 0.205E+00 0.163E+01   0.121E-04 0.229E-03 -.257E-03
   -.502E+01 0.278E+02 0.281E+02   0.477E+01 -.294E+02 -.299E+02   0.484E+00 0.986E+00 0.168E+01   0.216E-03 -.533E-03 -.172E-03
   0.125E+02 0.493E+01 0.284E+02   -.135E+02 -.490E+01 -.305E+02   0.116E+01 -.559E+00 0.207E+01   0.968E-04 -.869E-04 -.377E-04
   -.152E+02 0.308E+00 0.217E+02   0.156E+02 -.179E+01 -.238E+02   0.317E+00 0.130E+01 0.195E+01   0.122E-03 -.182E-03 0.840E-04
   0.167E+02 0.228E+01 0.815E+01   -.181E+02 -.228E+01 -.977E+01   0.121E+01 -.616E+00 0.204E+01   -.332E-03 -.723E-04 0.534E-04
   -.377E+01 0.244E+02 0.306E+02   0.352E+01 -.259E+02 -.323E+02   0.257E+00 0.987E+00 0.183E+01   0.355E-03 0.277E-03 -.754E-04
   0.679E+01 0.191E+02 0.230E+02   -.687E+01 -.205E+02 -.249E+02   -.552E+00 0.134E+01 0.197E+01   0.328E-03 -.242E-04 -.236E-03
   -.109E+02 -.264E+02 -.375E+02   0.109E+02 0.279E+02 0.393E+02   0.424E+00 -.117E+01 -.187E+01   0.133E-04 -.179E-03 0.250E-03
   0.179E+02 0.360E+01 -.142E+02   -.189E+02 -.414E+01 0.159E+02   0.774E+00 0.156E+00 -.191E+01   -.598E-04 0.582E-03 0.168E-03
   -.761E+01 -.403E+01 -.259E+02   0.764E+01 0.498E+01 0.278E+02   -.635E-01 -.148E+01 -.220E+01   0.576E-03 -.187E-03 -.164E-03
   0.705E+01 -.114E+02 -.291E+02   -.737E+01 0.123E+02 0.311E+02   0.573E+00 -.827E+00 -.220E+01   -.224E-03 -.380E-03 0.246E-03
   0.810E+01 -.151E+02 -.218E+02   -.817E+01 0.159E+02 0.237E+02   -.491E+00 -.410E+00 -.228E+01   0.187E-03 0.249E-03 0.187E-03
   0.302E+02 -.156E+01 -.331E+02   -.318E+02 0.160E+01 0.351E+02   0.152E+01 0.344E+00 -.164E+01   -.541E-03 -.328E-03 0.113E-03
   0.382E+01 -.532E+01 -.188E+02   -.388E+01 0.645E+01 0.205E+02   -.111E+00 -.134E+01 -.223E+01   0.467E-04 -.159E-03 0.674E-04
   -.200E+01 -.344E+01 0.206E+02   0.217E+01 0.267E+01 -.222E+02   0.205E+00 0.900E+00 0.245E+01   -.132E-03 0.649E-03 -.220E-03
   0.507E+00 0.199E+02 0.345E+02   -.366E+00 -.213E+02 -.364E+02   -.581E-01 0.108E+01 0.171E+01   -.340E-03 -.120E-04 -.801E-04
   0.591E+01 0.151E+01 0.288E+02   -.678E+01 -.195E+01 -.309E+02   0.656E+00 0.656E+00 0.234E+01   -.469E-03 0.281E-03 0.720E-05
   0.274E+02 0.761E+01 0.281E+02   -.289E+02 -.803E+01 -.300E+02   0.133E+01 0.425E+00 0.180E+01   -.445E-03 0.298E-03 0.594E-04
   -.131E+02 -.236E+02 0.241E+02   0.132E+02 0.251E+02 -.257E+02   -.464E-01 -.128E+01 0.179E+01   0.485E-03 -.154E-03 -.241E-03
   -.112E+01 -.405E+01 -.278E+02   0.755E+00 0.479E+01 0.299E+02   -.218E-01 -.729E+00 -.161E+01   0.661E-04 0.120E-03 -.419E-05
   -.240E+01 0.882E+01 -.350E+02   0.234E+01 -.100E+02 0.373E+02   0.858E-01 0.112E+01 -.180E+01   0.433E-03 0.541E-04 0.153E-03
   0.647E+00 0.213E+02 -.343E+02   -.910E+00 -.226E+02 0.363E+02   -.163E+00 0.916E+00 -.185E+01   0.140E-03 -.261E-03 -.850E-04
   0.169E+02 -.102E+02 -.379E+02   -.182E+02 0.101E+02 0.402E+02   0.131E+01 0.210E+00 -.185E+01   -.275E-03 0.209E-03 -.218E-03
   -.567E+01 0.104E+02 -.282E+02   0.597E+01 -.118E+02 0.300E+02   -.529E+00 0.149E+01 -.173E+01   -.711E-04 0.153E-03 0.541E-05
   0.196E+02 0.187E+01 -.322E+02   -.212E+02 -.134E+01 0.339E+02   0.110E+01 -.659E-01 -.204E+01   -.203E-03 -.191E-03 0.137E-03
   0.328E+01 0.389E+01 -.341E+02   -.331E+01 -.508E+01 0.362E+02   -.163E+00 0.142E+01 -.180E+01   0.399E-03 0.188E-03 -.340E-03
   0.165E+02 -.225E+02 -.171E+02   -.176E+02 0.231E+02 0.188E+02   0.138E+01 -.205E+00 -.188E+01   -.239E-03 -.158E-03 0.236E-03
   -.608E+01 0.331E+02 -.225E+02   0.624E+01 -.346E+02 0.240E+02   -.140E-01 0.136E+01 -.163E+01   -.134E-03 0.164E-03 0.236E-03
   -.145E+02 -.139E+01 -.341E+02   0.152E+02 0.360E+00 0.361E+02   -.217E-01 0.107E+01 -.161E+01   0.606E-04 0.117E-03 -.157E-03
   -.667E+01 0.206E+01 0.324E+02   0.714E+01 -.133E+01 -.346E+02   -.647E+00 -.101E+01 0.216E+01   -.154E-04 -.641E-03 -.663E-04
   0.111E+02 -.185E+02 0.258E+02   -.112E+02 0.194E+02 -.277E+02   -.389E-01 -.127E+01 0.162E+01   0.126E-04 0.236E-03 0.101E-03
   0.630E+01 -.926E+01 0.417E+02   -.664E+01 0.103E+02 -.437E+02   -.191E+00 -.980E+00 0.162E+01   -.206E-03 0.523E-04 -.353E-03
   0.122E+02 0.900E+01 0.313E+02   -.133E+02 -.896E+01 -.330E+02   0.100E+01 0.198E+00 0.192E+01   0.120E-03 -.262E-04 -.251E-03
   -.302E+00 -.267E+02 0.316E+02   0.375E+00 0.288E+02 -.337E+02   0.400E+00 -.760E+00 0.196E+01   0.588E-03 0.103E-03 0.446E-04
   0.631E+01 -.467E+01 0.352E+02   -.697E+01 0.582E+01 -.378E+02   0.287E+00 -.764E+00 0.202E+01   0.113E-05 -.169E-03 0.223E-03
   0.200E+01 0.182E+02 -.399E+02   -.288E+01 -.191E+02 0.424E+02   0.113E+01 0.467E+00 -.165E+01   -.660E-04 -.107E-03 -.726E-05
 -----------------------------------------------------------------------------------------------
   0.147E+02 -.119E+01 -.795E-01   -.391E-13 -.675E-13 0.455E-12   -.147E+02 0.119E+01 0.802E-01   -.405E-03 -.170E-04 -.584E-03
 
 
 POSITION                                       TOTAL-FORCE (eV/Angst)
 -----------------------------------------------------------------------------------
      0.34231      0.32313      1.39628         0.929397     -0.533958     -0.199798
      3.04958     10.97529      4.09187         0.222437      0.125373      0.190363
      7.05932      2.56922      4.13706         0.533577     -0.384594      0.245731
      6.87750      6.41654      4.22163        -0.048265      0.056761     -0.283308
      7.32776     10.50733      3.95142        -0.581688      0.311976      0.329830
     11.21657      2.37551      4.13753         0.252115      0.383935      0.001286
     11.28779      6.74141      3.84803         0.200585     -0.105770      0.861202
     11.13127     10.65801      3.95042        -0.043657      0.035937     -0.027799
      0.92940      1.73614      7.09911        -0.229582      0.035279     -0.735869
      0.65854      6.39239      7.06830         0.092448      0.048538     -0.174735
      0.76768     10.35338      7.23760        -0.258036      0.119059     -0.690856
      4.80953      1.99727      6.98678        -0.240453     -0.072878     -0.124284
      4.73826      6.28723      6.96352        -0.170747      0.218078      0.348696
      4.92645     10.32190      7.10374         0.361630      0.134602     -0.386590
      8.88052      2.09378      6.88559        -0.297742     -0.184257      0.365069
      9.14711      5.88664      6.79670         0.728496      0.513329      0.164746
      2.85600      6.80833      4.12515         0.278123     -0.333603      0.100631
      2.74208      2.29805      4.12568        -0.044555      0.322431      0.168174
      8.96406     10.39718      7.01773         0.101596      0.118217     -0.485600
     10.89086      8.33924      9.70786         0.274810     -0.163750      0.028354
     11.11689     12.50484      9.61950        -0.604977      0.065726      0.435424
      0.92244      4.60624      1.43401         0.423642     -0.058942      0.333950
      1.27339      8.76548      1.61941        -0.205351      0.336353     -0.096644
      5.26645      0.45996      1.57152         0.143467     -0.108029      0.234046
      4.96022      4.22877      1.50090        -0.195034      0.410585     -0.345376
      9.11129      0.39536      1.32553        -0.107962     -0.110550      0.127845
      9.18763      4.60220      1.65526         0.225835      0.001839     -0.663301
      5.06167      8.59666      1.50725        -0.718903     -0.319207      0.329023
      2.79969      3.94313      9.78484         0.257257      0.348910      0.076546
      2.85085      8.24727      9.52804         0.012618      0.201555      0.312058
      2.96523     12.25765      9.64360         0.282925     -0.117124     -0.281161
      6.83746      4.17860      9.47498         0.328295     -0.254282      0.083704
      7.23342      8.15709      9.62850        -0.176351     -0.217906     -0.167580
      7.01959     12.27723      9.66488        -0.450919      0.631933      0.317916
     11.47620      4.06791      9.63665        -0.438517     -0.439041     -0.150886
      9.05147      8.68807      1.52649         0.221642     -0.780830     -1.029303
     11.50338     12.38784      7.22526         0.279227      0.321933     -0.607401
      2.70512      4.78743      7.34463         0.241685     -0.623906     -0.166798
      3.12517      8.50178      7.04328         0.139196     -0.531632     -0.066414
      6.77954      0.39128      7.19006         0.729771     -0.188792     -0.100105
      7.27985      4.23827      6.90110        -0.174791     -0.609824      0.423929
      7.06463      8.71575      7.11096         0.007256     -0.543764      0.067356
     11.49317      4.38339      7.11818        -0.629650     -0.009274      0.090821
      9.12246     12.34459      3.82709         0.402731      0.244879     -0.069056
      1.13985      0.30504      3.92065        -0.247869     -0.385722     -0.147329
      0.89224      4.21696      4.01213        -0.031923     -0.535286     -0.331002
      0.95010      8.53954      4.12624         0.251919      0.059464     -0.229070
      5.48802     12.42472      4.10002        -0.557799      0.348450     -0.391430
      5.24263      4.28822      3.96981        -0.156170      0.375963      0.347625
      5.10845      8.35416      4.13369        -0.170448     -0.210335     -0.497058
      2.91829      0.06602      6.93844         0.372227      0.136242      0.800496
     11.06226      8.82514      7.21385         0.082001     -0.387908     -0.160628
     11.60378     10.47655      1.44146        -0.207562      0.212827      0.219394
      3.35902      2.19170      1.65560        -0.223419      0.008435     -0.087725
     11.02906      2.09599      1.57105         0.087448      0.264434      0.149277
      9.50769      4.31185      4.08320        -0.386046      0.013114      0.486409
      0.93548      2.20453      9.53782         0.018893     -0.063569      0.520664
      0.72000      6.82049      9.55109        -0.426593     -0.366071      0.163177
      1.23114     10.35548      9.66005        -0.015886      0.168133      0.469365
      4.90034      2.38696      9.49148        -0.228090      0.131775      0.032362
      5.41145      6.23959      9.50178        -0.534818      0.464315     -0.249702
      5.06362     10.54091      9.58226        -0.194422      0.235512      0.256609
      9.45397      2.01906      9.43838         0.250095      0.467815     -0.195938
      9.16306      6.43655      9.39807         0.144801     -0.132173     -0.126869
      8.95003     10.70590      9.47295         0.723123      0.046595      0.398253
      3.04923      6.26327      1.61740        -0.174896     -0.282063     -0.034335
      3.30004     10.65016      1.62490        -0.186579     -0.448323     -0.265521
      7.40394      2.29056      1.65497        -0.533707      0.039346     -0.353039
      7.38476      6.38931      1.65858        -0.068990      0.235144      0.267210
      7.00650     10.10300      1.47293         0.474076      1.317784     -0.116971
     11.49702      6.29441      1.46855        -0.371691      0.390795     -0.553361
      9.42621      8.61544      3.91419         0.258746     -0.400006      0.845304
 -----------------------------------------------------------------------------------
    total drift:                               -0.001477     -0.000499      0.000111


--------------------------------------------------------------------------------------------------------



  FREE ENERGIE OF THE ION-ELECTRON SYSTEM (eV)
  ---------------------------------------------------
  free  energy   TOTEN  =      -300.68223361 eV

  energy  without entropy=     -300.68223361  energy(sigma->0) =     -300.68223361
 


--------------------------------------------------------------------------------------------------------


    POTLOK:  cpu time      0.7349: real time      0.7380


--------------------------------------------------------------------------------------------------------


     LOOP+:  cpu time    182.2066: real time    183.1099
    4ORBIT:  cpu time      0.0000: real time      0.0000



 total charge

# of ion       s       p       d       tot
------------------------------------------
    1        1.320   0.794   0.055   2.168
    2        1.329   0.746   0.053   2.128
    3        1.321   0.781   0.058   2.160
    4        1.322   0.753   0.051   2.126
    5        1.320   0.798   0.069   2.187
    6        1.329   0.741   0.052   2.122
    7        1.322   0.795   0.060   2.177
    8        1.321   0.778   0.056   2.155
    9        1.315   0.809   0.059   2.183
   10        1.314   0.803   0.062   2.179
   11        1.320   0.803   0.065   2.188
   12        1.317   0.786   0.056   2.159
   13        1.316   0.767   0.053   2.136
   14        1.319   0.804   0.064   2.188
   15        1.323   0.738   0.047   2.107
   16        1.331   0.750   0.053   2.134
   17        1.315   0.782   0.053   2.150
   18        1.314   0.792   0.056   2.162
   19        1.304   0.835   0.065   2.204
   20        1.326   0.770   0.056   2.152
   21        1.305   0.802   0.060   2.166
   22        1.305   0.795   0.055   2.156
   23        1.332   0.741   0.053   2.125
   24        1.324   0.756   0.051   2.131
   25        1.320   0.780   0.059   2.158
   26        1.312   0.799   0.060   2.171
   27        1.321   0.796   0.062   2.180
   28        1.325   0.779   0.061   2.165
   29        1.312   0.796   0.055   2.163
   30        1.320   0.795   0.061   2.175
   31        1.333   0.734   0.049   2.117
   32        1.323   0.783   0.057   2.163
   33        1.316   0.785   0.058   2.159
   34        1.307   0.822   0.060   2.189
   35        1.328   0.735   0.049   2.112
   36        1.312   0.830   0.067   2.209
   37        1.477   2.320   0.036   3.833
   38        1.472   2.316   0.031   3.820
   39        1.481   2.306   0.038   3.825
   40        1.476   2.303   0.033   3.811
   41        1.478   2.309   0.037   3.823
   42        1.475   2.311   0.032   3.818
   43        1.478   2.296   0.031   3.805
   44        1.477   2.312   0.032   3.820
   45        1.476   2.301   0.031   3.808
   46        1.479   2.270   0.027   3.775
   47        1.483   2.287   0.035   3.805
   48        1.480   2.272   0.028   3.780
   49        1.478   2.318   0.037   3.833
   50        1.479   2.283   0.031   3.793
   51        1.482   2.275   0.033   3.790
   52        1.475   2.313   0.032   3.820
   53        1.481   2.283   0.031   3.796
   54        1.477   2.313   0.033   3.823
   55        1.478   2.322   0.039   3.838
   56        1.476   2.312   0.035   3.823
   57        1.476   2.320   0.037   3.834
   58        1.477   2.311   0.033   3.821
   59        1.477   2.324   0.037   3.837
   60        1.478   2.302   0.032   3.813
   61        1.476   2.309   0.032   3.817
   62        1.477   2.309   0.035   3.820
   63        1.476   2.278   0.025   3.779
   64        1.473   2.307   0.030   3.811
   65        1.478   2.321   0.039   3.838
   66        1.481   2.277   0.029   3.787
   67        1.477   2.293   0.030   3.801
   68        1.476   2.306   0.035   3.817
   69        1.476   2.295   0.029   3.800
   70        1.476   2.353   0.043   3.872
   71        1.477   2.322   0.036   3.835
   72        1.478   2.328   0.042   3.849
--------------------------------------------------
tot        100.680 111.127   3.267 215.074



 magnetization (x)

# of ion       s       p       d       tot
------------------------------------------
    1       -0.000   0.000   0.000   0.000
    2       -0.000  -0.000  -0.000  -0.000
    3       -0.000   0.000   0.000   0.000
    4       -0.000   0.000  -0.000   0.000
    5       -0.000  -0.000  -0.000  -0.000
    6       -0.000   0.000   0.000   0.000
    7       -0.000   0.000  -0.000   0.000
    8       -0.000   0.000  -0.000  -0.000
    9       -0.000   0.000   0.000   0.000
   10       -0.000   0.000  -0.000  -0.000
   11       -0.000   0.000  -0.000   0.000
   12       -0.000   0.000   0.000   0.000
   13       -0.000  -0.000  -0.000  -0.000
   14       -0.000   0.000  -0.000   0.000
   15       -0.000   0.000   0.000   0.000
   16       -0.000   0.000  -0.000  -0.000
   17       -0.000   0.000  -0.000  -0.000
   18       -0.000   0.000   0.000   0.000
   19       -0.000   0.000  -0.000  -0.000
   20       -0.000   0.000  -0.000   0.000
   21       -0.000   0.000   0.000   0.000
   22       -0.000   0.000   0.000   0.000
   23       -0.000   0.000  -0.000  -0.000
   24       -0.000   0.000   0.000   0.000
   25       -0.000   0.000   0.000   0.000
   26       -0.000   0.000   0.000   0.000
   27       -0.000   0.000   0.000   0.000
   28       -0.000   0.000  -0.000  -0.000
   29       -0.000   0.000   0.000   0.000
   30       -0.000   0.000  -0.000   0.000
   31       -0.000   0.000   0.000   0.000
   32       -0.000   0.000   0.000   0.000
   33       -0.000   0.000  -0.000  -0.000
   34       -0.000   0.000   0.000   0.000
   35       -0.000   0.000   0.000   0.000
   36       -0.000   0.000  -0.000   0.000
   37       -0.000  -0.000   0.000  -0.000
   38       -0.000  -0.000   0.000  -0.000
   39       -0.000  -0.000  -0.000  -0.000
   40       -0.000  -0.000   0.000  -0.000
   41       -0.000  -0.000   0.000  -0.000
   42       -0.000  -0.000  -0.000  -0.000
   43       -0.000  -0.000   0.000  -0.000
   44       -0.000  -0.000   0.000  -0.000
   45       -0.000  -0.000   0.000  -0.000
   46       -0.000  -0.000   0.000  -0.000
   47       -0.000  -0.000  -0.000  -0.000
   48       -0.000  -0.000   0.000  -0.000
   49       -0.000  -0.000   0.000  -0.000
   50       -0.000  -0.000  -0.000  -0.000
   51       -0.000  -0.000   0.000  -0.000
   52       -0.000  -0.000  -0.000  -0.000
   53       -0.000  -0.000   0.000  -0.000
   54       -0.000  -0.000   0.000  -0.000
   55       -0.000  -0.000   0.000  -0.000
   56       -0.000  -0.000   0.000  -0.000
   57       -0.000  -0.000   0.000  -0.000
   58       -0.000  -0.000   0.000  -0.000
   59       -0.000  -0.000   0.000  -0.000
   60       -0.000  -0.000   0.000  -0.000
   61       -0.000  -0.000   0.000  -0.000
   62       -0.000  -0.000   0.000  -0.000
   63       -0.000  -0.000   0.000  -0.000
   64       -0.000  -0.000   0.000  -0.000
   65       -0.000  -0.000  -0.000  -0.000
   66       -0.000  -0.000   0.000  -0.000
   67       -0.000  -0.000  -0.000  -0.000
   68       -0.000  -0.000   0.000  -0.000
   69       -0.000  -0.000   0.000  -0.000
   70       -0.000  -0.000  -0.000  -0.000
   71       -0.000  -0.000   0.000  -0.000
   72       -0.000  -0.000  -0.000  -0.000
--------------------------------------------------
tot         -0.000  -0.000   0.000  -0.000
 

 total amount of memory used by VASP MPI-rank0   111085. kBytes
=======================================================================

   base      :      30000. kBytes
   nonl-proj :      16445. kBytes
   fftplans  :       6180. kBytes
   grid      :      15593. kBytes
   one-center:        146. kBytes
   wavefun   :      42721. kBytes
 
  
  
 General timing and accounting informations for this job:
 ========================================================
  
                  Total CPU time used (sec):      193.786
                            User time (sec):      187.904
                          System time (sec):        5.882
                         Elapsed time (sec):      196.350
  
                   Maximum memory used (kb):      314520.
                   Average memory used (kb):          N/A
  
                          Minor page faults:        92474
                          Major page faults:          106
                 Voluntary context switches:         2889
