72
Lattice="12.411611394873939 -1.6447104675e-06 -3.4004306577e-06 -1.6573422015e-06 12.506934106099886 1.4024368234e-06 -3.9024619998e-06 1.5972221839e-06 11.065299932844878" Properties=species:S:1:pos:R:3:forces:R:3:magmoms:R:1 energy=-300.9014638 stress="0.0030931885009815273 0.002036658516693792 -0.0015798419769326847 0.002036658516693792 -0.006322100752501507 -0.00047258368407718563 -0.0015798419769326847 -0.00047258368407718563 -0.0083027552688653" dipole="_JSON [[0.0, 0.0, 0.0]]" magmom=0.0018882 free_energy=-300.9014638 pbc="T T T"
Ge       0.92088657       0.41324398       1.65082387      -0.24563172       0.20787886      -0.50736662       0.00000000
Ge       2.91838184      11.11137990       4.12221644       0.06386080      -0.45254127      -0.16714537       0.00000000
Ge       7.22006931       2.67207855       4.22269945      -0.48158788      -0.26462733      -0.13837705       0.00000000
Ge       6.96769718       6.88747482       4.07361660      -0.04439018      -0.07278217       0.33566441       0.00000000
Ge       6.85522513      11.03692010       4.01435184       0.66176672      -0.48063624      -0.23945884       0.00000000
Ge      11.05861064       2.66773443       4.07264210       0.31230940      -0.33889591      -0.01930481       0.00000000
Ge      11.17553512       6.93837500       4.12773264       0.21054483      -0.02900653      -0.10135393       0.00000000
Ge      11.09097831      10.94365860       4.15109727      -0.10044353      -0.03887484      -0.20174570      -0.00000000
Ge       1.00495377       2.03732931       6.92017323      -0.49485121       0.19803056       0.37046222       0.00000000
Ge       1.15438936       6.39023111       7.20818535      -0.12053531      -0.53458839       0.00043026       0.00000000
Ge       0.74489319      10.09698005       7.00351017       0.35636409       0.13826243      -0.15528562       0.00000000
Ge       5.05242875       1.90542657       6.89678905      -0.23685632      -0.15335602       0.30810294       0.00000000
Ge       5.10500328       5.97458838       7.03226573      -0.19510148       0.09300816      -0.01065371       0.00000000
Ge       5.30449085      10.34505692       7.00168429       0.13966120       0.11058092      -0.46956143       0.00000000
Ge       9.44668374       2.22909704       6.84672543       0.05146921       0.08897644       0.49490704       0.00000000
Ge       9.14763576       6.09839598       6.86631941      -0.01621777      -0.34337464       0.11692372       0.00000000
Ge       2.89801694       6.74201816       4.01455026       0.13073423      -0.04056828       0.23142167       0.00000000
Ge       2.88924401       2.48834646       4.11503241      -0.08158271       0.53622902      -0.19508233       0.00000000
Ge       9.13402805      10.23997839       7.13470538       0.51888059       0.71817077      -1.03917280      -0.00000000
Ge      11.08555232       8.12991124       9.58149218      -0.23700074      -0.10340963       0.50008713       0.00000000
Ge      11.45427665      12.44802705       9.46590665      -0.60623341       0.16611037       0.06740873      -0.00000000
Ge       0.85234268       4.57931136       1.52823907       0.14388047       0.06403936       0.26945002       0.00000000
Ge       0.93932422       8.98617242       1.43087372      -0.12692889      -0.26247619       0.08246635       0.00000000
Ge       5.22383209       0.40087522       1.42920192      -0.24803254      -0.02624390      -0.64142837       0.00000000
Ge       5.01339525       4.43857053       1.50303001      -0.00776238       0.33335233       0.25530647       0.00000000
Ge       9.11049512       0.77711734       1.35470730       0.27875465      -0.75051716      -0.12418281      -0.00000000
Ge       9.27540441       4.94064083       1.22758279      -0.08810173      -0.43286979       0.22884352       0.00000000
Ge       4.93493028       8.85437290       1.33713735      -0.07172496       0.11732431       0.41210466       0.00000000
Ge       2.83758722       3.90801897       9.86311741       0.39818741      -0.09082886      -0.66429949       0.00000000
Ge       3.30353954       8.20033695       9.43475965      -0.91994920       0.99579963       0.57757955       0.00000000
Ge       2.98264507      12.29058976       9.51679113       0.05066628      -0.09417582       0.07320939       0.00000000
Ge       7.00207056       3.69983647       9.63156333       0.44096445       0.47119514      -0.14820207       0.00000000
Ge       7.26450174       8.03436196       9.75354028      -0.29251088       0.23633696      -0.18958909       0.00000000
Ge       7.32285975      12.42261659       9.42104365       0.17356038       0.04928791       0.13455990       0.00000000
Ge      11.24216588       4.23499772       9.89987351       0.41094385      -0.23044631      -0.73347107       0.00000000
Ge       9.22901895       8.77547188       1.56587498      -0.11192467       0.15475846       0.16923891      -0.00000000
Se      11.20203803       0.37852068       6.95060772       0.48763020      -0.20177448       0.15394800      -0.00000000
Se       2.99927401       4.33674040       7.23048763      -0.09122523       0.43522669       0.38062201      -0.00000000
Se       2.88156650       8.35288989       6.98178402      -0.32430202       0.16633033      -0.14300812      -0.00000000
Se       6.94728197       0.06698754       6.88987269      -0.03429587      -0.09780676       0.28581452      -0.00000000
Se       7.10877168       4.34634374       6.99765010      -0.20846235      -0.24455155       0.41137522      -0.00000000
Se       7.27560209       8.62718722       7.13099408      -0.81009663      -0.74878704       0.35235398      -0.00000000
Se      11.04440020       4.35951401       7.23489362       0.06405598      -0.26417356       0.18880766      -0.00000000
Se       9.08761753       0.07161025       3.84994620      -0.15623203       0.17367553       0.06072072      -0.00000000
Se       0.86505458       0.19255132       4.11696688      -0.03940992       0.15649553       0.05678545      -0.00000000
Se       0.66036138       4.34661345       4.06869041       0.41450920      -0.09871162      -0.12705538      -0.00000000
Se       0.97474965       8.54839985       4.00990648      -0.29100237      -0.13452850      -0.23590370      -0.00000000
Se       4.98991218       0.25130812       3.87749994      -0.29615174       0.27740901       0.55988053      -0.00000000
Se       5.15976422       4.33958174       4.03383111      -0.32363182      -0.20266365      -0.13880127      -0.00000000
Se       4.91006248       8.54192577       3.93848998       0.07177035      -0.16904394      -0.34606400      -0.00000000
Se       2.77325462       0.25984151       7.00573032       0.77934810      -0.39178073      -0.01445216      -0.00000000
Se      11.09883981       8.48262828       7.11583246       0.26287298      -0.27774138      -0.34988718      -0.00000000
Se      11.26294958      10.54445475       1.60755015       0.00579888       0.17094029       0.09435134      -0.00000000
Se       2.86733546       2.26047985       1.58446971       0.21137602      -0.05590001       0.10817206      -0.00000000
Se      11.22305822       2.25003855       1.55711939       0.15744769      -0.07026455       0.13126662      -0.00000000
Se       9.11662581       4.23512147       3.78797333       0.19752405       0.93387352      -0.00223928      -0.00000000
Se       0.91056968       2.23385607       9.56910767      -0.28813327       0.29141042      -0.23794976      -0.00000000
Se       0.56803598       6.43841156       9.76512535       0.52299226      -0.34529518      -0.54671698      -0.00000000
Se       0.86449259      10.69999042       9.48736243       0.11510080      -0.50560725      -0.05171470      -0.00000000
Se       5.01273362       2.14473176       9.48990967      -0.48272194      -0.16233677      -0.18791033      -0.00000000
Se       5.02345137       6.54474435       9.58228362       1.15335651      -1.00750271      -0.23917987      -0.00000000
Se       4.89059603      10.36370044       9.42933137      -0.08619295       0.47608336       0.36532141      -0.00000000
Se       9.06340910       2.10773735       9.49785666      -0.31172334      -0.00746156      -0.45281633      -0.00000000
Se       9.05922591       6.22590928       9.43958111       0.13218407       0.46725754      -0.06380725      -0.00000000
Se       9.27764216      10.63995561       9.50156402      -0.06230547       0.38227427       0.88793892      -0.00000000
Se       2.98905103       6.16062109       1.55857979      -0.16779559       0.26850871      -0.07917892      -0.00000000
Se       2.91648254      10.68229295       1.49223703       0.09535798       0.00616325       0.27025482      -0.00000000
Se       7.03454587       2.23313483       1.57981425       0.00906273       0.28275124       0.20686059      -0.00000000
Se       7.26453139       6.45808172       1.61880637      -0.56742346       0.06963232      -0.45916298      -0.00000000
Se       6.94091805      10.48923246       1.42389864       0.07029918       0.30518800       0.30576386      -0.00000000
Se      11.26661490       6.52653718       1.53540806      -0.11140776       0.18343850       0.41375218      -0.00000000
Se       9.05560780       8.61643476       4.12421473       0.28664577       0.00015037      -0.44062747      -0.00000000
