72
Lattice="12.405652051152984 -1.6439207719e-06 -3.398797966e-06 -1.6581244785e-06 12.512837465264425 1.4030987833e-06 -3.9061646796e-06 1.598737638e-06 11.075798756903001" Properties=species:S:1:pos:R:3:forces:R:3:magmoms:R:1 energy=-300.701749 stress="0.002208980785297451 0.0009997031720511797 -0.0011558492215891407 0.0009997031720511797 -0.008208534008836787 0.000960778112734773 -0.0011558492215891407 0.000960778112734773 -0.005785065928232025" dipole="_JSON [[0.0, 0.0, 0.0]]" magmom=0.0016514 free_energy=-300.701749 pbc="T T T"
Ge       0.79547215       0.58506903       1.32366589      -0.14276251       0.15463868      -0.08968915       0.00000000
Ge       2.90949899      11.08585301       4.11189547      -0.01343884      -0.44527559      -0.02160920       0.00000000
Ge       7.04150422       2.77543582       4.01197856       0.21069467      -0.22327568       0.68985454       0.00000000
Ge       7.18014604       6.84286142       4.15958949      -0.55505759      -0.30192942       0.50203324      -0.00000000
Ge       7.14730970      11.10211304       4.15824103       0.03688451      -0.38816555      -0.28590140       0.00000000
Ge      11.20392842       2.71585079       3.98168027       0.03812606      -0.31226604       0.06006032       0.00000000
Ge      11.18948716       6.80114415       4.13063192      -0.15833489       0.03973058      -0.09899072      -0.00000000
Ge      11.17998407      10.94725702       3.93543742      -0.33036871      -0.12793380      -0.30235450       0.00000000
Ge       1.23214578       1.78711083       6.88756063      -0.56140201       0.47983500       0.20627107       0.00000000
Ge       1.04808319       6.18883951       6.96639352       0.31525636      -0.06165573       0.17203176      -0.00000000
Ge       0.99267007      10.21394681       6.79936116      -0.08872667      -0.49499461      -0.21575033       0.00000000
Ge       5.08369555       1.79248156       7.03072334      -0.50591910       0.30844987       0.02792590       0.00000000
Ge       5.31318648       5.96561499       6.94731897      -0.39059732       0.54424150      -0.04573493       0.00000000
Ge       5.18100497      10.21214299       6.99123287       0.08588345       0.29089731       0.04332730       0.00000000
Ge       9.60303371       1.79237771       6.92404937      -0.31716673       0.37863158       0.25308108       0.00000000
Ge       8.97436087       5.86914354       7.08446428       1.19282640       0.87845436      -0.09444398      -0.00000000
Ge       2.76902300       6.92943078       4.24696414       0.56495116      -0.10888295      -0.16512811       0.00000000
Ge       2.89755029       2.58131682       4.13741628      -0.08367053       0.42009728      -0.16125476       0.00000000
Ge       9.39903859      10.36163639       6.70001577      -0.32658400      -0.03862189       0.32828991       0.00000000
Ge      11.23157270       8.25090805       9.51861205      -0.46877973      -0.36269086       0.31999352      -0.00000000
Ge      11.37671926      12.08164121       9.83823105      -0.59528017       0.41491019      -0.17900731       0.00000000
Ge       0.91062283       4.97147110       1.55276646       0.30608368      -0.89716384      -0.68024712       0.00000000
Ge       1.06584306       8.83351376       1.35807812      -0.54120583      -0.22649814       0.24581582       0.00000000
Ge       4.91469179       0.71494082       1.44425856      -0.01114412      -0.01341466      -0.25277006       0.00000000
Ge       4.90053963       4.84257617       1.55079680       0.08810512       0.01056153       0.02995883       0.00000000
Ge       9.05163513       0.56790909       1.38389126       0.30568018       0.10749384       0.30010048       0.00000000
Ge       9.14561802       4.74703433       1.49691392      -0.08783509       0.07705720      -0.06360830       0.00000000
Ge       5.08754445       8.94433704       1.61302964      -0.03227671      -0.44896294       0.36633552       0.00000000
Ge       3.17742179       4.04140852       9.84441151      -0.04817131      -0.12288586      -0.68200542       0.00000000
Ge       3.16668145       8.28421759       9.80618158      -0.29093076       0.41306007      -0.16326208       0.00000000
Ge       2.70169485      12.25262809       9.65693042       0.29252685      -0.35092624      -0.30058537       0.00000000
Ge       7.03263278       3.93406203       9.85560775       0.10807888      -0.31663814      -0.23815912       0.00000000
Ge       6.95574186       8.23152548       9.64008932       0.32803073      -0.09893828      -0.09901304       0.00000000
Ge       7.30973986      12.47163987       9.67474228       0.32315130       0.02205233      -0.09597334       0.00000000
Ge      11.45393018       4.15615871       9.51924848       0.25362298      -0.22554750      -0.15831837      -0.00000000
Ge       8.97362522       8.96559460       1.20824184       0.19207958      -0.10517829       0.36263182      -0.00000000
Se      11.48942123       0.12395524       7.24563071       0.02976756       0.23063754      -0.03319283      -0.00000000
Se       3.10543644       4.56582928       7.08094596      -0.17432984      -0.51478577       0.56347806      -0.00000000
Se       2.71298995       8.20791697       7.25733876      -0.00674000       0.66591049      -0.25872268      -0.00000000
Se       6.87397299       0.13719751       7.18841751       0.25631427      -0.82079751      -0.19922235      -0.00000000
Se       7.21557343       4.26413666       7.25798100      -1.25665158      -1.07914577       0.17161032      -0.00000000
Se       7.20787038       8.66371252       7.09433824      -0.01127196      -0.21050448       0.17855718      -0.00000000
Se      11.04233860       4.00598192       6.98079522      -0.05038763       0.38902437       0.51580552      -0.00000000
Se       9.12736863       0.23254385       3.99516158       0.12600332       0.02117885      -0.33909160      -0.00000000
Se       0.72683644       0.06229821       3.82004173       0.30192140       0.46125874       0.17811045      -0.00000000
Se       0.75429074       4.40439619       3.96714190       0.46937722      -0.13282197       0.57943748      -0.00000000
Se       0.81916027       8.55745165       3.99196804      -0.21493566       0.18857172      -0.34337735      -0.00000000
Se       5.02626475       0.12735591       3.91805840      -0.24744410       0.51246311       0.25169217      -0.00000000
Se       4.94317510       4.32711031       4.07112125      -0.25898466      -0.02324031      -0.21421079      -0.00000000
Se       5.04002365       8.45621054       4.25355606      -0.29200768       0.27369306      -0.59574600      -0.00000000
Se       2.94219588      -0.00719482       7.04206208       0.35088818      -0.13166759       0.38968398      -0.00000000
Se      11.13966596       8.59273407       7.02797870       0.41255670      -0.33911570      -0.45595574      -0.00000000
Se      11.14456337      10.52696969       1.34555949      -0.05499341      -0.00597862       0.49715138      -0.00000000
Se       2.73499436       2.37314127       1.56185177       0.40843470      -0.30464840       0.28267150      -0.00000000
Se      11.14647664       2.26728433       1.45306673      -0.06038800      -0.03996172      -0.07453371      -0.00000000
Se       9.25739816       4.42783679       4.02198077      -0.49643651      -0.05230407      -0.13289032      -0.00000000
Se       1.30485925       2.33835611       9.44805840      -0.88161037       0.09341129      -0.21826382      -0.00000000
Se       0.60371187       6.33887908       9.49005188      -0.00658658      -0.27761438      -0.17596696      -0.00000000
Se       0.72499907      10.40482255       9.29616348       0.76668085       0.00204069       0.64290477      -0.00000000
Se       4.97976900       2.15316809       9.58832395       0.03990436       0.34750944      -0.07571434      -0.00000000
Se       4.89980560       6.53092757       9.53921171       0.98170538      -0.32842423      -0.16490032      -0.00000000
Se       4.77153960      10.40486062       9.53439410      -0.12142756       0.06629714       0.01374015      -0.00000000
Se       8.88197993       2.15356307       9.54391017       0.25641865      -0.34775738      -0.06449330      -0.00000000
Se       9.00160585       6.48923325       9.59180373       0.20242422      -0.06654963      -0.08557846      -0.00000000
Se       9.24490639      10.57314234       9.26591177      -0.16608043       0.61563858       0.30001131      -0.00000000
Se       2.92445763       6.61355451       1.64701634       0.05344451      -0.05589330       0.25493534      -0.00000000
Se       2.94208026      10.45841188       1.59534872       0.28260603       0.82287235       0.01898974      -0.00000000
Se       7.08161322       2.34610245       1.58073723      -0.21635838      -0.08642863      -0.49873366      -0.00000000
Se       6.88386884       6.49531636       1.70738566       0.34138455      -0.24777722      -0.49621640      -0.00000000
Se       7.02326826      10.66718246       1.53391922       0.07409393       0.18597256       0.34045883      -0.00000000
Se      11.24124066       6.34141684       1.57123318      -0.57254810       0.78770659       0.09583426      -0.00000000
Se       9.02651929       8.46306193       3.85469319       0.64292730       0.53296487      -0.36216629      -0.00000000
