72
Lattice="12.413056621636535 -1.6449019801e-06 -3.400826609e-06 -1.6568955032e-06 12.503563150991232 1.402058829e-06 -3.9004586085e-06 1.5964022243e-06 11.05961938394009" Properties=species:S:1:pos:R:3:forces:R:3:magmoms:R:1 energy=-300.29899382 stress="0.004442827717986385 0.0010421254924855286 0.00043569416189049415 0.0010421254924855286 -0.00433193330241859 -0.0002037277200044386 0.00043569416189049415 -0.0002037277200044386 -0.013537011000179488" dipole="_JSON [[0.0, 0.0, 0.0]]" magmom=0.0018082 free_energy=-300.29899382 pbc="T T T"
Ge       0.87067252       0.57883928       1.45467743       0.35470382      -0.24920762       0.23324053       0.00000000
Ge       2.88973304      10.92090433       4.09759090       0.06989704       0.37844346       0.16272424       0.00000000
Ge       6.91130594       2.44770592       4.05556522       0.14905044      -0.00891300       0.28447812       0.00000000
Ge       7.10979585       6.85196356       4.00905717      -0.22476325      -0.13394795      -0.20365779       0.00000000
Ge       7.17308336      10.81394248       3.95299012      -0.61253823       0.04088804       0.08307074       0.00000000
Ge      11.15283287       2.71275527       4.02356913      -0.09933177       0.06679138       0.31624648       0.00000000
Ge      11.34192846       6.76453566       4.12715876      -0.24415269      -0.17184084      -0.04853222       0.00000000
Ge      11.14521956      10.95062336       4.31450994       0.33741685       0.13950075      -0.07679008       0.00000000
Ge       0.73046774       1.88869786       7.13691911       0.79836527       0.28304539      -0.51168214       0.00000000
Ge       1.21371835       6.16341547       7.05434027      -0.60905126       0.53214940      -0.21467473       0.00000000
Ge       0.79408772      10.13203441       7.02136730      -0.26685875       0.09238456       0.07253446       0.00000000
Ge       4.89502992       1.83184950       6.90595471       0.31652139      -0.10018493      -0.31690890      -0.00000000
Ge       4.94175239       6.08062354       7.11242466       0.56423329       0.37441295      -0.20998998       0.00000000
Ge       5.29278283      10.26176093       6.80485808       0.01110843       0.38273142       0.37059667      -0.00000000
Ge       9.57426284       2.40941470       6.86924105      -0.67236492      -0.50042574       0.12087747       0.00000000
Ge       8.99580286       5.97873672       6.67706507       0.26288301       0.16561874       0.20060145       0.00000000
Ge       2.83141621       6.64965785       3.99611767       0.33919082       0.10305196      -0.01821666       0.00000000
Ge       2.91528460       2.61069324       4.08907000       0.21465414      -0.43815590       0.13150706      -0.00000000
Ge       9.26622312      10.29581770       7.04929518      -0.04070456      -0.44035198       0.57160013       0.00000000
Ge      11.27358332       8.01576851       9.91296571       0.22775573       0.01278756      -0.79589998       0.00000000
Ge      11.21850013      12.48461608       9.29558681       0.14379770      -0.31626699       0.65103463       0.00000000
Ge       0.94004729       4.71931305       1.49548519      -0.15825068      -0.45092481       0.24002157       0.00000000
Ge       0.87428250       8.86747449       1.51012258      -0.29719113       0.07620289      -0.31299481       0.00000000
Ge       5.28052222       0.29279818       1.31418577      -0.24845075       0.35857401       0.49597365      -0.00000000
Ge       5.13096654       4.61329549       1.39778402      -0.07375669       0.03763356      -0.06966767      -0.00000000
Ge       9.22555915       0.58047301       1.52993542      -0.05506801      -0.12839681      -0.09705184       0.00000000
Ge       9.07084009       4.72978504       1.43717373       0.02256466       0.26573803      -0.23343129       0.00000000
Ge       4.79732191       8.97298966       1.25558511       0.27062995      -0.26825744      -0.17250804       0.00000000
Ge       3.03232201       3.90556366       9.65456265      -0.34011749       0.12625308       0.75000025       0.00000000
Ge       3.22095525       8.47356821       9.55209629       0.22721923      -0.16307823      -0.24037412       0.00000000
Ge       3.04348642      12.46335523       9.68091217      -0.39296454      -0.08306339      -0.19227548      -0.00000000
Ge       7.14037438       4.01262067       9.50609193      -0.29481136      -0.01220787       0.54489032       0.00000000
Ge       7.30155913       8.05110211       9.62831207      -0.39282481       0.21490248       0.43100788       0.00000000
Ge       7.45653357      12.43066775       9.46052705      -0.54472068       0.35559170       0.25391307      -0.00000000
Ge      11.10493031       4.38347102       9.82432112       0.47065989      -0.39723908       0.48265842       0.00000000
Ge       9.26930046       8.79713842       1.69595934       0.23069010       0.18216504      -0.34515273       0.00000000
Se      11.16689835       0.26059467       6.80466379      -0.09637650      -0.07530945       0.39729258      -0.00000000
Se       3.00872363       4.45521520       7.25115770       0.06202210      -0.64043113      -0.68235519      -0.00000000
Se       2.72539566       8.40707695       6.94272142       0.55696939      -0.02237269       0.53423784      -0.00000000
Se       7.05588032       0.24019555       6.99930597      -0.27134807      -0.51626287      -0.05099352      -0.00000000
Se       7.04381672       4.34380666       7.07324749      -0.34344718      -0.15483874      -0.63896090      -0.00000000
Se       7.04919979       8.38788062       7.17135342       0.35483882       0.55282125      -0.52022081      -0.00000000
Se      11.08756114       4.37502952       7.38468827       0.39117215       0.10741670      -1.08908772      -0.00000000
Se       9.04815063       0.03403999       4.05057243       0.23732165       0.41999974      -0.30194578      -0.00000000
Se       0.88975648       0.16436376       4.05357304      -0.07437541      -0.12637413      -0.25485464      -0.00000000
Se       0.80053703       4.27145842       4.17447498      -0.07495618       0.52418652      -0.58498956      -0.00000000
Se       0.88176304       8.46312432       3.98510683       0.21556829      -0.04868752       0.13406890      -0.00000000
Se       4.93991898       0.23112236       3.93966957       0.34696677      -0.43805565      -0.29538301      -0.00000000
Se       5.05940463       4.18040448       3.90658322      -0.21255364       0.58157116       0.17432455      -0.00000000
Se       4.93406231       8.31144864       3.67813244      -0.07740388       0.25128066       0.67207410      -0.00000000
Se       2.93780280       0.20968508       7.14236287      -0.59531449      -0.19952877      -0.06474129      -0.00000000
Se      11.15434216       8.46064804       7.25886629      -0.02287659       0.14691284       0.18260125      -0.00000000
Se      11.26964523      10.61079217       1.82606081      -0.13338845      -0.29069751      -0.49780302      -0.00000000
Se       2.97766813       2.14884408       1.63652842      -0.31594556       0.26992060      -0.35365876      -0.00000000
Se      11.29513963       2.22933116       1.58393618      -0.49358818       0.23415140      -0.14409197      -0.00000000
Se       9.20670119       4.56781408       3.90274713      -0.17297690      -0.69359305       0.33842226      -0.00000000
Se       0.90290431       2.31327351       9.58209223      -0.36351853       0.02550715       0.28602674      -0.00000000
Se       0.89392052       6.36961224       9.53943997      -0.53170329       0.11364461       0.44501464      -0.00000000
Se       0.71078203      10.64851428       9.51796047       0.19120916       0.09691316      -0.08375492      -0.00000000
Se       4.84004779       2.19771105       9.37408230       0.67463695      -0.03281811       0.47851549      -0.00000000
Se       5.18579795       6.42453003       9.59579616      -0.52948854       0.44864422       0.00384016      -0.00000000
Se       4.85040171      10.66344074       9.38621081       0.29008326      -0.57647972      -0.26153974      -0.00000000
Se       8.99881128       2.27321372       9.45581953       0.45410925      -0.25662642      -0.17667154      -0.00000000
Se       9.11582413       6.26626667       9.25817671       0.07361176       0.28896341       0.35938575      -0.00000000
Se       9.22311579      10.62331483       9.68871867       0.24493805       0.10559565      -0.89360455      -0.00000000
Se       2.97265121       6.22321189       1.48588631      -0.04406955       0.40604268       0.17051370      -0.00000000
Se       2.82993506      10.60153289       1.57763951       0.00731165       0.23486147      -0.07534246      -0.00000000
Se       7.08693544       2.27137695       1.56029750       0.25138895      -0.36066606      -0.30214303      -0.00000000
Se       7.07790312       6.53107409       1.43329405       0.24202593      -0.43589332       0.42932368      -0.00000000
Se       6.88648616      10.58760500       1.40207596       0.33699191      -0.06338812       0.25771284      -0.00000000
Se      11.16876059       6.46170166       1.54974226       0.01183276       0.07823944       0.11007088      -0.00000000
Se       9.11623112       8.62453148       4.17105017      -0.03308801      -0.28105323      -0.03845163      -0.00000000
72
Lattice="12.41919102094133 -1.645714873e-06 -3.402507261e-06 -1.6567480717e-06 12.502450577068151 1.401934073e-06 -3.8989322265e-06 1.5957774979e-06 11.055291379083677" Properties=species:S:1:pos:R:3:forces:R:3:magmoms:R:1 energy=-300.60140401 stress="0.008587728469742505 0.0015406028760846092 0.000757625073441591 0.0015406028760846092 -0.002468957072925477 0.0007068312789600781 0.000757625073441591 0.0007068312789600781 -0.008461838816016757" dipole="_JSON [[0.0, 0.0, 0.0]]" magmom=0.0018333 free_energy=-300.60140401 pbc="T T T"
Ge       0.92038986       0.64563682       1.25548968      -0.32965776       0.06767115       0.31854605       0.00000000
Ge       2.90779353      10.90778096       4.17310588      -0.07350511      -0.11385863      -0.46506841       0.00000000
Ge       6.72777366       2.29349144       3.95940282       0.39637598       0.29178085      -0.11198147       0.00000000
Ge       7.07784534       6.70188656       3.99681095      -0.03436311       0.21681143      -0.05788594       0.00000000
Ge       7.26534460      10.67156418       4.09706102       0.23475518       0.23537246      -0.47404266       0.00000000
Ge      11.18765075       2.77896517       4.14040798       0.36080530      -0.52752801      -0.06721511       0.00000000
Ge      11.30767797       6.49571245       4.20043940       0.15274340       0.39694652      -0.41372235       0.00000000
Ge      11.47059464      11.04929609       4.32768357      -0.51155000      -0.21545715      -0.12072852      -0.00000000
Ge       1.02333344       1.97470467       7.05397864      -0.65463620       0.10911397      -0.04497460       0.00000000
Ge       0.97138519       6.06383129       6.87166620       0.13869883       0.03672724      -0.00076394       0.00000000
Ge       0.80109908      10.22043826       6.99587304       0.21020546      -0.08482883       0.25490174       0.00000000
Ge       4.97421467       1.65367496       6.94254690      -0.10911852       0.26638426       0.18470174       0.00000000
Ge       5.11734324       6.34874614       6.94843713      -0.26246464      -0.13711075       0.38742113       0.00000000
Ge       5.29158240      10.48714056       6.74427966      -0.30489838      -0.28645943       0.26757600       0.00000000
Ge       9.20822552       2.08384504       6.89884334       0.44975661      -0.33587471       0.57781444       0.00000000
Ge       9.12538847       5.88824069       6.82268311      -0.06574298       0.31092302       0.12569186      -0.00000000
Ge       3.08553862       6.68896377       3.98990031      -0.30206454       0.18580837       0.42608877       0.00000000
Ge       3.08034877       2.50753234       4.07975019      -0.23752915       0.29377795      -0.06627098       0.00000000
Ge       9.33692924      10.09529425       7.08556592      -0.06015291       0.66028797      -0.27394016      -0.00000000
Ge      11.57898109       7.97090686       9.82823818      -0.64671711       0.24429887      -0.07097149      -0.00000000
Ge      11.16934185      12.34690226       9.70729260      -0.27175320       0.07264383      -0.21103252      -0.00000000
Ge       0.95274806       4.62048935       1.40478710      -0.08023442       0.25711186       0.40686753       0.00000000
Ge       0.61861718       8.69000248       1.44845750       0.34468015       0.26403097       0.21613883      -0.00000000
Ge       5.11694013       0.50706351       1.45311343      -0.02935875      -0.24896398      -0.38688646       0.00000000
Ge       4.89370822       4.79711311       1.24772628       0.17250413       0.09113568       0.09822850       0.00000000
Ge       9.34770047       0.28151525       1.61393536      -0.28294193       0.26079173      -0.20970148      -0.00000000
Ge       8.98659254       4.59595332       1.65026566       0.21587213      -0.09265240      -0.40112383       0.00000000
Ge       4.86209439       9.00810964       1.32545659       0.47069571      -0.15943894       0.09726915       0.00000000
Ge       2.97507637       3.98973116       9.60479024       0.23705198      -0.18195660      -0.25821102       0.00000000
Ge       3.17028656       8.75924408       9.62236076       0.21664813      -0.43626649       0.22694964       0.00000000
Ge       2.86628880      12.35881684       9.67817332       0.30466061      -0.10343515       0.39984640       0.00000000
Ge       7.10944699       4.28264329       9.42566214       0.20142699      -0.37355042       0.81424761      -0.00000000
Ge       7.04007909       8.26049077       9.60927510       0.21447903       0.04839383       0.07959724      -0.00000000
Ge       7.18786321      12.72641809       9.70720091       0.39967825      -0.19735433      -0.29708839      -0.00000000
Ge      11.50501837       4.20455563       9.63579275      -0.70140723       0.40034000      -0.30763273      -0.00000000
Ge       9.34353615       8.80469896       1.53169366      -0.29469164       0.02588623      -0.55058244      -0.00000000
Se      11.14630354       0.24693939       7.17596473       0.14339968       0.25151824      -0.09627065      -0.00000000
Se       2.88624920       4.31136823       7.04658121       0.19458021       0.14258249       0.19888153      -0.00000000
Se       2.96956759       8.65946490       7.18812898      -0.48793914      -0.12663707      -0.63343298      -0.00000000
Se       6.96062786       0.00386257       7.14129160       0.24533624       0.62194320       0.03684981      -0.00000000
Se       6.82788897       4.35696105       7.01232301       0.40280791       0.14967080      -0.63235644      -0.00000000
Se       7.09227854       8.66504070       7.06482782      -0.18617241      -0.46700335      -0.08005455      -0.00000000
Se      11.22711850       4.32017925       6.97267548      -0.20271146      -0.10192435       0.50700952      -0.00000000
Se       9.14010108       0.16915467       4.09125157       0.11876498      -0.46188510       0.25166209      -0.00000000
Se       0.92968098       0.14215975       3.85288559       0.25002119       0.36011493      -0.00301103      -0.00000000
Se       0.94782645       4.40539357       3.97330577      -0.23383028      -0.21887430      -0.25665351      -0.00000000
Se       0.91135286       8.37365837       3.96533661      -0.22700297      -0.08319530       0.11558812      -0.00000000
Se       5.10809466      -0.03553375       3.91951489      -0.24539217       0.42218989       0.32313024      -0.00000000
Se       4.88426513       4.35653611       3.80958951       0.31821268      -0.40800440      -0.02478184      -0.00000000
Se       4.98864417       8.47577489       3.83753667       0.15711200      -0.03752058       0.05194063      -0.00000000
Se       2.67533554       0.07760625       7.22907032       0.67365737       0.17816944      -0.55493354      -0.00000000
Se      11.27509202       8.47448209       7.33782333       0.19395930      -0.22967218      -0.07533810      -0.00000000
Se      11.23484198      10.58885107       1.73526094       0.06287080      -0.19502516       0.19062118      -0.00000000
Se       2.88496313       2.32389964       1.53715786       0.13731944      -0.11915086       0.09013130      -0.00000000
Se      11.07334955       2.26814285       1.61704363       0.61011268      -0.11941950      -0.04052847      -0.00000000
Se       9.05831248       4.15208208       4.12790586      -0.40044554       0.46880103      -0.02036627      -0.00000000
Se       0.73808974       2.37726560       9.61017808       0.83959355      -0.46146267      -0.21376236      -0.00000000
Se       0.93939558       6.26686313       9.40150060       0.05734414      -0.06269971       0.17153218      -0.00000000
Se       0.81561737      10.68615790       9.61764338      -0.14890992      -0.35145692      -0.37478203      -0.00000000
Se       5.12038127       2.26302760       9.45290703      -0.50013938       0.18316552      -0.18671602      -0.00000000
Se       4.97499557       6.62208911       9.52718222      -0.06371777      -0.06487635      -0.39509397      -0.00000000
Se       4.95037805      10.67067093       9.33513578      -0.15554504       0.20492862       0.19362511      -0.00000000
Se       9.13435738       2.37238644       9.46363568      -0.50036457       0.02026566      -0.33858707      -0.00000000
Se       9.05881536       6.60849073       9.35168872       0.05201042      -0.51880289       0.03038051      -0.00000000
Se       9.06510675      10.72182401       9.50032065       0.15598255       0.06179854       0.39391894      -0.00000000
Se       2.87286044       6.52263718       1.52584268       0.08681632      -0.36246744      -0.50444531      -0.00000000
Se       2.87232004      10.54685905       1.58625762      -0.29467695       0.13165162       0.27353071      -0.00000000
Se       7.23582090       2.03729204       1.45320651      -0.33457620       0.31535570       0.32221513      -0.00000000
Se       7.09736187       6.38553255       1.47760899      -0.31840391      -0.10715992       0.18278190      -0.00000000
Se       7.14218936      10.57128011       1.51678939      -0.14375979      -0.10572172       0.32145506      -0.00000000
Se      11.08728883       6.37717883       1.62000538       0.33934790      -0.22883685       0.14850212      -0.00000000
Se       9.10869620       8.37833397       3.95832347      -0.06391216       0.07813855       0.53529594      -0.00000000
72
Lattice="12.406394416397584 -1.6440191456e-06 -3.3990013531e-06 -1.6578693149e-06 12.510911904276822 1.4028828648e-06 -3.9054691929e-06 1.5984529852e-06 11.073826727693504" Properties=species:S:1:pos:R:3:forces:R:3:magmoms:R:1 energy=-300.52226484 stress="0.003693549508321474 0.0014387597971870245 -0.0013097148795943785 0.0014387597971870245 -0.006373510640107325 0.0005525987762559668 -0.0013097148795943785 0.0005525987762559668 -0.013065945794133012" dipole="_JSON [[0.0, 0.0, 0.0]]" magmom=0.001763 free_energy=-300.52226484 pbc="T T T"
Ge       0.77566944       0.54536256       1.43251383       0.15645932      -0.16479127      -0.29078551       0.00000000
Ge       2.92459517      11.05177609       4.11011633       0.04075780      -0.00574483      -0.07481319       0.00000000
Ge       7.07272571       2.74330325       4.08287361       0.09714928       0.01284656       0.37778158       0.00000000
Ge       7.04005325       6.78172549       4.16565069       0.02027663       0.41999190       0.41520547       0.00000000
Ge       7.16492469      11.11452076       4.13298683      -0.65037509      -0.55937872      -0.24891610       0.00000000
Ge      11.14003295       2.60787999       4.03081475       0.25600848       0.14043825      -0.02744608       0.00000000
Ge      11.20886683       6.81149286       4.27078907      -0.17341390       0.36516894      -0.70924311       0.00000000
Ge      11.08023282      11.01643266       3.84932572       0.18444290      -0.50652880       0.13184895       0.00000000
Ge       1.24468827       1.96701579       6.89896879      -0.38196176      -0.00127380      -0.02499079       0.00000000
Ge       0.99811966       6.17907454       7.06033679       0.08707521       0.25049022       0.21768794       0.00000000
Ge       1.06331198      10.22411641       6.74624902      -0.41723326      -0.28357378       0.40006832       0.00000000
Ge       4.96601718       1.78967248       7.07026534       0.55319705       0.09155264      -0.20695756       0.00000000
Ge       5.27193958       5.98873863       6.91528639       0.05924046       0.14263526       0.11551714       0.00000000
Ge       5.16883057      10.22554497       7.09365639       0.36447226       0.28859022      -1.09955365       0.00000000
Ge       9.57106965       1.79494818       6.87540314      -0.47882846       0.41767924       0.44226762       0.00000000
Ge       9.16028210       5.91159185       7.13520286      -0.20889388       0.01069386      -0.25603094       0.00000000
Ge       2.84337519       6.85420700       4.18063177       0.22963673       0.19571963       0.28740468       0.00000000
Ge       2.84755202       2.75041327       4.08625769       0.05091263      -0.47742933      -0.00332645       0.00000000
Ge       9.43550995      10.37594267       6.81484678      -0.68989253       0.38574528      -0.81455404       0.00000000
Ge      11.10007936       8.27045628       9.51278292      -0.12935922      -0.28392807       0.01058458       0.00000000
Ge      11.36104329      12.18659612       9.84648557      -0.03469884      -0.09147603      -0.14621194       0.00000000
Ge       0.95621180       4.88655652       1.50765854      -0.37438735      -0.66229702       0.12406232       0.00000000
Ge       1.06799860       8.82661384       1.36059478      -0.40878015       0.05102375       0.09159953       0.00000000
Ge       4.88673348       0.74109372       1.43260048       0.26354112      -0.35569062      -0.52702910       0.00000000
Ge       4.93091729       4.83533634       1.55730245      -0.31310473      -0.65751201       0.26488482       0.00000000
Ge       9.07204720       0.48874448       1.29070448       0.10529061       0.26715737       0.07476748      -0.00000000
Ge       9.25558959       4.83105514       1.41583264      -0.20322197      -0.16395934      -0.28492913       0.00000000
Ge       5.07998955       8.92695589       1.64586264       0.02181932      -0.36199477       0.08692735       0.00000000
Ge       3.19065683       3.95655671       9.76309021      -0.56748475       0.10333687      -0.05724372       0.00000000
Ge       3.07670609       8.34103382       9.75166062       0.30675973      -0.23152579       0.00199756       0.00000000
Ge       2.87035504      12.16336471       9.51429785      -0.26781533       0.02410907       0.23334909       0.00000000
Ge       7.05404698       3.92514540       9.78480915      -0.00834878      -0.36951248       0.34476416       0.00000000
Ge       6.84748681       8.22574772       9.66157713       0.60470198      -0.06229992       0.19689019      -0.00000000
Ge       7.22844257      12.42253328       9.67497419       0.43538445       0.21297712      -0.33635959       0.00000000
Ge      11.49975924       4.19741920       9.47833744       0.11260719      -0.57142813       0.00346516       0.00000000
Ge       8.98207557       8.91781506       1.27052670       0.27509724       0.09552507       0.18242189       0.00000000
Se      11.43483514       0.21206276       7.32386537       0.44794928      -0.10700415      -0.38848652      -0.00000000
Se       2.99212465       4.62994665       7.21861026       0.21191711      -0.78962168      -0.02700782      -0.00000000
Se       2.69548604       8.29601403       7.26375520       0.19951305       0.00237266      -0.46925286      -0.00000000
Se       6.97235346       0.07900596       7.16057904      -0.64711189      -0.17688862      -0.16032180      -0.00000000
Se       7.14809898       4.17807795       7.32976023      -0.23470063       0.18071159      -0.75830775      -0.00000000
Se       7.19048705       8.65039972       7.20749273      -0.08121085      -0.10824039      -0.33865440      -0.00000000
Se      11.08281689       4.02726342       6.93982504       0.01178472       0.41826045       0.64038116      -0.00000000
Se       9.08394344       0.14661356       3.83181900       0.35258471       0.66854364       0.12607650      -0.00000000
Se       0.73173585       0.11756084       3.89784554       0.23502665       0.17932107       0.31013255      -0.00000000
Se       0.83148511       4.34478197       4.09989811      -0.24038929       0.20072661      -0.44345321      -0.00000000
Se       0.86974639       8.56892987       3.90197562      -0.16394054      -0.10968532       0.21340139      -0.00000000
Se       4.95031262       0.26503325       3.85231043       0.07816390      -0.18193425       0.79533442      -0.00000000
Se       4.90380323       4.34401958       4.20296698       0.21840822       0.06896393      -0.66956943      -0.00000000
Se       5.00950191       8.53333634       4.21662081      -0.15883075      -0.08969770      -0.37811418      -0.00000000
Se       3.01915286       0.08142998       7.00410021      -0.27821500      -0.30712505      -0.07532856      -0.00000000
Se      11.08225746       8.57943261       6.92313166       0.81233379      -0.61301006       0.15527446      -0.00000000
Se      11.21334619      10.62139332       1.33538827      -0.22300161      -0.38289641       0.22133051      -0.00000000
Se       2.82572030       2.28919822       1.50161569      -0.13762336       0.31576330       0.39553447      -0.00000000
Se      11.18428695       2.16170405       1.50379454      -0.28659221       0.38829397      -0.06768717      -0.00000000
Se       9.34295522       4.50865367       3.89293978      -0.54255249      -0.42512332       0.30228646      -0.00000000
Se       1.24308483       2.21651361       9.38619489      -0.63671353       0.63366541       0.28511968      -0.00000000
Se       0.58838699       6.31880584       9.60305126      -0.02201873       0.14226090      -0.39480059      -0.00000000
Se       0.78316574      10.29879288       9.36598254       0.21858527       0.73546044      -0.09734221      -0.00000000
Se       4.86586116       2.08851344       9.59759097       0.59507947       0.11728608      -0.07388279      -0.00000000
Se       5.11986443       6.37500339       9.47125112      -0.44528163       0.44878997       0.08235207      -0.00000000
Se       4.80414485      10.41666135       9.47849487      -0.06779389      -0.09574858       1.02159278      -0.00000000
Se       8.85050286       2.06939346       9.54209929       0.27767771      -0.13081456      -0.26380697      -0.00000000
Se       8.96916935       6.57479747       9.57020811       0.34954540      -0.29690781       0.16388698      -0.00000000
Se       9.25525061      10.66689966       9.21820501      -0.03808426       0.24719630       1.34343543      -0.00000000
Se       2.88963427       6.50833117       1.69277007       0.29711184       0.26793699      -0.32521476      -0.00000000
Se       2.99630796      10.48981813       1.59879350       0.00271072       0.56912081      -0.06126044      -0.00000000
Se       7.08705444       2.27612482       1.64064117      -0.13034571       0.15198868      -0.41372055      -0.00000000
Se       6.80850348       6.40800627       1.72904158       0.91662145       0.39801752      -0.54460425      -0.00000000
Se       7.02113333      10.63458612       1.50086532       0.09134654       0.08979524       0.36114254      -0.00000000
Se      11.25861556       6.44332390       1.53577870       0.00694650       0.30625499       0.56557638      -0.00000000
Se       9.05276206       8.57303682       3.81953950       0.09406968      -0.38136917       0.07285354      -0.00000000
72
Lattice="12.405028258520279 -1.6438381108e-06 -3.3986270644e-06 -1.6583814628e-06 12.514776767136112 1.4033162425e-06 -3.9064898624e-06 1.5988707308e-06 11.076720801975716" Properties=species:S:1:pos:R:3:forces:R:3:magmoms:R:1 energy=-300.75288731 stress="0.002873024415811024 -0.00023350335733472215 -0.0007975382947243165 -0.00023350335733472215 -0.006461926191901652 0.00033732905784765276 -0.0007975382947243165 0.00033732905784765276 -0.0050114506514212145" dipole="_JSON [[0.0, 0.0, 0.0]]" magmom=0.001727 free_energy=-300.75288731 pbc="T T T"
Ge       0.79672107       0.65753085       1.20373352      -0.09393900       0.18495534       0.28994026       0.00000000
Ge       2.89739469      11.04042896       4.10859342      -0.04540090      -0.24119530      -0.02411360       0.00000000
Ge       7.04475089       2.76178915       4.06783161      -0.10654077      -0.54933121      -0.06637438       0.00000000
Ge       7.21943931       6.85941403       4.24312027      -0.50725964      -0.40233401      -0.34585587       0.00000000
Ge       7.12768366      11.02091787       4.13113891       0.33638295       0.14943033       0.01879604       0.00000000
Ge      11.27745138       2.76462454       3.94405609      -0.23547993      -0.49297294       0.05547865       0.00000000
Ge      11.14167896       6.80975949       3.99129764       0.08693255      -0.23366437       0.94029690       0.00000000
Ge      11.22913536      10.86319451       3.96899049      -0.17020967       0.40375960      -0.03204925       0.00000000
Ge       1.12506227       1.69300545       6.91214385       0.10237541       0.35788726       0.07379979       0.00000000
Ge       1.15850420       6.18146411       6.90647851       0.29394101      -0.18303607      -0.24583929       0.00000000
Ge       0.90972442      10.10450001       6.81753581       0.21316103      -0.03611574      -0.21570206       0.00000000
Ge       5.11843653       1.84619194       6.99390149      -0.63186313       0.04239337       0.12650850       0.00000000