 running  128 mpi-ranks, with    1 threads/rank, on    2 nodes
 distrk:  each k-point on   64 cores,    2 groups
 distr:  one band on    4 cores,   16 groups
 vasp.6.4.2 20Jul23 (build Oct 12 2023 10:31:02) complex                         
 POSCAR found type information on POSCAR GeSe
 POSCAR found :  2 types and       8 ions
 Reading from existing POTCAR
 scaLAPACK will be used
 Reading from existing POTCAR
 LDA part: xc-table for Pade appr. of Perdew
 POSCAR, INCAR and KPOINTS ok, starting setup
 FFT: planning ... GRIDC
 FFT: planning ... GRID_SOFT
 FFT: planning ... GRID
 WAVECAR not read
 entering main loop
       N       E                     dE             d eps       ncg     rms          rms(c)
DAV:   1     0.133434166409E+03    0.13343E+03   -0.12681E+04  2560   0.765E+02
DAV:   2    -0.248688850286E+02   -0.15830E+03   -0.15334E+03  3760   0.137E+02
DAV:   3    -0.341028738838E+02   -0.92340E+01   -0.92152E+01  3152   0.387E+01
DAV:   4    -0.341701854319E+02   -0.67312E-01   -0.67306E-01  3248   0.380E+00
DAV:   5    -0.341706233186E+02   -0.43789E-03   -0.43789E-03  3184   0.298E-01    0.622E+00
DAV:   6    -0.337096605291E+02    0.46096E+00   -0.10069E+00  3024   0.330E+00    0.389E+00
DAV:   7    -0.336984396733E+02    0.11221E-01   -0.24720E-01  2800   0.176E+00    0.148E+00
DAV:   8    -0.336981211737E+02    0.31850E-03   -0.23794E-02  3024   0.600E-01    0.183E-01
DAV:   9    -0.336983032206E+02   -0.18205E-03   -0.43586E-03  3120   0.276E-01    0.706E-02
DAV:  10    -0.336984742022E+02   -0.17098E-03   -0.46934E-04  2944   0.931E-02    0.232E-02
DAV:  11    -0.336985007583E+02   -0.26556E-04   -0.47616E-05  2848   0.305E-02    0.130E-02
DAV:  12    -0.336985017777E+02   -0.10194E-05   -0.94987E-06  3232   0.129E-02    0.294E-03
DAV:  13    -0.336985025049E+02   -0.72722E-06   -0.10890E-06  1456   0.437E-03
   1 F= -.33698503E+02 E0= -.33698503E+02  d E =-.127324E-10
