 vasp.6.4.2 20Jul23 (build Oct 12 2023 10:31:02) complex                         
 executed on              LinuxNV date 2024.11.02  00:19:37
 running  128 mpi-ranks, with    1 threads/rank, on    2 nodes
 distrk:  each k-point on   64 cores,    2 groups
 distr:  one band on NCORE=   8 cores,    8 groups


--------------------------------------------------------------------------------------------------------


 INCAR:
   ENCUT = 520.000000
   SIGMA = 0.050000
   EDIFF = 1.00e-06
   ALGO = N
   GGA = PE
   PREC = Accurate
   SYSTEM = 01_AOPT
   ICHARG = 0
   ISMEAR = 0
   ISPIN = 2
   ISTART = 1
   ISYM = -1
   KPAR = 2
   LORBIT = 11
   NBANDS = 220
   NELM = 100
   NELMIN = 5
   NPAR = 8
   LASPH = .TRUE.
   LCHARG = .FALSE.
   LWAVE = .FALSE.
   LREAL = .FALSE.

 POTCAR:    PAW_PBE Ge 05Jan2001                  
 POTCAR:    PAW_PBE Se 06Sep2000                  
 -----------------------------------------------------------------------------
|                                                                             |
|           W    W    AA    RRRRR   N    N  II  N    N   GGGG   !!!           |
|           W    W   A  A   R    R  NN   N  II  NN   N  G    G  !!!           |
|           W    W  A    A  R    R  N N  N  II  N N  N  G       !!!           |
|           W WW W  AAAAAA  RRRRR   N  N N  II  N  N N  G  GGG   !            |
|           WW  WW  A    A  R   R   N   NN  II  N   NN  G    G                |
|           W    W  A    A  R    R  N    N  II  N    N   GGGG   !!!           |
|                                                                             |
|     You use a magnetic or noncollinear calculation, but did not specify     |
|     the initial magnetic moment with the MAGMOM tag. Note that a            |
|     default of 1 will be used for all atoms. This ferromagnetic setup       |
|     may break the symmetry of the crystal, in particular it may rule        |
|     out finding an antiferromagnetic solution. Thence, we recommend         |
|     setting the initial magnetic moment manually or verifying carefully     |
|     that this magnetic setup is desired.                                    |
|                                                                             |
 -----------------------------------------------------------------------------

 POTCAR:    PAW_PBE Ge 05Jan2001                  
   VRHFIN =Ge: s2p2                                                                                 
   LEXCH  = PE                                                                                      
   EATOM  =   104.9960 eV,    7.7170 Ry                                                             
                                                                                                    
   TITEL  = PAW_PBE Ge 05Jan2001                                                                    
   LULTRA =        F    use ultrasoft PP ?                                                          
   IUNSCR =        1    unscreen: 0-lin 1-nonlin 2-no                                               
   RPACOR =    2.170    partial core radius                                                         
   POMASS =   72.610; ZVAL   =    4.000    mass and valenz                                          
   RCORE  =    2.300    outmost cutoff radius                                                       
   RWIGS  =    2.300; RWIGS  =    1.217    wigner-seitz radius (au A)                               
   ENMAX  =  173.807; ENMIN  =  130.355 eV                                                          
   ICORE  =        3    local potential                                                             
   LCOR   =        T    correct aug charges                                                         
   LPAW   =        T    paw PP                                                                      
   EAUG   =  385.843                                                                                
   DEXC   =    0.000                                                                                
   RMAX   =    2.342    core radius for proj-oper                                                   
   RAUG   =    1.300    factor for augmentation sphere                                              
   RDEP   =    2.318    radius for radial grids                                                     
   RDEPT  =    2.103    core radius for aug-charge                                                  
                                                                                                    
   Atomic configuration                                                                             
   10 entries                                                                                       
     n  l   j            E        occ.                                                              
     1  0  0.50    -10959.8463   2.0000                                                             
     2  0  0.50     -1371.6056   2.0000                                                             
     2  1  1.50     -1198.4791   6.0000                                                             
     3  0  0.50      -168.4733   2.0000                                                             
     3  1  1.50      -115.6019   6.0000                                                             
     3  2  2.50       -29.3106  10.0000                                                             
     4  0  0.50       -11.7309   2.0000                                                             
     4  1  0.50        -3.8952   2.0000                                                             
     4  2  1.50        -4.0817   0.0000                                                             
     4  3  2.50        -4.0817   0.0000                                                             
   Description                                                                                      
     l       E           TYP  RCUT    TYP  RCUT                                                     
     0    -11.7309493     23  2.300                                                                 
     0     -7.4578696     23  2.300                                                                 
     1     -3.8952261     23  2.300                                                                 
     1      6.1178114     23  2.300                                                                 
     2     -4.0817478     23  2.300                                                                 
     3     -1.3605826      7  2.300                                                                 
  local pseudopotential read in
  partial core-charges read in
  partial kinetic energy density read in
  atomic valenz-charges read in
  non local Contribution for L=            0  read in
    real space projection operators read in
  non local Contribution for L=            0  read in
    real space projection operators read in
  non local Contribution for L=            1  read in
    real space projection operators read in
  non local Contribution for L=            1  read in
    real space projection operators read in
  non local Contribution for L=            2  read in
    real space projection operators read in
    PAW grid and wavefunctions read in
 
   number of l-projection  operators is LMAX  =            5
   number of lm-projection operators is LMMAX =           13
 
 POTCAR:    PAW_PBE Se 06Sep2000                  
   VRHFIN =Se: s2p4                                                                                 
   LEXCH  = PE                                                                                      
   EATOM  =   257.1286 eV,   18.8984 Ry                                                             
                                                                                                    
   TITEL  = PAW_PBE Se 06Sep2000                                                                    
   LULTRA =        F    use ultrasoft PP ?                                                          
   IUNSCR =        1    unscreen: 0-lin 1-nonlin 2-no                                               
   RPACOR =    1.900    partial core radius                                                         
   POMASS =   78.960; ZVAL   =    6.000    mass and valenz                                          
   RCORE  =    2.100    outmost cutoff radius                                                       
   RWIGS  =    2.200; RWIGS  =    1.164    wigner-seitz radius (au A)                               
   ENMAX  =  211.555; ENMIN  =  158.666 eV                                                          
   ICORE  =        3    local potential                                                             
   LCOR   =        T    correct aug charges                                                         
   LPAW   =        T    paw PP                                                                      
   EAUG   =  446.842                                                                                
   DEXC   =    0.000                                                                                
   RMAX   =    2.147    core radius for proj-oper                                                   
   RAUG   =    1.300    factor for augmentation sphere                                              
   RDEP   =    2.177    radius for radial grids                                                     
   RDEPT  =    1.928    core radius for aug-charge                                                  
                                                                                                    
   Atomic configuration                                                                             
   10 entries                                                                                       
     n  l   j            E        occ.                                                              
     1  0  0.50    -12503.4787   2.0000                                                             
     2  0  0.50     -1606.9547   2.0000                                                             
     2  1  1.50     -1413.3140   6.0000                                                             
     3  0  0.50      -213.4885   2.0000                                                             
     3  1  1.50      -152.9538   6.0000                                                             
     3  2  2.50       -53.1221  10.0000                                                             
     4  0  0.50       -17.2865   2.0000                                                             
     4  1  0.50        -6.5110   4.0000                                                             
     4  2  2.50        -6.8029   0.0000                                                             
     4  3  2.50        -6.8029   0.0000                                                             
   Description                                                                                      
     l       E           TYP  RCUT    TYP  RCUT                                                     
     0    -17.2865377     23  2.100                                                                 
     0    -15.3094411     23  2.100                                                                 
     1     -6.5110275     23  2.100                                                                 
     1     -0.0695192     23  2.100                                                                 
     2     -6.8029130     23  2.100                                                                 
     3     -1.3605826      7  2.100                                                                 
  local pseudopotential read in
  partial core-charges read in
  partial kinetic energy density read in
  atomic valenz-charges read in
  non local Contribution for L=            0  read in
    real space projection operators read in
  non local Contribution for L=            0  read in
    real space projection operators read in
  non local Contribution for L=            1  read in
    real space projection operators read in
  non local Contribution for L=            1  read in
    real space projection operators read in
  non local Contribution for L=            2  read in
    real space projection operators read in
    PAW grid and wavefunctions read in
 
   number of l-projection  operators is LMAX  =            5
   number of lm-projection operators is LMMAX =           13
 
 -----------------------------------------------------------------------------
|                                                                             |
|               ----> ADVICE to this user running VASP <----                  |
|                                                                             |
|     You have a (more or less) 'large supercell' and for larger cells it     |
|     might be more efficient to use real-space projection operators.         |
|     Therefore, try LREAL= Auto in the INCAR file.                           |
|     Mind: For very accurate calculation, you might also keep the            |
|     reciprocal projection scheme (i.e. LREAL=.FALSE.).                      |
|                                                                             |
 -----------------------------------------------------------------------------

  PAW_PBE Ge 05Jan2001                  :
 energy of atom  1       EATOM= -104.9960
 kinetic energy error for atom=    0.0002 (will be added to EATOM!!)
  PAW_PBE Se 06Sep2000                  :
 energy of atom  2       EATOM= -257.1286
 kinetic energy error for atom=    0.0007 (will be added to EATOM!!)
 
 
 POSCAR: Ge Se
  positions in cartesian coordinates
  No initial velocities read in
 exchange correlation table for  LEXCH =        8
   RHO(1)=    0.500       N(1)  =     2000
   RHO(2)=  100.500       N(2)  =     4000
 


--------------------------------------------------------------------------------------------------------


 ion  position               nearest neighbor table
   1  0.068  0.033  0.142-  45 2.54  55 2.74  54 2.78
   2  0.239  0.885  0.369-  67 2.54  48 2.65  45 2.71
   3  0.580  0.217  0.388-  56 2.67  68 2.69  49 2.77
   4  0.550  0.548  0.383-  50 2.60  69 2.67
   5  0.557  0.879  0.359-  70 2.43  48 2.72  44 2.77
   6  0.896  0.201  0.369-  55 2.55  56 2.69  46 2.79
   7  0.900  0.560  0.377-  71 2.51  72 2.60  47 2.65
   8  0.890  0.875  0.352-  53 2.54  44 2.67  45 2.85
   9  0.090  0.177  0.621-  57 2.59  51 2.77  37 2.82
  10  0.079  0.504  0.657-  58 2.46  38 2.68  39 2.81
  11  0.074  0.811  0.621-  59 2.57  39 2.59  52 2.74
  12  0.406  0.147  0.633-  60 2.59  40 2.65  51 2.67
  13  0.422  0.483  0.627-  61 2.49  41 2.56  38 2.85
  14  0.429  0.831  0.624-  40 2.56  42 2.57  62 2.77
  15  0.753  0.158  0.633-  63 2.41  37 2.65
  16  0.754  0.484  0.638-  43 2.53  64 2.57
  17  0.243  0.545  0.377-  50 2.62  66 2.62  47 2.72
  18  0.229  0.216  0.365-  54 2.53  46 2.65  49 2.74
  19  0.745  0.835  0.617-  65 2.72  42 2.80  52 2.81
  20  0.877  0.654  0.858-  64 2.48  52 2.65  58 2.76
  21  0.916  0.990  0.880-  37 2.56  65 2.62  59 2.81
  22  0.072  0.362  0.140-  46 2.52  66 2.72
  23  0.073  0.712  0.124-  47 2.56  53 2.66  67 2.83
  24  0.403  0.046  0.117-  68 2.66  48 2.70  54 2.74
  25  0.397  0.364  0.150-  49 2.49  66 2.67  69 2.81
  26  0.736  0.043  0.106-  44 2.54  55 2.65  68 2.74
  27  0.753  0.394  0.106-  71 2.65  56 2.66  69 2.72
  28  0.407  0.703  0.143-  50 2.53  70 2.66  67 2.79
  29  0.238  0.307  0.883-  38 2.55  57 2.62  60 2.67
  30  0.247  0.666  0.869-  39 2.56  62 2.72
  31  0.240  0.966  0.852-  62 2.57  59 2.58  51 2.59
  32  0.570  0.297  0.883-  63 2.60  60 2.69  41 2.70
  33  0.563  0.653  0.886-  61 2.55  42 2.64  64 2.68
  34  0.585  0.994  0.860-  40 2.55  65 2.57  63 2.64
  35  0.935  0.320  0.864-  57 2.38  43 2.53  58 2.72
  36  0.736  0.710  0.126-  72 2.54  70 2.69  53 2.70
  37  0.921  0.028  0.652-  21 2.56  15 2.65   9 2.82
  38  0.234  0.355  0.659-  29 2.55  10 2.68  13 2.85
  39  0.228  0.672  0.639-  30 2.56  11 2.59  10 2.81
  40  0.554  0.994  0.632-  34 2.55  14 2.56  12 2.65
  41  0.560  0.332  0.643-  13 2.56  32 2.70
  42  0.577  0.689  0.651-  14 2.57  33 2.64  19 2.80
  43  0.897  0.339  0.640-  16 2.53  35 2.53
  44  0.731  0.017  0.333-  26 2.54   8 2.67   5 2.77
  45  0.067  0.019  0.371-   1 2.54   2 2.71   8 2.85
  46  0.063  0.350  0.367-  22 2.52  18 2.65   6 2.79
  47  0.073  0.681  0.353-  23 2.56   7 2.65  17 2.72
  48  0.396  0.028  0.360-   2 2.65  24 2.70   5 2.72
  49  0.403  0.351  0.374-  25 2.49  18 2.74   3 2.77
  50  0.397  0.689  0.371-  28 2.53   4 2.60  17 2.62
  51  0.239  0.012  0.623-  31 2.59  12 2.67   9 2.77
  52  0.903  0.673  0.621-  20 2.65  11 2.74  19 2.81
  53  0.906  0.844  0.126-   8 2.54  23 2.66  36 2.70
  54  0.233  0.184  0.139-  18 2.53  24 2.74   1 2.78
  55  0.900  0.175  0.141-   6 2.55  26 2.65   1 2.74
  56  0.742  0.351  0.341-  27 2.66   3 2.67   6 2.69
  57  0.069  0.184  0.854-  35 2.38   9 2.59  29 2.62
  58  0.043  0.508  0.876-  10 2.46  35 2.72  20 2.76
  59  0.078  0.836  0.851-  11 2.57  31 2.58  21 2.81
  60  0.398  0.167  0.865-  12 2.59  29 2.67  32 2.69
  61  0.424  0.506  0.851-  13 2.49  33 2.55
  62  0.393  0.828  0.871-  31 2.57  30 2.72  14 2.77
  63  0.721  0.156  0.848-  15 2.41  32 2.60  34 2.64
  64  0.730  0.520  0.865-  20 2.48  16 2.57  33 2.68
  65  0.747  0.867  0.861-  34 2.57  21 2.62  19 2.72
  66  0.236  0.505  0.145-  17 2.62  25 2.67  22 2.72
  67  0.246  0.858  0.142-   2 2.54  28 2.79  23 2.83
  68  0.568  0.179  0.148-  24 2.66   3 2.69  26 2.74
  69  0.570  0.508  0.147-   4 2.67  27 2.72  25 2.81
  70  0.567  0.845  0.143-   5 2.43  28 2.66  36 2.69
  71  0.909  0.533  0.152-   7 2.51  27 2.65
  72  0.734  0.686  0.354-  36 2.54   7 2.60
 

IMPORTANT INFORMATION: All symmetrisations will be switched off!
NOSYMM: (Re-)initialisation of all symmetry stuff for point group C_1.


----------------------------------------------------------------------------------------

                                     Primitive cell                                     

  volume of cell :    1718.0930

  direct lattice vectors                    reciprocal lattice vectors
    12.409015304 -0.000001644 -0.000003400     0.080586572  0.000000011  0.000000028
    -0.000001658 12.508880186  0.000001403     0.000000011  0.079943207 -0.000000012
    -0.000003904  0.000001598 11.068554757     0.000000025 -0.000000010  0.090346032

  length of vectors
    12.409015304 12.508880186 11.068554757     0.080586572  0.079943207  0.090346032

  position of ions in fractional coordinates (direct lattice)
     0.068206315  0.032774523  0.141936199
     0.238608854  0.884526642  0.369381349
     0.579610358  0.217344780  0.387664689
     0.550245401  0.547603573  0.383190635
     0.556701929  0.879396874  0.358849929
     0.896104224  0.201391745  0.369402684
     0.899850796  0.559635363  0.376607846
     0.890397429  0.874683286  0.352127080
     0.090154895  0.176730118  0.621138400
     0.079096031  0.503908662  0.656948407
     0.073876800  0.810959891  0.620689142
     0.405822125  0.146661285  0.632584546
     0.422002273  0.483134673  0.627014007
     0.429237407  0.830758127  0.624451082
     0.752759101  0.158037993  0.633373377
     0.754082551  0.483841476  0.638049869
     0.243271110  0.544772918  0.377168022
     0.229009325  0.216278709  0.365297683
     0.745277406  0.834602997  0.617253226
     0.876780121  0.653949856  0.857582450
     0.915759669  0.990327144  0.880105101
     0.071606375  0.361959237  0.139948427
     0.073063063  0.711811536  0.124077675
     0.403254844  0.046139699  0.116933910
     0.396729799  0.364098912  0.149736773
     0.735762251  0.042813205  0.105616453
     0.753049459  0.394200506  0.106129569
     0.407384603  0.703391273  0.142665144
     0.237581015  0.307301674  0.883481221
     0.247182528  0.665788339  0.869224636
     0.239687076  0.966076090  0.851540577
     0.569933437  0.297010539  0.883185484
     0.562503295  0.653499095  0.885720428
     0.584693929  0.994397269  0.859831253
     0.934562834  0.319766878  0.863873186
     0.735945567  0.709754047  0.126070653
     0.921098975  0.028227686  0.652479049
     0.234292825  0.354581663  0.659257412
     0.228094925  0.671873696  0.639290036
     0.553956758  0.994043176  0.632410245
     0.560233630  0.331650849  0.642917072
     0.576952512  0.688945832  0.651115095
     0.896689093  0.339435115  0.640419286
     0.730714615  0.016627309  0.332735782
     0.067441655  0.019279266  0.371321309
     0.063458201  0.349997532  0.367379078
     0.073478408  0.681179747  0.352751652
     0.395990585  0.027796285  0.359693245
     0.402602502  0.351218686  0.373880805
     0.396667807  0.688638667  0.370592698
     0.239010058  0.011551430  0.623010201
     0.902861106  0.672958536  0.620678577
     0.906006008  0.844426784  0.126016794
     0.232512605  0.183577404  0.139498131
     0.899755385  0.174823647  0.141023105
     0.742105779  0.351006975  0.341468835
     0.068965025  0.183901398  0.854029613
     0.043302505  0.508160052  0.875757090
     0.078240209  0.836015179  0.850918535
     0.398134733  0.166535846  0.865203614
     0.424323839  0.505554793  0.850962362
     0.392560393  0.828078401  0.871255593
     0.720972983  0.156265759  0.848437419
     0.730082227  0.520001901  0.865105558
     0.746674314  0.866643960  0.860718401
     0.235855556  0.505321988  0.144732734
     0.245861370  0.858118994  0.141815557
     0.567595636  0.179220629  0.148470907
     0.570433260  0.508417540  0.147359599
     0.567398802  0.844755545  0.142989894
     0.909225724  0.532570322  0.151771763
     0.734234509  0.685594912  0.353971188

  ion indices of the primitive-cell ions
   primitive index   ion index
                 1           1
                 2           2
                 3           3
                 4           4
                 5           5
                 6           6
                 7           7
                 8           8
                 9           9
                10          10
                11          11
                12          12
                13          13
                14          14
                15          15
                16          16
                17          17
                18          18
                19          19
                20          20
                21          21
                22          22
                23          23
                24          24
                25          25
                26          26
                27          27
                28          28
                29          29
                30          30
                31          31
                32          32
                33          33
                34          34
                35          35
                36          36
                37          37
                38          38
                39          39
                40          40
                41          41
                42          42
                43          43
                44          44
                45          45
                46          46
                47          47
                48          48
                49          49
                50          50
                51          51
                52          52
                53          53
                54          54
                55          55
                56          56
                57          57
                58          58
                59          59
                60          60
                61          61
                62          62
                63          63
                64          64
                65          65
                66          66
                67          67
                68          68
                69          69
                70          70
                71          71
                72          72

----------------------------------------------------------------------------------------

 
 
 KPOINTS: KPOINTS created by Atomic Simulation Env

Automatic generation of k-mesh.
 Grid dimensions read from file:
 generate k-points for:    2    2    2

 Generating k-lattice:

  Cartesian coordinates                     Fractional coordinates (reciprocal lattice)
     0.040293286  0.000000005  0.000000014     0.500000000  0.000000000 -0.000000000
     0.000000005  0.039971604 -0.000000006    -0.000000000  0.500000000  0.000000000
     0.000000012 -0.000000005  0.045173016     0.000000000  0.000000000  0.500000000

  Length of vectors
     0.040293286  0.039971604  0.045173016

  Shift w.r.t. Gamma in fractional coordinates (k-lattice)
     0.000000000  0.000000000  0.000000000

 
 Subroutine IBZKPT returns following result:
 ===========================================
 
 Found      8 irreducible k-points:
 
 Following reciprocal coordinates:
            Coordinates               Weight
  0.000000  0.000000  0.000000      1.000000
  0.500000  0.000000  0.000000      1.000000
  0.000000  0.500000  0.000000      1.000000
  0.500000  0.500000  0.000000      1.000000
  0.000000  0.000000  0.500000      1.000000
  0.500000  0.000000  0.500000      1.000000
  0.000000  0.500000  0.500000      1.000000
  0.500000  0.500000  0.500000      1.000000
 
 Following cartesian coordinates:
            Coordinates               Weight
  0.000000  0.000000  0.000000      1.000000
  0.040293  0.000000  0.000000      1.000000
  0.000000  0.039972 -0.000000      1.000000
  0.040293  0.039972  0.000000      1.000000
  0.000000 -0.000000  0.045173      1.000000
  0.040293  0.000000  0.045173      1.000000
  0.000000  0.039972  0.045173      1.000000
  0.040293  0.039972  0.045173      1.000000
 
 -----------------------------------------------------------------------------
|                                                                             |
|           W    W    AA    RRRRR   N    N  II  N    N   GGGG   !!!           |
|           W    W   A  A   R    R  NN   N  II  NN   N  G    G  !!!           |
|           W    W  A    A  R    R  N N  N  II  N N  N  G       !!!           |
|           W WW W  AAAAAA  RRRRR   N  N N  II  N  N N  G  GGG   !            |
|           WW  WW  A    A  R   R   N   NN  II  N   NN  G    G                |
|           W    W  A    A  R    R  N    N  II  N    N   GGGG   !!!           |
|                                                                             |
|     The number of bands has been changed from the values supplied in        |
|     the INCAR file. This is a result of running the parallel version.       |
|     The orbitals not found in the WAVECAR file will be initialized with     |
|     random numbers, which is usually adequate. For correlated               |
|     calculations, however, you should redo the groundstate calculation.     |
|     I found NBANDS = 220. Now, NBANDS = 224.                                |
|                                                                             |
 -----------------------------------------------------------------------------



--------------------------------------------------------------------------------------------------------




 Dimension of arrays:
   k-points           NKPTS =      8   k-points in BZ     NKDIM =      8   number of bands    NBANDS=    224
   number of dos      NEDOS =    301   number of ions     NIONS =     72
   non local maximal  LDIM  =      5   non local SUM 2l+1 LMDIM =     13
   total plane-waves  NPLWV = 774144
   max r-space proj   IRMAX =      1   max aug-charges    IRDMAX=  24686
   dimension x,y,z NGX =    96 NGY =   96 NGZ =   84
   dimension x,y,z NGXF=   192 NGYF=  192 NGZF=  168
   support grid    NGXF=   192 NGYF=  192 NGZF=  168
   ions per type =              36  36
   NGX,Y,Z   is equivalent  to a cutoff of  12.86, 12.76, 12.62 a.u.
   NGXF,Y,Z  is equivalent  to a cutoff of  25.72, 25.52, 25.23 a.u.

 SYSTEM =  01_AOPT                                 
 POSCAR =  Ge Se                                   

 Startparameter for this run:
   NWRITE =      2    write-flag & timer
   PREC   = accura    normal or accurate (medium, high low for compatibility)
   ISTART =      0    job   : 0-new  1-cont  2-samecut
   ICHARG =      2    charge: 1-file 2-atom 10-const
   ISPIN  =      2    spin polarized calculation?
   LNONCOLLINEAR =      F non collinear calculations
   LSORBIT =      F    spin-orbit coupling
   INIWAV =      1    electr: 0-lowe 1-rand  2-diag
   LASPH  =      T    aspherical Exc in radial PAW
 Electronic Relaxation 1
   ENCUT  =  520.0 eV  38.22 Ry    6.18 a.u.  23.07 23.26 20.58*2*pi/ulx,y,z
   ENINI  =  520.0     initial cutoff
   ENAUG  =  446.8 eV  augmentation charge cutoff
   NELM   =    100;   NELMIN=  5; NELMDL=  0     # of ELM steps 
   EDIFF  = 0.1E-05   stopping-criterion for ELM
   LREAL  =      F    real-space projection
   NLSPLINE    = F    spline interpolate recip. space projectors
   LCOMPAT=      F    compatible to vasp.4.4
   GGA_COMPAT  = T    GGA compatible to vasp.4.4-vasp.4.6
   LMAXPAW     = -100 max onsite density
   LMAXMIX     =    2 max onsite mixed and CHGCAR
   VOSKOWN=      0    Vosko Wilk Nusair interpolation
   ROPT   =    0.00000   0.00000
 Ionic relaxation
   EDIFFG = 0.1E-04   stopping-criterion for IOM
   NSW    =      0    number of steps for IOM
   NBLOCK =      1;   KBLOCK =      1    inner block; outer block 
   IBRION =     -1    ionic relax: 0-MD 1-quasi-New 2-CG
   NFREE  =      0    steps in history (QN), initial steepest desc. (CG)
   ISIF   =      2    stress and relaxation
   IWAVPR =     10    prediction:  0-non 1-charg 2-wave 3-comb
   ISYM   =     -1    0-nonsym 1-usesym 2-fastsym
   LCORR  =      T    Harris-Foulkes like correction to forces

   POTIM  = 0.5000    time-step for ionic-motion
   TEIN   =    0.0    initial temperature
   TEBEG  =    0.0;   TEEND  =   0.0 temperature during run
   SMASS  =  -3.00    Nose mass-parameter (am)
   estimated Nose-frequenzy (Omega)   =  0.10E-29 period in steps = 0.13E+47 mass=  -0.352E-26a.u.
   SCALEE = 1.0000    scale energy and forces
   NPACO  =    256;   APACO  = 10.0  distance and # of slots for P.C.
   PSTRESS=    0.0 pullay stress

  Mass of Ions in am
   POMASS =  72.61 78.96
  Ionic Valenz
   ZVAL   =   4.00  6.00
  Atomic Wigner-Seitz radii
   RWIGS  =  -1.00 -1.00
  virtual crystal weights 
   VCA    =   1.00  1.00
   NELECT =     360.0000    total number of electrons
   NUPDOWN=      -1.0000    fix difference up-down

 DOS related values:
   EMIN   =  10.00;   EMAX   =-10.00  energy-range for DOS
   EFERMI =   0.00;   METHOD = LEGACY      
   ISMEAR =     0;   SIGMA  =   0.05  broadening in eV -4-tet -1-fermi 0-gaus

 Electronic relaxation 2 (details)
   IALGO  =     38    algorithm
   LDIAG  =      T    sub-space diagonalisation (order eigenvalues)
   LSUBROT=      F    optimize rotation matrix (better conditioning)
   TURBO    =      0    0=normal 1=particle mesh
   IRESTART =      0    0=no restart 2=restart with 2 vectors
   NREBOOT  =      0    no. of reboots
   NMIN     =      0    reboot dimension
   EREF     =   0.00    reference energy to select bands
   IMIX   =      4    mixing-type and parameters
     AMIX     =   0.40;   BMIX     =  1.00
     AMIX_MAG =   1.60;   BMIX_MAG =  1.00
     AMIN     =   0.10
     WC   =   100.;   INIMIX=   1;  MIXPRE=   1;  MAXMIX= -45

 Intra band minimization:
   WEIMIN = 0.0000     energy-eigenvalue tresh-hold
   EBREAK =  0.11E-08  absolut break condition
   DEPER  =   0.30     relativ break condition  

   TIME   =   0.40     timestep for ELM

  volume/ion in A,a.u.               =      23.86       161.03
  Fermi-wavevector in a.u.,A,eV,Ry     =   0.972359  1.837493 12.864072  0.945483
  Thomas-Fermi vector in A             =   2.102651
 
 Write flags
   LWAVE        =      F    write WAVECAR
   LDOWNSAMPLE  =      F    k-point downsampling of WAVECAR
   LCHARG       =      F    write CHGCAR
   LVTOT        =      F    write LOCPOT, total local potential
   LVHAR        =      F    write LOCPOT, Hartree potential only
   LELF         =      F    write electronic localiz. function (ELF)
   LORBIT       =     11    0 simple, 1 ext, 2 COOP (PROOUT), +10 PAW based schemes


 Dipole corrections
   LMONO  =      F    monopole corrections only (constant potential shift)
   LDIPOL =      F    correct potential (dipole corrections)
   IDIPOL =      0    1-x, 2-y, 3-z, 4-all directions 
   EPSILON=  1.0000000 bulk dielectric constant

 Exchange correlation treatment:
   GGA     =    PE    GGA type
   LEXCH   =     8    internal setting for exchange type
   LIBXC   =     F    Libxc                    
   VOSKOWN =     0    Vosko Wilk Nusair interpolation
   LHFCALC =     F    Hartree Fock is set to
   LHFONE  =     F    Hartree Fock one center treatment
   AEXX    =    0.0000 exact exchange contribution

 Linear response parameters
   LEPSILON=     F    determine dielectric tensor
   LRPA    =     F    only Hartree local field effects (RPA)
   LNABLA  =     F    use nabla operator in PAW spheres
   LVEL    =     F    velocity operator in full k-point grid
   CSHIFT  =0.1000    complex shift for real part using Kramers Kronig
   OMEGAMAX=  -1.0    maximum frequency
   DEG_THRESHOLD= 0.2000000E-02 threshold for treating states as degnerate
   RTIME   =   -0.100 relaxation time in fs
  (WPLASMAI=    0.000 imaginary part of plasma frequency in eV, 0.658/RTIME)
   DFIELD  = 0.0000000 0.0000000 0.0000000 field for delta impulse in time
 
  Optional k-point grid parameters
   LKPOINTS_OPT  =     F    use optional k-point grid
   KPOINTS_OPT_MODE=     1    mode for optional k-point grid
 
 Orbital magnetization related:
   ORBITALMAG=     F  switch on orbital magnetization
   LCHIMAG   =     F  perturbation theory with respect to B field
   DQ        =  0.001000  dq finite difference perturbation B field
   LLRAUG    =     F  two centre corrections for induced B field
   LBONE     =     F  B-component reconstruction in AE one-centre
   LVGVCALC  =     T  calculate vGv susceptibility
   LVGVAPPL  =     F  apply vGv susceptibility instead of pGv for G=0

 Random number generation:
   RANDOM_GENERATOR = DEFAULT
   PCG_SEED         = not used


--------------------------------------------------------------------------------------------------------


 Static calculation
 charge density and potential will be updated during run
 spin polarized calculation
 Variant of blocked Davidson
 Davidson routine will perform the subspace rotation
 perform sub-space diagonalisation
    after iterative eigenvector-optimisation
 modified Broyden-mixing scheme, WC =      100.0
 initial mixing is a Kerker type mixing with AMIX =  0.4000 and BMIX =      1.0000
 Hartree-type preconditioning will be used
 using additional bands            44
 reciprocal scheme for non local part
 use partial core corrections
 calculate Harris-corrections to forces 
   (improved forces if not selfconsistent)
 use gradient corrections 
 use of overlap-Matrix (Vanderbilt PP)
 Gauss-broadening in eV      SIGMA  =   0.05


--------------------------------------------------------------------------------------------------------


  energy-cutoff  :      520.00
  volume of cell :     1718.09
      direct lattice vectors                 reciprocal lattice vectors
    12.409015304 -0.000001644 -0.000003400     0.080586572  0.000000011  0.000000028
    -0.000001658 12.508880186  0.000001403     0.000000011  0.079943207 -0.000000012
    -0.000003904  0.000001598 11.068554757     0.000000025 -0.000000010  0.090346032

  length of vectors
    12.409015304 12.508880186 11.068554757     0.080586572  0.079943207  0.090346032


 
 k-points in units of 2pi/SCALE and weight: KPOINTS created by Atomic Simulation Env
   0.00000000  0.00000000  0.00000000       0.125
   0.04029329  0.00000001  0.00000001       0.125
   0.00000001  0.03997160 -0.00000001       0.125
   0.04029329  0.03997161  0.00000001       0.125
   0.00000001 -0.00000001  0.04517302       0.125
   0.04029330  0.00000000  0.04517303       0.125
   0.00000002  0.03997160  0.04517301       0.125
   0.04029330  0.03997160  0.04517302       0.125
 
 k-points in reciprocal lattice and weights: KPOINTS created by Atomic Simulation Env
   0.00000000  0.00000000  0.00000000       0.125
   0.50000000  0.00000000  0.00000000       0.125
   0.00000000  0.50000000  0.00000000       0.125
   0.50000000  0.50000000  0.00000000       0.125
   0.00000000  0.00000000  0.50000000       0.125
   0.50000000  0.00000000  0.50000000       0.125
   0.00000000  0.50000000  0.50000000       0.125
   0.50000000  0.50000000  0.50000000       0.125
 
 position of ions in fractional coordinates (direct lattice) 
   0.06820632  0.03277452  0.14193620
   0.23860885  0.88452664  0.36938135
   0.57961036  0.21734478  0.38766469
   0.55024540  0.54760357  0.38319063
   0.55670193  0.87939687  0.35884993
   0.89610422  0.20139175  0.36940268
   0.89985080  0.55963536  0.37660785
   0.89039743  0.87468329  0.35212708
   0.09015490  0.17673012  0.62113840
   0.07909603  0.50390866  0.65694841
   0.07387680  0.81095989  0.62068914
   0.40582212  0.14666128  0.63258455
   0.42200227  0.48313467  0.62701401
   0.42923741  0.83075813  0.62445108
   0.75275910  0.15803799  0.63337338
   0.75408255  0.48384148  0.63804987
   0.24327111  0.54477292  0.37716802
   0.22900932  0.21627871  0.36529768
   0.74527741  0.83460300  0.61725323
   0.87678012  0.65394986  0.85758245
   0.91575967  0.99032714  0.88010510
   0.07160638  0.36195924  0.13994843
   0.07306306  0.71181154  0.12407768
   0.40325484  0.04613970  0.11693391
   0.39672980  0.36409891  0.14973677
   0.73576225  0.04281321  0.10561645
   0.75304946  0.39420051  0.10612957
   0.40738460  0.70339127  0.14266514
   0.23758102  0.30730167  0.88348122
   0.24718253  0.66578834  0.86922464
   0.23968708  0.96607609  0.85154058
   0.56993344  0.29701054  0.88318548
   0.56250330  0.65349910  0.88572043
   0.58469393  0.99439727  0.85983125
   0.93456283  0.31976688  0.86387319
   0.73594557  0.70975405  0.12607065
   0.92109898  0.02822769  0.65247905
   0.23429283  0.35458166  0.65925741
   0.22809493  0.67187370  0.63929004
   0.55395676  0.99404318  0.63241025
   0.56023363  0.33165085  0.64291707
   0.57695251  0.68894583  0.65111509
   0.89668909  0.33943511  0.64041929
   0.73071461  0.01662731  0.33273578
   0.06744165  0.01927927  0.37132131
   0.06345820  0.34999753  0.36737908
   0.07347841  0.68117975  0.35275165
   0.39599059  0.02779628  0.35969325
   0.40260250  0.35121869  0.37388080
   0.39666781  0.68863867  0.37059270
   0.23901006  0.01155143  0.62301020
   0.90286111  0.67295854  0.62067858
   0.90600601  0.84442678  0.12601679
   0.23251261  0.18357740  0.13949813
   0.89975539  0.17482365  0.14102310
   0.74210578  0.35100697  0.34146884
   0.06896503  0.18390140  0.85402961
   0.04330251  0.50816005  0.87575709
   0.07824021  0.83601518  0.85091853
   0.39813473  0.16653585  0.86520361
   0.42432384  0.50555479  0.85096236
   0.39256039  0.82807840  0.87125559
   0.72097298  0.15626576  0.84843742
   0.73008223  0.52000190  0.86510556
   0.74667431  0.86664396  0.86071840
   0.23585556  0.50532199  0.14473273
   0.24586137  0.85811899  0.14181556
   0.56759564  0.17922063  0.14847091
   0.57043326  0.50841754  0.14735960
   0.56739880  0.84475555  0.14298989
   0.90922572  0.53257032  0.15177176
   0.73423451  0.68559491  0.35397119
 
 position of ions in cartesian coordinates  (Angst):
   0.84637260  0.40997270  1.57102840
   2.96089801 11.06443798  4.08851811
   7.19239193  2.71873948  4.29088617
   6.82800120  6.84990719  4.24136542
   6.90811990 11.00026979  3.97194943
  11.11976925  2.51918433  4.08875107
  11.16625990  7.00041082  4.16850229
  11.04895250 10.94130752  3.89753606
   1.11873076  2.21069672  6.87510433
   0.98150046  6.30333400  7.27146985
   0.91673457 10.14420098  6.87013264
   5.03585024  1.83456878  7.00179551
   5.23662941  6.04347405  6.94013812
   5.32640974 10.39185416  6.91177070
   9.34099647  1.97687810  7.01052557
   9.35741862  6.05231483  7.06228803
   3.01875256  6.81449936  4.17470484
   2.84177843  2.70540467  4.04331693
   9.24815495 10.43994865  6.83209977
  10.87997350  8.18018033  9.49219625
  11.36367068 12.38788349  9.74148978
   0.88856346  4.52770483  1.54902709
   0.90663901  8.90396530  1.37336129
   5.00399500  0.57715548  1.29428809
   4.92302497  4.55446925  1.65736883
   9.13008454  0.53554421  1.16901906
   9.34460120  4.93100583  1.17469894
   5.05524004  8.79863671  1.57909656
   2.94814250  3.84400084  9.77885990
   3.06728728  8.32826754  9.62106057
   2.97427567 12.08453102  9.42532404
   7.07230880  3.71526971  9.77558537
   6.98010746  8.17454238  9.80364406
   7.25547091 12.43879671  9.51708871
  11.59700061  3.99992540  9.56182494
   9.13235813  8.87822733  1.39541841
  11.42992869  0.35309627  7.22199699
   2.90734009  4.43542020  7.29702646
   2.83042981  8.40438821  7.07601693
   6.87405377 12.43436709  6.99986694
   6.95194464  4.14858085  7.11616137
   7.15940887  8.61794096  7.20690209
  11.12702562  4.24595273  7.08851336
   9.06744751  0.20798834  3.68290176
   0.83688305  0.24116251  4.10999003
   0.78745177  4.37807767  4.06635572
   0.91179219  8.52079629  3.90445168
   4.91385178  0.34770032  3.98128307
   4.99589857  4.39335240  4.13831928
   4.92225430  8.61409851  4.10192519
   2.96587702  0.14449605  6.89582172
  11.20361374  8.41795721  6.87001270
  11.24264053 10.56283218  1.39482189
   2.88525163  2.29634759  1.54404216
  11.16507751  2.18684680  1.56091914
   9.20880006  4.39070352  3.77956447
   0.85578441  2.30040180  9.45287356
   0.53733719  6.35651453  9.69336587
   0.97087925 10.45761494  9.41843930
   4.94045634  2.08317767  9.57655246
   5.26543686  6.32392500  9.41892277
   4.87128315 10.35833425  9.64354007
   8.94656121  1.95470982  9.39097380
   9.05959729  6.50464166  9.57546649
   9.26548819 10.84074560  9.52690743
   2.92673381  6.32101204  1.60198210
   3.05089553 10.73410751  1.56969362
   7.04330206  2.24184867  1.64335669
   7.07851363  6.35973339  1.63105657
   7.04085845 10.56694520  1.58269073
  11.28259445  6.66185709  1.67989172
   9.11112474  8.57602397  3.91794794
 


--------------------------------------------------------------------------------------------------------


 k-point   1 :   0.0000 0.0000 0.0000  plane waves:   46253
 k-point   2 :   0.5000 0.0000 0.0000  plane waves:   46294
 k-point   3 :   0.0000 0.5000 0.0000  plane waves:   46246
 k-point   4 :   0.5000 0.5000 0.0000  plane waves:   46364
 k-point   5 :   0.0000 0.0000 0.5000  plane waves:   46262
 k-point   6 :   0.5000 0.0000 0.5000  plane waves:   46220
 k-point   7 :   0.0000 0.5000 0.5000  plane waves:   46220
 k-point   8 :   0.5000 0.5000 0.5000  plane waves:   46240

 maximum and minimum number of plane-waves per node :      5864     5732

 maximum number of plane-waves:     46364
 maximum index in each direction: 
   IXMAX=   23   IYMAX=   23   IZMAX=   20
   IXMIN=  -23   IYMIN=  -23   IZMIN=  -21


 parallel 3D FFT for wavefunctions:
    minimum data exchange during FFTs selected (reduces bandwidth)
 parallel 3D FFT for charge:
    minimum data exchange during FFTs selected (reduces bandwidth)


 total amount of memory used by VASP MPI-rank0   110524. kBytes
=======================================================================

   base      :      30000. kBytes
   nonl-proj :      16287. kBytes
   fftplans  :       6179. kBytes
   grid      :      15593. kBytes
   one-center:        146. kBytes
   wavefun   :      42319. kBytes
 
     INWAV:  cpu time      0.0000: real time      0.0001
 Broyden mixing: mesh for mixing (old mesh)
   NGX = 47   NGY = 47   NGZ = 41
  (NGX  =192   NGY  =192   NGZ  =168)
  gives a total of  90569 points

 initial charge density was supplied:
 charge density of overlapping atoms calculated
 number of electron     360.0000000 magnetization      72.0000000
 keeping initial charge density in first step


--------------------------------------------------------------------------------------------------------


 Maximum index for augmentation-charges           640 (set IRDMAX)


--------------------------------------------------------------------------------------------------------


 First call to EWALD:  gamma=   0.148
 Maximum number of real-space cells 3x 3x 3
 Maximum number of reciprocal cells 3x 3x 3

    FEWALD:  cpu time      0.0082: real time      0.0083


--------------------------------------- Ionic step        1  -------------------------------------------




--------------------------------------- Iteration      1(   1)  ---------------------------------------


    POTLOK:  cpu time      0.1383: real time      0.1392
    SETDIJ:  cpu time      0.6009: real time      0.6023
     EDDAV:  cpu time      8.6392: real time      8.6848
       DOS:  cpu time      0.0015: real time      0.0015
    --------------------------------------------
      LOOP:  cpu time      9.3798: real time      9.4277

 eigenvalue-minimisations  :  7168
 total energy-change (2. order) : 0.1806944E+04  (-0.1418781E+05)
 number of electron     360.0000000 magnetization      72.0000000
 augmentation part      360.0000000 magnetization      72.0000000

 Free energy of the ion-electron system (eV)
  ---------------------------------------------------
  alpha Z        PSCENC =       798.85086140
  Ewald energy   TEWEN  =    -12898.14412706
  -Hartree energ DENC   =     -1092.09193186
  -exchange      EXHF   =         0.00000000
  -V(xc)+E(xc)   XCENC  =      -293.93720861
  PAW double counting   =     10738.42099860    -9719.93139476
  entropy T*S    EENTRO =        -0.02397718
  eigenvalues    EBANDS =      1237.34965345
  atomic energy  EATOM  =     13036.45147835
  Solvation  Ediel_sol  =         0.00000000
  ---------------------------------------------------
  free energy    TOTEN  =      1806.94435233 eV

  energy without entropy =     1806.96832951  energy(sigma->0) =     1806.95634092


--------------------------------------------------------------------------------------------------------




--------------------------------------- Iteration      1(   2)  ---------------------------------------


     EDDAV:  cpu time      9.7761: real time      9.8309
       DOS:  cpu time      0.0013: real time      0.0013
    --------------------------------------------
      LOOP:  cpu time      9.7774: real time      9.8321

 eigenvalue-minimisations  :  8464
 total energy-change (2. order) :-0.1872188E+04  (-0.1797297E+04)
 number of electron     360.0000000 magnetization      72.0000000
 augmentation part      360.0000000 magnetization      72.0000000

 Free energy of the ion-electron system (eV)
  ---------------------------------------------------
  alpha Z        PSCENC =       798.85086140
  Ewald energy   TEWEN  =    -12898.14412706
  -Hartree energ DENC   =     -1092.09193186
  -exchange      EXHF   =         0.00000000
  -V(xc)+E(xc)   XCENC  =      -293.93720861
  PAW double counting   =     10738.42099860    -9719.93139476
  entropy T*S    EENTRO =        -0.01571298
  eigenvalues    EBANDS =      -634.84614181
  atomic energy  EATOM  =     13036.45147835
  Solvation  Ediel_sol  =         0.00000000
  ---------------------------------------------------
  free energy    TOTEN  =       -65.24317872 eV

  energy without entropy =      -65.22746574  energy(sigma->0) =      -65.23532223


--------------------------------------------------------------------------------------------------------




--------------------------------------- Iteration      1(   3)  ---------------------------------------


     EDDAV:  cpu time      9.8853: real time      9.9390
       DOS:  cpu time      0.0013: real time      0.0013
    --------------------------------------------
      LOOP:  cpu time      9.8866: real time      9.9402

 eigenvalue-minimisations  :  8624
 total energy-change (2. order) :-0.2166318E+03  (-0.2106520E+03)
 number of electron     360.0000000 magnetization      72.0000000
 augmentation part      360.0000000 magnetization      72.0000000

 Free energy of the ion-electron system (eV)
  ---------------------------------------------------
  alpha Z        PSCENC =       798.85086140
  Ewald energy   TEWEN  =    -12898.14412706
  -Hartree energ DENC   =     -1092.09193186
  -exchange      EXHF   =         0.00000000
  -V(xc)+E(xc)   XCENC  =      -293.93720861
  PAW double counting   =     10738.42099860    -9719.93139476
  entropy T*S    EENTRO =        -0.00039923
  eigenvalues    EBANDS =      -851.49328165
  atomic energy  EATOM  =     13036.45147835
  Solvation  Ediel_sol  =         0.00000000
  ---------------------------------------------------
  free energy    TOTEN  =      -281.87500482 eV

  energy without entropy =     -281.87460559  energy(sigma->0) =     -281.87480520


--------------------------------------------------------------------------------------------------------




--------------------------------------- Iteration      1(   4)  ---------------------------------------


     EDDAV:  cpu time      9.9574: real time     10.0094
       DOS:  cpu time      0.0010: real time      0.0010
    --------------------------------------------
      LOOP:  cpu time      9.9584: real time     10.0104

 eigenvalue-minimisations  :  8720
 total energy-change (2. order) :-0.7907981E+01  (-0.7818103E+01)
 number of electron     360.0000000 magnetization      72.0000000
 augmentation part      360.0000000 magnetization      72.0000000

 Free energy of the ion-electron system (eV)
  ---------------------------------------------------
  alpha Z        PSCENC =       798.85086140
  Ewald energy   TEWEN  =    -12898.14412706
  -Hartree energ DENC   =     -1092.09193186
  -exchange      EXHF   =         0.00000000
  -V(xc)+E(xc)   XCENC  =      -293.93720861
  PAW double counting   =     10738.42099860    -9719.93139476
  entropy T*S    EENTRO =        -0.00004235
  eigenvalues    EBANDS =      -859.40161976
  atomic energy  EATOM  =     13036.45147835
  Solvation  Ediel_sol  =         0.00000000
  ---------------------------------------------------
  free energy    TOTEN  =      -289.78298604 eV

  energy without entropy =     -289.78294369  energy(sigma->0) =     -289.78296487


--------------------------------------------------------------------------------------------------------




--------------------------------------- Iteration      1(   5)  ---------------------------------------


     EDDAV:  cpu time     10.2632: real time     10.3357
       DOS:  cpu time      0.0013: real time      0.0014
    CHARGE:  cpu time      0.4219: real time      0.4237
    MIXING:  cpu time      0.0071: real time      0.0072
    --------------------------------------------
      LOOP:  cpu time     10.6936: real time     10.7680

 eigenvalue-minimisations  :  9064
 total energy-change (2. order) :-0.3037001E+00  (-0.3028770E+00)
 number of electron     360.0000002 magnetization      48.7906171
 augmentation part      -66.8550613 magnetization      49.0038142

 Broyden mixing:
  rms(total) = 0.29005E+01    rms(broyden)= 0.29005E+01
  rms(prec ) = 0.30586E+01
  weight for this iteration     100.00

 Free energy of the ion-electron system (eV)
  ---------------------------------------------------
  alpha Z        PSCENC =       798.85086140
  Ewald energy   TEWEN  =    -12898.14412706
  -Hartree energ DENC   =     -1092.09193186
  -exchange      EXHF   =         0.00000000
  -V(xc)+E(xc)   XCENC  =      -293.93720861
  PAW double counting   =     10738.42099860    -9719.93139476
  entropy T*S    EENTRO =        -0.00004311
  eigenvalues    EBANDS =      -859.70531906
  atomic energy  EATOM  =     13036.45147835
  Solvation  Ediel_sol  =         0.00000000
  ---------------------------------------------------
  free energy    TOTEN  =      -290.08668610 eV

  energy without entropy =     -290.08664300  energy(sigma->0) =     -290.08666455


--------------------------------------------------------------------------------------------------------




--------------------------------------- Iteration      1(   6)  ---------------------------------------


    POTLOK:  cpu time      0.1357: real time      0.1364
    SETDIJ:  cpu time      0.6018: real time      0.6041
     EDDAV:  cpu time      9.3039: real time      9.3536
       DOS:  cpu time      0.0011: real time      0.0011
    CHARGE:  cpu time      0.4103: real time      0.4119
    MIXING:  cpu time      0.0072: real time      0.0072
    --------------------------------------------
      LOOP:  cpu time     10.4599: real time     10.5141

 eigenvalue-minimisations  :  7992
 total energy-change (2. order) : 0.5256355E+00  (-0.2720428E+01)
 number of electron     360.0000002 magnetization      27.9815398
 augmentation part      -66.2373974 magnetization      29.1637635

 Broyden mixing:
  rms(total) = 0.17177E+01    rms(broyden)= 0.17177E+01
  rms(prec ) = 0.17535E+01
  weight for this iteration     100.00

 eigenvalues of (default mixing * dielectric matrix)
  average eigenvalue GAMMA=   1.0063
  1.0063

 Free energy of the ion-electron system (eV)
  ---------------------------------------------------
  alpha Z        PSCENC =       798.85086140
  Ewald energy   TEWEN  =    -12898.14412706
  -Hartree energ DENC   =     -1145.71683736
  -exchange      EXHF   =         0.00000000
  -V(xc)+E(xc)   XCENC  =      -287.52480196
  PAW double counting   =     12978.57336037   -11963.52959946
  entropy T*S    EENTRO =        -0.00009034
  eigenvalues    EBANDS =      -808.52129458
  atomic energy  EATOM  =     13036.45147835
  Solvation  Ediel_sol  =         0.00000000
  ---------------------------------------------------
  free energy    TOTEN  =      -289.56105063 eV

  energy without entropy =     -289.56096029  energy(sigma->0) =     -289.56100546


--------------------------------------------------------------------------------------------------------




--------------------------------------- Iteration      1(   7)  ---------------------------------------


    POTLOK:  cpu time      0.1304: real time      0.1310
    SETDIJ:  cpu time      0.6026: real time      0.6052
     EDDAV:  cpu time      9.3492: real time      9.3996
       DOS:  cpu time      0.0009: real time      0.0009
    CHARGE:  cpu time      0.4235: real time      0.4253
    MIXING:  cpu time      0.0072: real time      0.0072
    --------------------------------------------
      LOOP:  cpu time     10.5137: real time     10.5693

 eigenvalue-minimisations  :  8016
 total energy-change (2. order) :-0.7360016E+01  (-0.8681426E+00)
 number of electron     360.0000002 magnetization       9.3011577
 augmentation part      -66.2294490 magnetization       9.9776314

 Broyden mixing:
  rms(total) = 0.90732E+00    rms(broyden)= 0.90732E+00
  rms(prec ) = 0.92291E+00
  weight for this iteration     100.00

 eigenvalues of (default mixing * dielectric matrix)
  average eigenvalue GAMMA=   1.4470
  0.8624  2.0316

 Free energy of the ion-electron system (eV)
  ---------------------------------------------------
  alpha Z        PSCENC =       798.85086140
  Ewald energy   TEWEN  =    -12898.14412706
  -Hartree energ DENC   =     -1162.05021751
  -exchange      EXHF   =         0.00000000
  -V(xc)+E(xc)   XCENC  =      -290.49728656
  PAW double counting   =     15017.56064104   -14004.06780956
  entropy T*S    EENTRO =        -0.00000006
  eigenvalues    EBANDS =      -795.02460641
  atomic energy  EATOM  =     13036.45147835
  Solvation  Ediel_sol  =         0.00000000
  ---------------------------------------------------
  free energy    TOTEN  =      -296.92106638 eV

  energy without entropy =     -296.92106631  energy(sigma->0) =     -296.92106635


--------------------------------------------------------------------------------------------------------




--------------------------------------- Iteration      1(   8)  ---------------------------------------


    POTLOK:  cpu time      0.1313: real time      0.1319
    SETDIJ:  cpu time      0.6009: real time      0.6035
     EDDAV:  cpu time      9.4679: real time      9.5182
       DOS:  cpu time      0.0009: real time      0.0009
    CHARGE:  cpu time      0.4213: real time      0.4228
    MIXING:  cpu time      0.0075: real time      0.0075
    --------------------------------------------
      LOOP:  cpu time     10.6299: real time     10.6848

 eigenvalue-minimisations  :  8176
 total energy-change (2. order) :-0.3238589E+01  (-0.1711216E+00)
 number of electron     360.0000002 magnetization       4.3764428
 augmentation part      -66.2442147 magnetization       4.6861947

 Broyden mixing:
  rms(total) = 0.33299E+00    rms(broyden)= 0.33299E+00
  rms(prec ) = 0.33820E+00
  weight for this iteration     100.00

 eigenvalues of (default mixing * dielectric matrix)
  average eigenvalue GAMMA=   1.3584
  2.4982  0.9251  0.6519

 Free energy of the ion-electron system (eV)
  ---------------------------------------------------
  alpha Z        PSCENC =       798.85086140
  Ewald energy   TEWEN  =    -12898.14412706
  -Hartree energ DENC   =     -1165.98336788
  -exchange      EXHF   =         0.00000000
  -V(xc)+E(xc)   XCENC  =      -290.28607483
  PAW double counting   =     16745.05702886   -15732.44162968
  entropy T*S    EENTRO =        -0.00000000
  eigenvalues    EBANDS =      -793.66382473
  atomic energy  EATOM  =     13036.45147835
  Solvation  Ediel_sol  =         0.00000000
  ---------------------------------------------------
  free energy    TOTEN  =      -300.15965558 eV

  energy without entropy =     -300.15965558  energy(sigma->0) =     -300.15965558


--------------------------------------------------------------------------------------------------------




--------------------------------------- Iteration      1(   9)  ---------------------------------------


    POTLOK:  cpu time      0.1332: real time      0.1342
    SETDIJ:  cpu time      0.6005: real time      0.6026
     EDDAV:  cpu time     10.2195: real time     10.2677
       DOS:  cpu time      0.0008: real time      0.0008
    CHARGE:  cpu time      0.4124: real time      0.4142
    MIXING:  cpu time      0.0075: real time      0.0075
    --------------------------------------------
      LOOP:  cpu time     11.3738: real time     11.4270

 eigenvalue-minimisations  :  9072
 total energy-change (2. order) :-0.3888618E+00  (-0.4315244E-01)
 number of electron     360.0000002 magnetization       2.2638406
 augmentation part      -66.2843853 magnetization       2.4169303

 Broyden mixing:
  rms(total) = 0.14748E+00    rms(broyden)= 0.14748E+00
  rms(prec ) = 0.14895E+00
  weight for this iteration     100.00

 eigenvalues of (default mixing * dielectric matrix)
  average eigenvalue GAMMA=   1.3310
  2.6334  1.2377  0.8339  0.6188

 Free energy of the ion-electron system (eV)
  ---------------------------------------------------
  alpha Z        PSCENC =       798.85086140
  Ewald energy   TEWEN  =    -12898.14412706
  -Hartree energ DENC   =     -1164.87370910
  -exchange      EXHF   =         0.00000000
  -V(xc)+E(xc)   XCENC  =      -290.33563775
  PAW double counting   =     17033.20552130   -16020.92722717
  entropy T*S    EENTRO =        -0.00000000
  eigenvalues    EBANDS =      -794.77567735
  atomic energy  EATOM  =     13036.45147835
  Solvation  Ediel_sol  =         0.00000000
  ---------------------------------------------------
  free energy    TOTEN  =      -300.54851738 eV

  energy without entropy =     -300.54851738  energy(sigma->0) =     -300.54851738


--------------------------------------------------------------------------------------------------------




--------------------------------------- Iteration      1(  10)  ---------------------------------------


    POTLOK:  cpu time      0.1302: real time      0.1309
    SETDIJ:  cpu time      0.6019: real time      0.6044
     EDDAV:  cpu time      9.3909: real time      9.4421
       DOS:  cpu time      0.0009: real time      0.0009
    CHARGE:  cpu time      0.4223: real time      0.4241
    MIXING:  cpu time      0.0076: real time      0.0076
    --------------------------------------------
      LOOP:  cpu time     10.5537: real time     10.6100

 eigenvalue-minimisations  :  8080
 total energy-change (2. order) :-0.1067351E+00  (-0.9680497E-02)
 number of electron     360.0000002 magnetization       0.7126376
 augmentation part      -66.2865522 magnetization       0.7803032

 Broyden mixing:
  rms(total) = 0.72572E-01    rms(broyden)= 0.72572E-01
  rms(prec ) = 0.73636E-01
  weight for this iteration     100.00

 eigenvalues of (default mixing * dielectric matrix)
  average eigenvalue GAMMA=   1.3749
  2.7070  1.7464  0.9719  0.8237  0.6256

 Free energy of the ion-electron system (eV)
  ---------------------------------------------------
  alpha Z        PSCENC =       798.85086140
  Ewald energy   TEWEN  =    -12898.14412706
  -Hartree energ DENC   =     -1165.05510275
  -exchange      EXHF   =         0.00000000
  -V(xc)+E(xc)   XCENC  =      -290.33468593
  PAW double counting   =     17041.17856904   -16028.91199046
  entropy T*S    EENTRO =        -0.00000000
  eigenvalues    EBANDS =      -794.69025507
  atomic energy  EATOM  =     13036.45147835
  Solvation  Ediel_sol  =         0.00000000
  ---------------------------------------------------
  free energy    TOTEN  =      -300.65525249 eV

  energy without entropy =     -300.65525249  energy(sigma->0) =     -300.65525249


--------------------------------------------------------------------------------------------------------




--------------------------------------- Iteration      1(  11)  ---------------------------------------


    POTLOK:  cpu time      0.1294: real time      0.1300
    SETDIJ:  cpu time      0.6033: real time      0.6056
     EDDAV:  cpu time     10.1752: real time     10.2244
       DOS:  cpu time      0.0008: real time      0.0008
    CHARGE:  cpu time      0.4045: real time      0.4141
    MIXING:  cpu time      0.0076: real time      0.0076
    --------------------------------------------
      LOOP:  cpu time     11.3208: real time     11.3826

 eigenvalue-minimisations  :  9000
 total energy-change (2. order) :-0.3079724E-01  (-0.3627264E-02)
 number of electron     360.0000002 magnetization       0.1586115
 augmentation part      -66.2715473 magnetization       0.1769552

 Broyden mixing:
  rms(total) = 0.28098E-01    rms(broyden)= 0.28098E-01
  rms(prec ) = 0.28534E-01
  weight for this iteration     100.00

 eigenvalues of (default mixing * dielectric matrix)
  average eigenvalue GAMMA=   1.4093
  2.9226  2.1790  1.1772  0.8567  0.6960  0.6247

 Free energy of the ion-electron system (eV)
  ---------------------------------------------------
  alpha Z        PSCENC =       798.85086140
  Ewald energy   TEWEN  =    -12898.14412706
  -Hartree energ DENC   =     -1166.20993459
  -exchange      EXHF   =         0.00000000
  -V(xc)+E(xc)   XCENC  =      -290.29228237
  PAW double counting   =     16963.98747256   -15951.69538777
  entropy T*S    EENTRO =        -0.00000000
  eigenvalues    EBANDS =      -793.63413024
  atomic energy  EATOM  =     13036.45147835
  Solvation  Ediel_sol  =         0.00000000
  ---------------------------------------------------
  free energy    TOTEN  =      -300.68604973 eV

  energy without entropy =     -300.68604973  energy(sigma->0) =     -300.68604973


--------------------------------------------------------------------------------------------------------




--------------------------------------- Iteration      1(  12)  ---------------------------------------


    POTLOK:  cpu time      0.1306: real time      0.1319
    SETDIJ:  cpu time      0.6014: real time      0.6039
     EDDAV:  cpu time      9.8245: real time      9.8712
       DOS:  cpu time      0.0008: real time      0.0008
    CHARGE:  cpu time      0.4158: real time      0.4173
    MIXING:  cpu time      0.0077: real time      0.0077
    --------------------------------------------
      LOOP:  cpu time     10.9807: real time     11.0327

 eigenvalue-minimisations  :  8424
 total energy-change (2. order) :-0.3145065E-02  (-0.4547112E-03)
 number of electron     360.0000002 magnetization       0.0518846
 augmentation part      -66.2708700 magnetization       0.0556756

 Broyden mixing:
  rms(total) = 0.98907E-02    rms(broyden)= 0.98907E-02
  rms(prec ) = 0.10582E-01
  weight for this iteration     100.00

 eigenvalues of (default mixing * dielectric matrix)
  average eigenvalue GAMMA=   1.3689
  3.0200  2.3345  1.2056  0.8787  0.8787  0.6087  0.6559

 Free energy of the ion-electron system (eV)
  ---------------------------------------------------
  alpha Z        PSCENC =       798.85086140
  Ewald energy   TEWEN  =    -12898.14412706
  -Hartree energ DENC   =     -1166.30620003
  -exchange      EXHF   =         0.00000000
  -V(xc)+E(xc)   XCENC  =      -290.29610217
  PAW double counting   =     16927.53461490   -15915.21979247
  entropy T*S    EENTRO =        -0.00000000
  eigenvalues    EBANDS =      -793.55992772
  atomic energy  EATOM  =     13036.45147835
  Solvation  Ediel_sol  =         0.00000000
  ---------------------------------------------------
  free energy    TOTEN  =      -300.68919479 eV

  energy without entropy =     -300.68919479  energy(sigma->0) =     -300.68919479


--------------------------------------------------------------------------------------------------------




--------------------------------------- Iteration      1(  13)  ---------------------------------------


    POTLOK:  cpu time      0.1301: real time      0.1311
    SETDIJ:  cpu time      0.6012: real time      0.6036
     EDDAV:  cpu time     11.0120: real time     11.0636
       DOS:  cpu time      0.0007: real time      0.0007
    CHARGE:  cpu time      0.4191: real time      0.4207
    MIXING:  cpu time      0.0078: real time      0.0078
    --------------------------------------------
      LOOP:  cpu time     12.1709: real time     12.2276

 eigenvalue-minimisations  :  9864
 total energy-change (2. order) :-0.7430862E-04  (-0.5665942E-04)
 number of electron     360.0000002 magnetization       0.0139375
 augmentation part      -66.2724631 magnetization       0.0145927

 Broyden mixing:
  rms(total) = 0.40965E-02    rms(broyden)= 0.40965E-02
  rms(prec ) = 0.42957E-02
  weight for this iteration     100.00

 eigenvalues of (default mixing * dielectric matrix)
  average eigenvalue GAMMA=   1.3418
  3.0601  2.4244  1.1410  0.9977  0.9977  0.8534  0.6504  0.6096

 Free energy of the ion-electron system (eV)
  ---------------------------------------------------
  alpha Z        PSCENC =       798.85086140
  Ewald energy   TEWEN  =    -12898.14412706
  -Hartree energ DENC   =     -1166.19139285
  -exchange      EXHF   =         0.00000000
  -V(xc)+E(xc)   XCENC  =      -290.30735335
  PAW double counting   =     16914.64939248   -15902.32371347
  entropy T*S    EENTRO =        -0.00000000
  eigenvalues    EBANDS =      -793.67441461
  atomic energy  EATOM  =     13036.45147835
  Solvation  Ediel_sol  =         0.00000000
  ---------------------------------------------------
  free energy    TOTEN  =      -300.68926910 eV

  energy without entropy =     -300.68926910  energy(sigma->0) =     -300.68926910


--------------------------------------------------------------------------------------------------------




--------------------------------------- Iteration      1(  14)  ---------------------------------------


    POTLOK:  cpu time      0.1297: real time      0.1303
    SETDIJ:  cpu time      0.6017: real time      0.6042
     EDDAV:  cpu time      9.6168: real time      9.6616
       DOS:  cpu time      0.0007: real time      0.0007
    CHARGE:  cpu time      0.4159: real time      0.4173
    MIXING:  cpu time      0.0081: real time      0.0081
    --------------------------------------------
      LOOP:  cpu time     10.7729: real time     10.8223

 eigenvalue-minimisations  :  8280
 total energy-change (2. order) :-0.1304249E-04  (-0.8769546E-05)
 number of electron     360.0000002 magnetization       0.0046024
 augmentation part      -66.2721319 magnetization       0.0048773

 Broyden mixing:
  rms(total) = 0.15994E-02    rms(broyden)= 0.15994E-02
  rms(prec ) = 0.17050E-02
  weight for this iteration     100.00

 eigenvalues of (default mixing * dielectric matrix)
  average eigenvalue GAMMA=   1.3308
  3.0824  2.4611  1.4530  1.1932  0.8820  0.8820  0.7679  0.6134  0.6418

 Free energy of the ion-electron system (eV)
  ---------------------------------------------------
  alpha Z        PSCENC =       798.85086140
  Ewald energy   TEWEN  =    -12898.14412706
  -Hartree energ DENC   =     -1166.18970331
  -exchange      EXHF   =         0.00000000
  -V(xc)+E(xc)   XCENC  =      -290.30826424
  PAW double counting   =     16910.54660737   -15898.21811703
  entropy T*S    EENTRO =        -0.00000000
  eigenvalues    EBANDS =      -793.67801764
  atomic energy  EATOM  =     13036.45147835
  Solvation  Ediel_sol  =         0.00000000
  ---------------------------------------------------
  free energy    TOTEN  =      -300.68928215 eV

  energy without entropy =     -300.68928215  energy(sigma->0) =     -300.68928215


--------------------------------------------------------------------------------------------------------




--------------------------------------- Iteration      1(  15)  ---------------------------------------


    POTLOK:  cpu time      0.1301: real time      0.1307
    SETDIJ:  cpu time      0.6030: real time      0.6055
     EDDAV:  cpu time      9.9385: real time      9.9851
       DOS:  cpu time      0.0008: real time      0.0009
    CHARGE:  cpu time      0.4238: real time      0.4254
    MIXING:  cpu time      0.0082: real time      0.0082
    --------------------------------------------
      LOOP:  cpu time     11.1044: real time     11.1558

 eigenvalue-minimisations  :  8600
 total energy-change (2. order) :-0.2442984E-05  (-0.1345314E-05)
 number of electron     360.0000002 magnetization       0.0017575
 augmentation part      -66.2723285 magnetization       0.0019541

 Broyden mixing:
  rms(total) = 0.72891E-03    rms(broyden)= 0.72891E-03
  rms(prec ) = 0.77708E-03
  weight for this iteration     100.00

 eigenvalues of (default mixing * dielectric matrix)
  average eigenvalue GAMMA=   1.2973
  3.0911  2.4349  1.6493  1.1064  0.9588  0.9588  0.8247  0.7073  0.6206  0.6206

 Free energy of the ion-electron system (eV)
  ---------------------------------------------------
  alpha Z        PSCENC =       798.85086140
  Ewald energy   TEWEN  =    -12898.14412706
  -Hartree energ DENC   =     -1166.17396826
  -exchange      EXHF   =         0.00000000
  -V(xc)+E(xc)   XCENC  =      -290.30882504
  PAW double counting   =     16910.09226687   -15897.76290591
  entropy T*S    EENTRO =        -0.00000000
  eigenvalues    EBANDS =      -793.69406494
  atomic energy  EATOM  =     13036.45147835
  Solvation  Ediel_sol  =         0.00000000
  ---------------------------------------------------
  free energy    TOTEN  =      -300.68928459 eV

  energy without entropy =     -300.68928459  energy(sigma->0) =     -300.68928459


--------------------------------------------------------------------------------------------------------




--------------------------------------- Iteration      1(  16)  ---------------------------------------


    POTLOK:  cpu time      0.1302: real time      0.1308
    SETDIJ:  cpu time      0.6007: real time      0.6033
     EDDAV:  cpu time      6.6313: real time      6.6664
       DOS:  cpu time      0.0011: real time      0.0011
    --------------------------------------------
      LOOP:  cpu time      7.3633: real time      7.4017

 eigenvalue-minimisations  :  4776
 total energy-change (2. order) :-0.6171542E-06  (-0.1264224E-06)
 number of electron     360.0000002 magnetization       0.0017575
 augmentation part      -66.2723285 magnetization       0.0019541

 Free energy of the ion-electron system (eV)
  ---------------------------------------------------
  alpha Z        PSCENC =       798.85086140
  Ewald energy   TEWEN  =    -12898.14412706
  -Hartree energ DENC   =     -1166.16761740
  -exchange      EXHF   =         0.00000000
  -V(xc)+E(xc)   XCENC  =      -290.30904886
  PAW double counting   =     16910.09643938   -15897.76683274
  entropy T*S    EENTRO =        -0.00000000
  eigenvalues    EBANDS =      -793.70043829
  atomic energy  EATOM  =     13036.45147835
  Solvation  Ediel_sol  =         0.00000000
  ---------------------------------------------------
  free energy    TOTEN  =      -300.68928521 eV

  energy without entropy =     -300.68928521  energy(sigma->0) =     -300.68928521


--------------------------------------------------------------------------------------------------------




 average (electrostatic) potential at core
  the test charge radii are     1.1631  1.0808
  (the norm of the test charge is              1.0000)
       1 -33.4908       2 -33.2770       3 -33.5459       4 -33.6496       5 -33.4250
       6 -33.3961       7 -33.1920       8 -33.4951       9 -33.6411      10 -33.3389
      11 -33.3923      12 -33.4308      13 -33.4060      14 -33.4439      15 -33.5280
      16 -33.5654      17 -33.4963      18 -33.4787      19 -33.8090      20 -33.4464
      21 -33.4819      22 -33.5553      23 -33.4511      24 -33.4753      25 -33.3552
      26 -33.5218      27 -33.4573      28 -33.5508      29 -33.4567      30 -33.5799
      31 -33.2299      32 -33.4966      33 -33.4420      34 -33.4703      35 -33.3109
      36 -33.5071      37 -54.6522      38 -54.7662      39 -54.7523      40 -55.0255
      41 -54.6378      42 -54.7466      43 -54.9426      44 -54.8251      45 -54.7554
      46 -54.7805      47 -54.7018      48 -54.6774      49 -54.9277      50 -55.1484
      51 -54.7277      52 -54.9099      53 -54.9619      54 -54.9282      55 -54.7952
      56 -54.5653      57 -55.0953      58 -54.7769      59 -54.8137      60 -54.9059
      61 -54.6964      62 -54.7905      63 -55.0418      64 -54.9692      65 -54.8484
      66 -54.6613      67 -54.6701      68 -54.6196      69 -54.6297      70 -54.9186
      71 -54.6996      72 -54.7907
 
 
 
 E-fermi :   3.5716     XC(G=0):  -9.3929     alpha+bet : -8.8426

 Fermi energy:         3.5716024047

 spin component 1

 k-point     1 :       0.0000    0.0000    0.0000
  band No.  band energies     occupation 
      1     -10.8781      1.00000
      2     -10.5552      1.00000
      3     -10.4394      1.00000
      4     -10.3316      1.00000
      5     -10.2679      1.00000
      6     -10.1985      1.00000
      7     -10.1405      1.00000
      8     -10.0276      1.00000
      9      -9.9329      1.00000
     10      -9.8880      1.00000
     11      -9.8016      1.00000
     12      -9.7938      1.00000
     13      -9.7858      1.00000
     14      -9.6809      1.00000
     15      -9.6737      1.00000
     16      -9.6327      1.00000
     17      -9.5412      1.00000
     18      -9.5242      1.00000
     19      -9.4829      1.00000
     20      -9.4470      1.00000
     21      -9.4072      1.00000
     22      -9.3383      1.00000
     23      -9.2996      1.00000
     24      -9.2668      1.00000
     25      -9.2390      1.00000
     26      -9.1887      1.00000
     27      -9.1623      1.00000
     28      -9.1192      1.00000
     29      -9.0947      1.00000
     30      -9.0799      1.00000
     31      -9.0250      1.00000
     32      -8.9778      1.00000
     33      -8.9603      1.00000
     34      -8.9494      1.00000
     35      -8.8721      1.00000
     36      -8.8086      1.00000
     37      -5.4025      1.00000
     38      -5.3448      1.00000
     39      -5.2760      1.00000
     40      -5.1791      1.00000
     41      -5.0809      1.00000
     42      -5.0637      1.00000
     43      -4.9689      1.00000
     44      -4.9228      1.00000
     45      -4.7304      1.00000
     46      -4.6762      1.00000
     47      -4.5411      1.00000
     48      -4.4686      1.00000
     49      -4.4602      1.00000
     50      -4.4270      1.00000
     51      -4.4171      1.00000
     52      -4.3534      1.00000
     53      -4.3280      1.00000
     54      -4.3043      1.00000
     55      -4.2979      1.00000
     56      -4.2615      1.00000
     57      -4.2189      1.00000
     58      -4.1978      1.00000
     59      -4.1750      1.00000
     60      -4.1417      1.00000
     61      -4.0965      1.00000
     62      -4.0516      1.00000
     63      -3.9301      1.00000
     64      -3.9143      1.00000
     65      -3.8390      1.00000
     66      -3.8051      1.00000
     67      -3.6991      1.00000
     68      -3.6286      1.00000
     69      -3.5087      1.00000
     70      -3.4523      1.00000
     71      -2.5104      1.00000
     72      -2.3744      1.00000
     73      -1.8391      1.00000
     74      -1.5971      1.00000
     75      -1.5600      1.00000
     76      -1.5258      1.00000
     77      -1.4995      1.00000
     78      -1.4210      1.00000
     79      -1.3505      1.00000
     80      -1.2439      1.00000
     81      -1.1898      1.00000
     82      -1.1479      1.00000
     83      -1.1322      1.00000
     84      -1.0788      1.00000
     85      -0.9780      1.00000
     86      -0.8375      1.00000
     87      -0.7848      1.00000
     88      -0.7404      1.00000
     89      -0.6695      1.00000
     90      -0.5915      1.00000
     91      -0.5454      1.00000
     92      -0.4254      1.00000
     93      -0.3555      1.00000
     94      -0.2377      1.00000
     95      -0.1860      1.00000
     96      -0.1191      1.00000
     97      -0.0666      1.00000
     98       0.0121      1.00000
     99       0.0849      1.00000
    100       0.0914      1.00000
    101       0.1532      1.00000
    102       0.1781      1.00000
    103       0.2172      1.00000
    104       0.2603      1.00000
    105       0.2800      1.00000
    106       0.3565      1.00000
    107       0.3864      1.00000
    108       0.4164      1.00000
    109       0.4307      1.00000
    110       0.4797      1.00000
    111       0.5240      1.00000
    112       0.5505      1.00000
    113       0.5780      1.00000
    114       0.6735      1.00000
    115       0.7050      1.00000
    116       0.7252      1.00000
    117       0.7421      1.00000
    118       0.7766      1.00000
    119       0.7873      1.00000
    120       0.8246      1.00000
    121       0.8317      1.00000
    122       0.8706      1.00000
    123       0.9083      1.00000
    124       0.9463      1.00000
    125       1.0013      1.00000
    126       1.0329      1.00000
    127       1.0836      1.00000
    128       1.1159      1.00000
    129       1.1308      1.00000
    130       1.1481      1.00000
    131       1.1701      1.00000
    132       1.2652      1.00000
    133       1.2691      1.00000
    134       1.2992      1.00000
    135       1.3485      1.00000
    136       1.3832      1.00000
    137       1.4126      1.00000
    138       1.4869      1.00000
    139       1.5436      1.00000
    140       1.5896      1.00000
    141       1.5988      1.00000
    142       1.6367      1.00000
    143       1.7080      1.00000
    144       1.7250      1.00000
    145       1.7806      1.00000
    146       1.8257      1.00000
    147       1.8385      1.00000
    148       1.8508      1.00000
    149       1.8941      1.00000
[...]
   0.237E+02 -.692E+01 -.283E+02   -.270E+02 0.764E+01 0.314E+02   0.221E+01 0.442E+00 -.265E+01   -.157E-03 -.953E-04 -.341E-03
   0.383E+01 0.103E+02 0.245E+02   -.405E+01 -.120E+02 -.272E+02   0.142E+00 0.153E+01 0.278E+01   -.491E-04 0.328E-04 0.133E-04
   0.139E+01 0.181E+02 0.350E+02   -.102E+01 -.190E+02 -.366E+02   -.762E+00 0.805E+00 0.145E+01   -.326E-03 0.134E-03 -.647E-04
   -.828E+01 -.592E+01 0.238E+02   0.852E+01 0.562E+01 -.254E+02   -.438E-01 0.375E+00 0.143E+01   -.389E-04 0.199E-03 0.673E-04
   -.160E+02 0.832E+01 0.209E+02   0.172E+02 -.860E+01 -.226E+02   -.135E+01 0.317E-01 0.185E+01   0.129E-04 0.790E-04 0.467E-04
   -.212E+02 -.724E+01 0.297E+02   0.223E+02 0.773E+01 -.316E+02   -.745E+00 -.425E-02 0.193E+01   0.432E-04 0.118E-03 0.121E-03
   -.190E+02 -.162E+01 0.190E+02   0.197E+02 0.104E+01 -.202E+02   -.138E+00 0.833E+00 0.144E+01   0.109E-03 0.549E-05 0.187E-03
   -.109E+02 0.186E+02 0.225E+02   0.114E+02 -.199E+02 -.238E+02   -.117E+00 0.145E+01 0.130E+01   -.351E-03 -.978E-04 0.924E-04
   0.332E+01 -.122E+01 0.305E+02   -.258E+01 0.964E+00 -.327E+02   -.784E+00 -.156E-01 0.205E+01   -.130E-03 0.560E-04 0.266E-03
   -.591E+00 -.754E+01 -.416E+02   0.404E+00 0.838E+01 0.430E+02   0.203E+00 -.125E+01 -.105E+01   0.109E-03 -.149E-03 0.447E-03
   0.117E+02 0.518E+00 -.258E+02   -.120E+02 -.336E-01 0.276E+02   0.265E+00 -.771E+00 -.232E+01   0.271E-04 -.230E-03 0.772E-04
   0.782E+01 -.176E+02 -.301E+02   -.810E+01 0.188E+02 0.319E+02   0.258E+00 -.136E+01 -.198E+01   -.138E-03 -.455E-04 0.313E-03
   -.550E+01 -.906E+01 -.225E+02   0.568E+01 0.102E+02 0.241E+02   -.542E-01 -.958E+00 -.153E+01   -.143E-03 0.101E-03 0.173E-03
   -.718E+01 -.142E+02 -.166E+02   0.738E+01 0.151E+02 0.177E+02   0.489E-01 -.134E+01 -.167E+01   -.847E-04 -.422E-03 0.235E-03
   -.316E+01 -.518E+01 -.256E+02   0.308E+01 0.561E+01 0.275E+02   0.148E+00 -.584E+00 -.182E+01   -.131E-03 0.210E-03 -.195E-04
   0.105E+01 -.646E+01 -.252E+02   -.122E+01 0.749E+01 0.271E+02   0.272E+00 -.110E+01 -.195E+01   0.963E-06 0.169E-03 0.152E-03
   0.801E+01 0.899E+01 0.142E+02   -.822E+01 -.971E+01 -.160E+02   -.363E-01 0.949E+00 0.220E+01   0.168E-03 -.246E-03 0.293E-03
   0.448E+01 -.173E+01 0.162E+02   -.462E+01 0.138E+01 -.179E+02   -.289E+00 0.719E+00 0.230E+01   0.156E-03 -.250E-03 0.506E-05
   -.601E+01 -.545E+01 0.225E+02   0.588E+01 0.627E+01 -.244E+02   0.139E+00 -.675E+00 0.210E+01   0.309E-04 -.878E-05 0.439E-04
   0.273E+01 -.165E+01 0.281E+02   -.288E+01 0.185E+01 -.300E+02   0.866E-01 -.296E+00 0.185E+01   0.174E-04 0.717E-04 -.117E-03
   -.676E+00 -.185E+02 0.282E+02   0.915E+00 0.196E+02 -.300E+02   -.512E-01 -.117E+01 0.166E+01   -.766E-04 0.594E-04 -.154E-03
   0.315E+01 -.144E+02 -.243E+02   -.299E+01 0.157E+02 0.255E+02   -.209E+00 -.153E+01 -.103E+01   0.312E-03 0.246E-04 0.271E-03
   -.673E+01 0.240E+02 -.304E+02   0.701E+01 -.260E+02 0.318E+02   0.863E+00 0.115E+01 -.149E+01   -.261E-03 0.106E-03 0.108E-03
   -.168E+02 -.808E+01 -.327E+02   0.176E+02 0.862E+01 0.351E+02   -.723E+00 -.474E+00 -.216E+01   -.130E-03 -.126E-03 -.353E-03
   0.130E+02 0.961E+01 -.245E+02   -.136E+02 -.106E+02 0.260E+02   0.140E+00 0.107E+01 -.146E+01   0.203E-03 0.893E-04 -.180E-03
   0.421E+01 0.271E+01 -.220E+02   -.440E+01 -.388E+01 0.236E+02   0.271E+00 0.130E+01 -.167E+01   0.104E-03 -.199E-03 -.815E-04
   0.166E+02 0.123E+02 -.329E+02   -.174E+02 -.134E+02 0.347E+02   0.226E+00 0.160E+01 -.136E+01   -.667E-04 0.806E-04 0.351E-04
   -.142E+02 0.261E+01 -.200E+02   0.153E+02 -.230E+01 0.214E+02   -.113E+01 -.259E+00 -.220E+01   0.177E-04 0.228E-03 -.261E-03
   -.158E+02 -.223E+02 -.262E+02   0.170E+02 0.225E+02 0.281E+02   -.116E+01 0.678E-01 -.116E+01   0.100E-03 0.276E-03 -.909E-04
   0.849E+01 0.235E+02 -.176E+02   -.897E+01 -.250E+02 0.190E+02   0.168E+00 0.981E+00 -.156E+01   0.105E-03 -.155E-03 0.598E-04
   0.725E+00 0.256E+02 -.108E+02   -.737E+00 -.271E+02 0.121E+02   0.594E-01 0.875E+00 -.204E+01   -.155E-03 0.109E-03 0.554E-04
   -.150E+01 -.149E+02 0.367E+02   0.147E+01 0.160E+02 -.386E+02   0.590E-01 -.105E+01 0.215E+01   0.360E-03 -.114E-04 -.188E-03
   0.635E+01 0.100E+01 0.267E+02   -.624E+01 -.500E+00 -.285E+02   -.371E+00 -.961E+00 0.174E+01   -.301E-04 -.435E-04 0.218E-03
   -.499E+01 -.201E+02 0.162E+02   0.510E+01 0.212E+02 -.172E+02   -.321E-01 -.108E+01 0.867E+00   -.118E-04 0.161E-03 -.374E-03
   0.392E+01 0.134E+01 0.205E+02   -.426E+01 -.843E+00 -.220E+02   0.125E+00 -.312E+00 0.161E+01   -.187E-03 0.371E-04 -.301E-03
   -.126E+00 -.527E+01 0.331E+02   0.153E+00 0.624E+01 -.353E+02   -.189E+00 -.101E+01 0.152E+01   -.552E-04 -.197E-03 0.324E-04
   -.542E+01 0.525E+01 0.253E+02   0.614E+01 -.484E+01 -.268E+02   -.794E+00 -.955E+00 0.942E+00   -.190E-03 0.492E-04 0.173E-03
   0.129E+02 -.197E+00 -.323E+02   -.135E+02 0.905E+00 0.341E+02   0.301E+00 -.520E+00 -.165E+01   0.221E-03 -.637E-04 0.183E-05
 -----------------------------------------------------------------------------------------------
   -.663E+01 -.429E+01 0.109E+01   0.302E-13 0.675E-13 0.639E-13   0.663E+01 0.429E+01 -.109E+01   0.720E-04 0.208E-03 0.152E-02
 
 
 POSITION                                       TOTAL-FORCE (eV/Angst)
 -----------------------------------------------------------------------------------
      0.84637      0.40997      1.57103        -0.028236      0.222432      0.140941
      2.96090     11.06444      4.08852        -0.131553      0.171640      0.120036
      7.19239      2.71874      4.29089         0.120291      0.183364     -0.476820
      6.82800      6.84991      4.24137         0.525145     -0.144942     -0.413879
      6.90812     11.00027      3.97195         0.194889      0.483246      0.579374
     11.11977      2.51918      4.08875        -0.112437      0.371203     -0.085029
     11.16626      7.00041      4.16850         0.076644     -0.444148      0.216983
     11.04895     10.94131      3.89754         0.086738      0.181066      0.239792
      1.11873      2.21070      6.87510         0.124081     -0.598245      0.083117
      0.98150      6.30333      7.27147         0.257803      0.002969     -0.532063
      0.91673     10.14420      6.87013        -0.003988     -0.013696      0.040955
      5.03585      1.83457      7.00180        -0.176446     -0.003405     -0.048386
      5.23663      6.04347      6.94014        -0.105943     -0.185841      0.017018
      5.32641     10.39185      6.91177        -0.396239     -0.336490      0.552027
      9.34100      1.97688      7.01053         0.556903      0.074478     -0.819141
      9.35742      6.05231      7.06229        -0.531506      0.019074     -0.195996
      3.01875      6.81450      4.17470        -0.493200     -0.127315     -0.347489
      2.84178      2.70540      4.04332        -0.035578     -0.166964      0.268695
      9.24815     10.43995      6.83210         0.064065     -0.544894      0.619043
     10.87997      8.18018      9.49220         0.798779      0.235928     -0.045593
     11.36367     12.38788      9.74149         0.212585     -0.190470     -0.239564
      0.88856      4.52770      1.54903         0.071127      0.603287      0.149643
      0.90664      8.90397      1.37336         0.272369     -0.004558      0.086164
      5.00399      0.57716      1.29429         0.066013      0.098959      0.556716
      4.92302      4.55447      1.65737         0.210806      0.275591     -0.465550
      9.13008      0.53554      1.16902        -0.159855      0.328946      0.427262
      9.34460      4.93101      1.17470        -0.197854     -0.034762      0.517728
      5.05524      8.79864      1.57910        -0.140385      0.236851     -0.290867
      2.94814      3.84400      9.77886         0.279402      0.269233      0.058853
      3.06729      8.32827      9.62106         0.365826     -0.169492     -0.204964
      2.97428     12.08453      9.42532        -0.057729      0.398885      0.157208
      7.07231      3.71527      9.77559        -0.332972      0.214677     -0.325138
      6.98011      8.17454      9.80364         0.141962     -0.087906     -0.354347
      7.25547     12.43880      9.51709        -0.096326     -0.030841      0.123680
     11.59700      3.99993      9.56182        -1.128024      1.159701      0.485147
      9.13236      8.87823      1.39542        -0.072747     -0.193640      0.074786
     11.42993      0.35310      7.22200        -0.395516     -0.113885     -0.159831
      2.90734      4.43542      7.29703         0.196120      0.072494     -0.181091
      2.83043      8.40439      7.07602        -0.161036     -0.247989      0.212306
      6.87405     12.43437      6.99987         0.366502      0.482971      0.065687
      6.95194      4.14858      7.11616         0.494517      0.249320      0.237263
      7.15941      8.61794      7.20690         0.377387      0.162490     -0.043043
     11.12703      4.24595      7.08851        -0.042173     -0.271223     -0.141630
      9.06745      0.20799      3.68290         0.016168     -0.403335      0.393458
      0.83688      0.24116      4.10999        -0.069905     -0.286446     -0.444612
      0.78745      4.37808      4.06636        -0.029669     -0.235556     -0.156715
      0.91179      8.52080      3.90445         0.123015      0.185283      0.131234
      4.91385      0.34770      3.98128         0.246712     -0.410410     -0.538097
      4.99590      4.39335      4.13832         0.070538     -0.150440      0.111496
      4.92225      8.61410      4.10193         0.101506     -0.062507     -0.003987
      2.96588      0.14450      6.89582        -0.243223      0.227035      0.387548
     11.20361      8.41796      6.87001        -0.427133      0.371808      0.560905
     11.24264     10.56283      1.39482         0.007354      0.148349      0.182105
      2.88525      2.29635      1.54404        -0.063719     -0.099439     -0.125518
     11.16508      2.18685      1.56092         0.187433     -0.024498     -0.122983
      9.20880      4.39070      3.77956        -0.048003     -0.282139      0.162888
      0.85578      2.30040      9.45287         1.144132     -0.836570     -0.055632
      0.53734      6.35651      9.69337         0.028098      0.066000      0.210137
      0.97088     10.45761      9.41844        -0.512587      0.108810      0.036787
      4.94046      2.08318      9.57655         0.073648      0.132071     -0.016467
      5.26544      6.32392      9.41892        -0.585611      0.423715      0.393452
      4.87128     10.35833      9.64354        -0.013191      0.055888     -0.750568
      8.94656      1.95471      9.39097         0.046980      0.298853      0.805112
      9.05960      6.50464      9.57547        -0.310137     -0.445911     -0.149149
      9.26549     10.84075      9.52691         0.047144     -0.662324     -0.717379
      2.92673      6.32101      1.60198         0.025477     -0.005586      0.210912
      3.05090     10.73411      1.56969        -0.261762     -0.457722     -0.106586
      7.04330      2.24185      1.64336         0.071560     -0.032676     -0.137046
      7.07851      6.35973      1.63106        -0.213696      0.186195      0.203370
      7.04086     10.56695      1.58269        -0.162307     -0.037960     -0.671107
     11.28259      6.66186      1.67989        -0.078901     -0.546793     -0.597533
      9.11112      8.57602      3.91795        -0.230133      0.188204      0.143975
 -----------------------------------------------------------------------------------
    total drift:                               -0.000036      0.000569      0.000046


--------------------------------------------------------------------------------------------------------



  FREE ENERGIE OF THE ION-ELECTRON SYSTEM (eV)
  ---------------------------------------------------
  free  energy   TOTEN  =      -300.68928521 eV

  energy  without entropy=     -300.68928521  energy(sigma->0) =     -300.68928521
 


--------------------------------------------------------------------------------------------------------


    POTLOK:  cpu time      0.7277: real time      0.7313


--------------------------------------------------------------------------------------------------------


     LOOP+:  cpu time    181.3653: real time    182.2989
    4ORBIT:  cpu time      0.0000: real time      0.0000



 total charge

# of ion       s       p       d       tot
------------------------------------------
    1        1.328   0.738   0.052   2.118
    2        1.323   0.765   0.056   2.143
    3        1.337   0.702   0.048   2.087
    4        1.331   0.718   0.048   2.098
    5        1.311   0.793   0.058   2.162
    6        1.324   0.747   0.053   2.123
    7        1.320   0.788   0.062   2.171
    8        1.327   0.744   0.051   2.122
    9        1.338   0.709   0.053   2.100
   10        1.325   0.772   0.058   2.155
   11        1.328   0.751   0.054   2.134
   12        1.332   0.748   0.056   2.136
   13        1.308   0.785   0.058   2.152
   14        1.326   0.759   0.057   2.141
   15        1.316   0.783   0.058   2.156
   16        1.332   0.742   0.051   2.126
   17        1.330   0.739   0.053   2.121
   18        1.321   0.764   0.056   2.140
   19        1.341   0.673   0.041   2.055
   20        1.324   0.772   0.057   2.152
   21        1.325   0.753   0.055   2.133
   22        1.326   0.734   0.052   2.111
   23        1.334   0.731   0.052   2.117
   24        1.340   0.707   0.051   2.098
   25        1.325   0.763   0.057   2.144
   26        1.315   0.765   0.057   2.137
   27        1.331   0.722   0.049   2.102
   28        1.329   0.744   0.054   2.127
   29        1.325   0.766   0.056   2.147
   30        1.337   0.709   0.049   2.094
   31        1.315   0.802   0.058   2.174
   32        1.333   0.730   0.051   2.114
   33        1.319   0.764   0.058   2.140
   34        1.320   0.787   0.063   2.170
   35        1.306   0.848   0.067   2.221
   36        1.325   0.750   0.056   2.131
   37        1.476   2.291   0.027   3.794
   38        1.474   2.297   0.029   3.800
   39        1.477   2.296   0.031   3.804
   40        1.476   2.315   0.037   3.828
   41        1.476   2.287   0.027   3.790
   42        1.473   2.295   0.027   3.796
   43        1.477   2.303   0.034   3.814
   44        1.477   2.292   0.030   3.799
   45        1.481   2.273   0.030   3.785
   46        1.480   2.285   0.030   3.794
   47        1.474   2.301   0.029   3.804
   48        1.479   2.279   0.028   3.785
   49        1.479   2.293   0.034   3.805
   50        1.480   2.303   0.038   3.821
   51        1.480   2.280   0.030   3.789
   52        1.481   2.267   0.031   3.779
   53        1.478   2.296   0.033   3.808
   54        1.475   2.293   0.033   3.802
   55        1.476   2.294   0.030   3.800
   56        1.475   2.284   0.025   3.784
   57        1.479   2.338   0.041   3.859
   58        1.480   2.291   0.032   3.803
   59        1.475   2.302   0.031   3.808
   60        1.477   2.292   0.032   3.801
   61        1.476   2.302   0.030   3.808
   62        1.479   2.282   0.031   3.792
   63        1.475   2.338   0.040   3.853
   64        1.477   2.319   0.036   3.832
   65        1.477   2.297   0.031   3.806
   66        1.477   2.284   0.027   3.788
   67        1.478   2.285   0.029   3.791
   68        1.474   2.286   0.026   3.786
   69        1.475   2.273   0.024   3.772
   70        1.477   2.315   0.035   3.827
   71        1.475   2.300   0.031   3.806
   72        1.476   2.296   0.031   3.803
--------------------------------------------------
tot        100.896 109.691   3.081 213.668



 magnetization (x)

# of ion       s       p       d       tot
------------------------------------------
    1       -0.000   0.000   0.000   0.000
    2       -0.000   0.000   0.000   0.000
    3       -0.000   0.000   0.000   0.000
    4       -0.000   0.000   0.000   0.000
    5       -0.000   0.000   0.000   0.000
    6       -0.000   0.000   0.000   0.000
    7       -0.000   0.000  -0.000   0.000
    8       -0.000   0.000   0.000   0.000
    9       -0.000   0.000  -0.000   0.000
   10       -0.000   0.000  -0.000  -0.000
   11       -0.000   0.000   0.000   0.000
   12       -0.000   0.000   0.000   0.000
   13       -0.000  -0.000  -0.000  -0.000
   14       -0.000   0.000   0.000   0.000
   15       -0.000   0.000   0.000   0.000
   16       -0.000   0.000   0.000   0.000
   17       -0.000  -0.000  -0.000  -0.000
   18       -0.000   0.000  -0.000  -0.000
   19       -0.000   0.000   0.000   0.000
   20       -0.000   0.000   0.000   0.000
   21       -0.000   0.000   0.000   0.000
   22       -0.000   0.000  -0.000  -0.000
   23       -0.000   0.000  -0.000  -0.000
   24       -0.000   0.000   0.000   0.000
   25       -0.000   0.000  -0.000  -0.000
   26       -0.000   0.000   0.000   0.000
   27       -0.000   0.000   0.000   0.000
   28       -0.000   0.000  -0.000  -0.000
   29       -0.000  -0.000  -0.000  -0.000
   30       -0.000  -0.000  -0.000  -0.000
   31       -0.000   0.000   0.000   0.000
   32       -0.000   0.000   0.000   0.000
   33       -0.000   0.000   0.000   0.000
   34       -0.000   0.000   0.000   0.000
   35       -0.000   0.000  -0.000   0.000
   36       -0.000   0.000   0.000   0.000
   37       -0.000  -0.000   0.000  -0.000
   38       -0.000  -0.000  -0.000  -0.000
   39       -0.000  -0.000   0.000  -0.000
   40       -0.000  -0.000   0.000  -0.000
   41       -0.000  -0.000   0.000  -0.000
   42       -0.000  -0.000   0.000  -0.000
   43       -0.000  -0.000   0.000  -0.000
   44       -0.000  -0.000   0.000  -0.000
   45       -0.000  -0.000   0.000  -0.000
   46       -0.000  -0.000  -0.000  -0.000
   47       -0.000  -0.000  -0.000  -0.000
   48       -0.000  -0.000   0.000  -0.000
   49       -0.000  -0.000  -0.000  -0.000
   50       -0.000  -0.000  -0.000  -0.000
   51       -0.000  -0.000   0.000  -0.000
   52       -0.000  -0.000   0.000  -0.000
   53       -0.000  -0.000   0.000  -0.000
   54       -0.000  -0.000  -0.000  -0.000
   55       -0.000  -0.000   0.000  -0.000
   56       -0.000  -0.000   0.000  -0.000
   57        0.000  -0.000  -0.000  -0.000
   58       -0.000  -0.000  -0.000  -0.000
   59       -0.000  -0.000   0.000  -0.000
   60       -0.000  -0.000   0.000  -0.000
   61       -0.000  -0.000  -0.000  -0.000
   62       -0.000  -0.000   0.000  -0.000
   63       -0.000  -0.000   0.000  -0.000
   64       -0.000  -0.000   0.000  -0.000
   65       -0.000  -0.000   0.000  -0.000
   66       -0.000  -0.000  -0.000  -0.000
   67       -0.000  -0.000   0.000  -0.000
   68       -0.000  -0.000   0.000  -0.000
   69       -0.000  -0.000   0.000  -0.000
   70       -0.000  -0.000   0.000  -0.000
   71       -0.000  -0.000   0.000  -0.000
   72       -0.000  -0.000   0.000  -0.000
--------------------------------------------------
tot         -0.000  -0.000   0.000  -0.000
 

 total amount of memory used by VASP MPI-rank0   110524. kBytes
=======================================================================

   base      :      30000. kBytes
   nonl-proj :      16287. kBytes
   fftplans  :       6179. kBytes
   grid      :      15593. kBytes
   one-center:        146. kBytes
   wavefun   :      42319. kBytes
 
  
  
 General timing and accounting informations for this job:
 ========================================================
  
                  Total CPU time used (sec):      192.927
                            User time (sec):      186.834
                          System time (sec):        6.093
                         Elapsed time (sec):      195.670
  
                   Maximum memory used (kb):      312332.
                   Average memory used (kb):          N/A
  
                          Minor page faults:       100590
                          Major page faults:           46
                 Voluntary context switches:        11061
