 running  256 mpi-ranks, with    1 threads/rank, on    7 nodes
 distrk:  each k-point on  128 cores,    2 groups
 distr:  one band on    4 cores,   32 groups
 vasp.6.4.1 05Apr23 (build Jun 14 2024 13:38:54) complex                         
 POSCAR found type information on POSCAR C S 
 POSCAR found :  2 types and     365 ions
 Reading from existing POTCAR
 scaLAPACK will be used
 Reading from existing POTCAR
 -----------------------------------------------------------------------------
|                                                                             |
|               ----> ADVICE to this user running VASP <----                  |
|                                                                             |
|     You have a (more or less) 'large supercell' and for larger cells it     |
|     might be more efficient to use real-space projection operators.         |
|     Therefore, try LREAL= Auto in the INCAR file.                           |
|     Mind: If you want to do very accurate calculations, keep the            |
|     reciprocal projection scheme (i.e. LREAL=.FALSE.).                      |
|                                                                             |
 -----------------------------------------------------------------------------

 LDA part: xc-table for Pade appr. of Perdew
 POSCAR, INCAR and KPOINTS ok, starting setup
 FFT: planning ... GRIDC
 FFT: planning ... GRID_SOFT
 FFT: planning ... GRID
 WAVECAR not read
 WARNING: chargedensity file is incomplete
 WARNING: random wavefunctions but no delay for mixing, default for NELMDL
 entering main loop
       N       E                     dE             d eps       ncg     rms          rms(c)
DAV:   1     0.130629798565E+05    0.13063E+05   -0.45106E+05  4544   0.932E+02
DAV:   2     0.631834816170E+02   -0.13000E+05   -0.12226E+05  5344   0.239E+02
DAV:   3    -0.335061529102E+04   -0.34138E+04   -0.33696E+04  4544   0.130E+02
DAV:   4    -0.353165863253E+04   -0.18104E+03   -0.17844E+03  4416   0.387E+01
DAV:   5    -0.353651892173E+04   -0.48603E+01   -0.48119E+01  4800   0.560E+00    0.740E+01
DAV:   6    -0.341464721163E+04    0.12187E+03   -0.73315E+01  4064   0.816E+00    0.544E+01
DAV:   7    -0.330744609822E+04    0.10720E+03   -0.45062E+02  4064   0.186E+01    0.114E+01
DAV:   8    -0.330572501525E+04    0.17211E+01   -0.27376E+01  3904   0.553E+00    0.698E+00
DAV:   9    -0.330609964659E+04   -0.37463E+00   -0.29142E+00  4320   0.185E+00    0.297E+00
DAV:  10    -0.330592668737E+04    0.17296E+00   -0.13987E+00  4032   0.120E+00    0.920E-01
DAV:  11    -0.330591446660E+04    0.12221E-01   -0.20091E-01  4224   0.446E-01    0.356E-01
DAV:  12    -0.330591341429E+04    0.10523E-02   -0.38069E-02  4256   0.194E-01    0.157E-01
DAV:  13    -0.330591404948E+04   -0.63519E-03   -0.70083E-03  4192   0.768E-02    0.120E-01
DAV:  14    -0.330591433172E+04   -0.28225E-03   -0.75232E-04  4192   0.284E-02    0.761E-02
DAV:  15    -0.330591456037E+04   -0.22865E-03   -0.34677E-04  4192   0.222E-02    0.176E-02
DAV:  16    -0.330591458089E+04   -0.20514E-04   -0.75958E-05  4224   0.841E-03    0.103E-02
DAV:  17    -0.330591458051E+04    0.38050E-06   -0.13756E-05  4256   0.398E-03    0.495E-03
DAV:  18    -0.330591458030E+04    0.20751E-06   -0.52893E-06  3968   0.251E-03
   1 F= -.33199692E+04 E0= -.33199692E+04  d E =-.331997E+04
 BRION: g(F)=  0.124E+02 g(S)=  0.000E+00
 bond charge predicted
       N       E                     dE             d eps       ncg     rms          rms(c)
DAV:   1    -0.330340360786E+04    0.25110E+01   -0.12211E+03  4032   0.365E+01    0.751E+00
DAV:   2    -0.330729376879E+04   -0.38902E+01   -0.50652E+01  4032   0.713E+00    0.655E+00
DAV:   3    -0.330677345696E+04    0.52031E+00   -0.17879E+00  4384   0.164E+00    0.488E+00
DAV:   4    -0.330635978058E+04    0.41368E+00   -0.20580E+00  3968   0.161E+00    0.177E+00
DAV:   5    -0.330636033457E+04   -0.55399E-03   -0.44131E-01  4128   0.687E-01    0.811E-01
DAV:   6    -0.330636005604E+04    0.27854E-03   -0.64379E-02  4416   0.252E-01    0.354E-01
DAV:   7    -0.330636120903E+04   -0.11530E-02   -0.76832E-03  4128   0.111E-01    0.216E-01
DAV:   8    -0.330636083326E+04    0.37577E-03   -0.40073E-03  4032   0.695E-02    0.872E-02
DAV:   9    -0.330636087140E+04   -0.38142E-04   -0.11883E-03  4256   0.389E-02    0.434E-02
DAV:  10    -0.330636085138E+04    0.20021E-04   -0.34527E-04  4032   0.205E-02    0.159E-02
DAV:  11    -0.330636085441E+04   -0.30309E-05   -0.48377E-05  4032   0.803E-03    0.752E-03
DAV:  12    -0.330636085484E+04   -0.42986E-06   -0.89614E-06  4128   0.341E-03
   2 F= -.33204220E+04 E0= -.33204220E+04  d E =-.452791E+00
 BRION: g(F)=  0.266E+02 g(S)=  0.000E+00 retain N=  1 mean eig= 0.37
 eig:   0.372
 bond charge predicted
       N       E                     dE             d eps       ncg     rms          rms(c)
DAV:   1    -0.330818053084E+04   -0.18197E+01   -0.50833E+02  3840   0.256E+01    0.457E+00
DAV:   2    -0.330921739088E+04   -0.10369E+01   -0.14858E+01  4096   0.403E+00    0.453E+00
DAV:   3    -0.330903965116E+04    0.17774E+00   -0.55680E-01  4480   0.792E-01    0.374E+00
DAV:   4    -0.330872378712E+04    0.31586E+00   -0.52317E-01  3808   0.869E-01    0.173E+00
DAV:   5    -0.330869151426E+04    0.32273E-01   -0.28223E-01  4096   0.579E-01    0.522E-01
DAV:   6    -0.330869130361E+04    0.21065E-03   -0.51908E-02  3936   0.236E-01    0.230E-01
DAV:   7    -0.330869206020E+04   -0.75659E-03   -0.40704E-03  4384   0.719E-02    0.121E-01
DAV:   8    -0.330869177878E+04    0.28142E-03   -0.15525E-03  4032   0.456E-02    0.516E-02
DAV:   9    -0.330869179493E+04   -0.16153E-04   -0.30156E-04  4256   0.196E-02    0.294E-02
DAV:  10    -0.330869177918E+04    0.15748E-04   -0.91403E-05  3968   0.106E-02    0.147E-02
DAV:  11    -0.330869177745E+04    0.17368E-05   -0.21099E-05  4160   0.529E-03    0.653E-03
DAV:  12    -0.330869177716E+04    0.28458E-06   -0.48064E-06  4032   0.244E-03
   3 F= -.33227518E+04 E0= -.33227518E+04  d E =-.232981E+01
 BRION: g(F)=  0.112E+02 g(S)=  0.000E+00 retain N=  2 mean eig= 2.31
 eig:   0.287  4.328
 bond charge predicted
       N       E                     dE             d eps       ncg     rms          rms(c)
DAV:   1    -0.331020955952E+04   -0.15178E+01   -0.91448E+01  3616   0.109E+01    0.174E+00
DAV:   2    -0.331040745742E+04   -0.19790E+00   -0.25406E+00  4000   0.168E+00    0.169E+00
DAV:   3    -0.331038604020E+04    0.21417E-01   -0.93706E-02  4640   0.309E-01    0.138E+00
DAV:   4    -0.331034592195E+04    0.40118E-01   -0.70572E-02  3904   0.328E-01    0.570E-01
DAV:   5    -0.331034439173E+04    0.15302E-02   -0.32459E-02  4160   0.201E-01    0.177E-01
DAV:   6    -0.331034440513E+04   -0.13396E-04   -0.51407E-03  3968   0.790E-02    0.763E-02
DAV:   7    -0.331034447735E+04   -0.72220E-04   -0.59016E-04  4384   0.257E-02    0.454E-02
DAV:   8    -0.331034444574E+04    0.31615E-04   -0.15290E-04  4032   0.143E-02    0.216E-02
DAV:   9    -0.331034445147E+04   -0.57326E-05   -0.34542E-05  4352   0.704E-03    0.970E-03
DAV:  10    -0.331034445181E+04   -0.34360E-06   -0.11849E-05  4032   0.379E-03    0.388E-03
DAV:  11    -0.331034445166E+04    0.15093E-06   -0.17248E-06  3456   0.156E-03
   4 F= -.33244040E+04 E0= -.33244040E+04  d E =-.165219E+01
 BRION: g(F)=  0.178E+01 g(S)=  0.000E+00 retain N=  2 mean eig= 1.39
 eig:   0.195  2.588
 bond charge predicted
       N       E                     dE             d eps       ncg     rms          rms(c)
DAV:   1    -0.331057978642E+04   -0.23533E+00   -0.71649E+01  3680   0.915E+00    0.179E+00
DAV:   2    -0.331076045422E+04   -0.18067E+00   -0.23791E+00  4128   0.153E+00    0.162E+00
DAV:   3    -0.331073336275E+04    0.27091E-01   -0.10381E-01  4448   0.350E-01    0.122E+00
DAV:   4    -0.331070627436E+04    0.27088E-01   -0.67537E-02  4000   0.312E-01    0.485E-01
DAV:   5    -0.331070667424E+04   -0.39988E-03   -0.25774E-02  4160   0.172E-01    0.172E-01
DAV:   6    -0.331070622616E+04    0.44808E-03   -0.43172E-03  4128   0.748E-02    0.710E-02
DAV:   7    -0.331070629415E+04   -0.67993E-04   -0.72337E-04  4096   0.280E-02    0.428E-02
DAV:   8    -0.331070626951E+04    0.24643E-04   -0.11457E-04  4128   0.123E-02    0.221E-02
DAV:   9    -0.331070627408E+04   -0.45712E-05   -0.41852E-05  4192   0.688E-03    0.824E-03
DAV:  10    -0.331070627450E+04   -0.41770E-06   -0.71437E-06  4192   0.315E-03
   5 F= -.33247643E+04 E0= -.33247643E+04  d E =-.360337E+00
 BRION: g(F)=  0.253E+01 g(S)=  0.000E+00 retain N=  3 mean eig= 1.46
 eig:   3.909  0.199  0.273
 bond charge predicted
       N       E                     dE             d eps       ncg     rms          rms(c)
DAV:   1    -0.331097616484E+04   -0.26989E+00   -0.36962E+01  3648   0.718E+00    0.114E+00
DAV:   2    -0.331104413181E+04   -0.67967E-01   -0.94274E-01  4192   0.104E+00    0.116E+00
DAV:   3    -0.331103798254E+04    0.61493E-02   -0.37909E-02  4672   0.199E-01    0.103E+00
DAV:   4    -0.331101476274E+04    0.23220E-01   -0.35938E-02  4320   0.245E-01    0.465E-01
DAV:   5    -0.331101288266E+04    0.18801E-02   -0.23389E-02  4000   0.168E-01    0.154E-01
DAV:   6    -0.331101263390E+04    0.24876E-03   -0.41106E-03  4384   0.764E-02    0.738E-02
DAV:   7    -0.331101272804E+04   -0.94143E-04   -0.85816E-04  4096   0.275E-02    0.366E-02
DAV:   8    -0.331101271568E+04    0.12360E-04   -0.59985E-05  4224   0.104E-02    0.232E-02
DAV:   9    -0.331101271916E+04   -0.34754E-05   -0.41786E-05  4128   0.730E-03    0.622E-03
DAV:  10    -0.331101271909E+04    0.70722E-07   -0.67496E-06  4096   0.331E-03
   6 F= -.33250710E+04 E0= -.33250710E+04  d E =-.306666E+00
 BRION: g(F)=  0.795E+00 g(S)=  0.000E+00 retain N=  3 mean eig= 2.82
 eig:   7.927  0.260  0.260
 bond charge predicted
       N       E                     dE             d eps       ncg     rms          rms(c)
DAV:   1    -0.331112933760E+04   -0.11662E+00   -0.24186E+01  3616   0.568E+00    0.904E-01
DAV:   2    -0.331117322126E+04   -0.43884E-01   -0.58021E-01  4352   0.790E-01    0.889E-01
DAV:   3    -0.331116849606E+04    0.47252E-02   -0.22473E-02  4480   0.161E-01    0.754E-01
DAV:   4    -0.331115867360E+04    0.98225E-02   -0.24421E-02  4032   0.198E-01    0.265E-01
DAV:   5    -0.331115906554E+04   -0.39194E-03   -0.90918E-03  4032   0.104E-01    0.103E-01
DAV:   6    -0.331115893247E+04    0.13307E-03   -0.13418E-03  4416   0.463E-02    0.480E-02
DAV:   7    -0.331115895016E+04   -0.17698E-04   -0.41260E-04  4096   0.197E-02    0.282E-02
DAV:   8    -0.331115894260E+04    0.75611E-05   -0.38478E-05  4416   0.862E-03    0.171E-02
DAV:   9    -0.331115894222E+04    0.38312E-06   -0.36770E-05  4128   0.654E-03    0.447E-03
DAV:  10    -0.331115894258E+04   -0.35716E-06   -0.47878E-06  3712   0.248E-03
   7 F= -.33252173E+04 E0= -.33252173E+04  d E =-.146346E+00
 BRION: g(F)=  0.598E+00 g(S)=  0.000E+00 retain N=  2 mean eig= 0.28
 eig:   0.167  0.385
 bond charge predicted
       N       E                     dE             d eps       ncg     rms          rms(c)
DAV:   1    -0.331120663371E+04   -0.47691E-01   -0.98264E+00  3648   0.370E+00    0.613E-01
DAV:   2    -0.331122466113E+04   -0.18027E-01   -0.25823E-01  4160   0.549E-01    0.612E-01
DAV:   3    -0.331122206497E+04    0.25962E-02   -0.10930E-02  4928   0.106E-01    0.523E-01
DAV:   4    -0.331121587464E+04    0.61903E-02   -0.10869E-02  4256   0.130E-01    0.228E-01
DAV:   5    -0.331121549975E+04    0.37489E-03   -0.52162E-03  4192   0.800E-02    0.722E-02
DAV:   6    -0.331121551641E+04   -0.16658E-04   -0.77598E-04  4064   0.317E-02    0.297E-02
DAV:   7    -0.331121552964E+04   -0.13229E-04   -0.11049E-04  4160   0.109E-02    0.172E-02
DAV:   8    -0.331121552444E+04    0.51970E-05   -0.20536E-05  4128   0.561E-03    0.858E-03
DAV:   9    -0.331121552553E+04   -0.10903E-05   -0.76132E-06  4064   0.305E-03    0.381E-03
DAV:  10    -0.331121552547E+04    0.61875E-07   -0.14080E-06  3136   0.154E-03
   8 F= -.33252738E+04 E0= -.33252738E+04  d E =-.564878E-01
 BRION: g(F)=  0.358E+00 g(S)=  0.000E+00 retain N=  3 mean eig= 1.25
 eig:   0.291  0.291  3.179
 bond charge predicted
       N       E                     dE             d eps       ncg     rms          rms(c)
DAV:   1    -0.331125383312E+04   -0.38308E-01   -0.55084E+00  3648   0.276E+00    0.438E-01
DAV:   2    -0.331126344156E+04   -0.96084E-02   -0.13807E-01  4160   0.395E-01    0.442E-01
DAV:   3    -0.331126248472E+04    0.95684E-03   -0.60774E-03  4576   0.780E-02    0.386E-01
DAV:   4    -0.331125959015E+04    0.28946E-02   -0.37278E-03  4224   0.802E-02    0.197E-01
DAV:   5    -0.331125917386E+04    0.41629E-03   -0.34652E-03  3904   0.670E-02    0.578E-02
DAV:   6    -0.331125916766E+04    0.62028E-05   -0.66262E-04  4128   0.295E-02    0.295E-02
DAV:   7    -0.331125918157E+04   -0.13916E-04   -0.11386E-04  4192   0.101E-02    0.138E-02
DAV:   8    -0.331125917977E+04    0.18047E-05   -0.97058E-06  4128   0.434E-03    0.852E-03
DAV:   9    -0.331125918089E+04   -0.11255E-05   -0.65432E-06  4064   0.281E-03    0.250E-03
DAV:  10    -0.331125918085E+04    0.42375E-07   -0.67181E-07  2432   0.115E-03
   9 F= -.33253171E+04 E0= -.33253171E+04  d E =-.432778E-01
 BRION: g(F)=  0.194E+00 g(S)=  0.000E+00 retain N=  3 mean eig= 2.05
 eig:   5.604  0.276  0.276
 bond charge predicted
       N       E                     dE             d eps       ncg     rms          rms(c)
DAV:   1    -0.331129115690E+04   -0.31976E-01   -0.39196E+00  3648   0.229E+00    0.353E-01
DAV:   2    -0.331129756576E+04   -0.64089E-02   -0.87515E-02  4256   0.309E-01    0.351E-01
DAV:   3    -0.331129680736E+04    0.75840E-03   -0.34377E-03  4608   0.609E-02    0.299E-01
DAV:   4    -0.331129527968E+04    0.15277E-02   -0.32540E-03  4224   0.713E-02    0.123E-01
DAV:   5    -0.331129529555E+04   -0.15871E-04   -0.15218E-03  3936   0.431E-02    0.400E-02
DAV:   6    -0.331129528900E+04    0.65446E-05   -0.24336E-04  4320   0.200E-02    0.169E-02
DAV:   7    -0.331129529468E+04   -0.56766E-05   -0.61307E-05  4192   0.715E-03    0.106E-02
DAV:   8    -0.331129529328E+04    0.13990E-05   -0.42335E-06  4096   0.321E-03    0.659E-03
DAV:   9    -0.331129529341E+04   -0.13033E-06   -0.59284E-06  4064   0.263E-03
  10 F= -.33253533E+04 E0= -.33253533E+04  d E =-.361740E-01
 BRION: g(F)=  0.100E+00 g(S)=  0.000E+00 retain N=  3 mean eig= 2.03
 eig:   5.605  0.240  0.240
 bond charge predicted
       N       E                     dE             d eps       ncg     rms          rms(c)
DAV:   1    -0.331130869653E+04   -0.13403E-01   -0.15847E+00  3648   0.149E+00    0.239E-01
DAV:   2    -0.331131138509E+04   -0.26886E-02   -0.38483E-02  4160   0.211E-01    0.240E-01
DAV:   3    -0.331131105310E+04    0.33199E-03   -0.15829E-03  4864   0.405E-02    0.210E-01
DAV:   4    -0.331131009826E+04    0.95484E-03   -0.18413E-03  4224   0.553E-02    0.856E-02
DAV:   5    -0.331131007807E+04    0.20186E-04   -0.79426E-04  4000   0.321E-02    0.303E-02
DAV:   6    -0.331131008062E+04   -0.25512E-05   -0.12402E-04  4288   0.132E-02    0.141E-02
DAV:   7    -0.331131008348E+04   -0.28576E-05   -0.25278E-05  4192   0.498E-03    0.751E-03
DAV:   8    -0.331131008299E+04    0.49302E-06   -0.23788E-06  3616   0.229E-03
  11 F= -.33253682E+04 E0= -.33253682E+04  d E =-.149260E-01
 BRION: g(F)=  0.563E-01 g(S)=  0.000E+00 retain N=  3 mean eig= 2.75
 eig:   7.709  0.264  0.264
 bond charge predicted
       N       E                     dE             d eps       ncg     rms          rms(c)
DAV:   1    -0.331132574799E+04   -0.15665E-01   -0.20398E+00  3648   0.163E+00    0.246E-01
DAV:   2    -0.331132890642E+04   -0.31584E-02   -0.42015E-02  4256   0.210E-01    0.240E-01
DAV:   3    -0.331132854031E+04    0.36611E-03   -0.16633E-03  4448   0.440E-02    0.202E-01
DAV:   4    -0.331132797601E+04    0.56430E-03   -0.18259E-03  4000   0.544E-02    0.641E-02
DAV:   5    -0.331132803889E+04   -0.62882E-04   -0.61322E-04  3968   0.261E-02    0.291E-02
DAV:   6    -0.331132802245E+04    0.16443E-04   -0.10090E-04  4128   0.130E-02    0.137E-02
DAV:   7    -0.331132802682E+04   -0.43723E-05   -0.38139E-05  4160   0.575E-03    0.737E-03
DAV:   8    -0.331132802653E+04    0.29465E-06   -0.23153E-06  3584   0.217E-03
  12 F= -.33253861E+04 E0= -.33253861E+04  d E =-.179203E-01
 BRION: g(F)=  0.395E-01 g(S)=  0.000E+00 retain N=  3 mean eig= 1.73
 eig:   4.757  0.124  0.323
 bond charge predicted
       N       E                     dE             d eps       ncg     rms          rms(c)
DAV:   1    -0.331133422804E+04   -0.62012E-02   -0.93328E-01  3744   0.114E+00    0.175E-01
DAV:   2    -0.331133570185E+04   -0.14738E-02   -0.20924E-02  4256   0.154E-01    0.175E-01
DAV:   3    -0.331133551716E+04    0.18469E-03   -0.78859E-04  4576   0.293E-02    0.153E-01
DAV:   4    -0.331133504912E+04    0.46804E-03   -0.10184E-03  4288   0.410E-02    0.605E-02
DAV:   5    -0.331133504869E+04    0.42957E-06   -0.39437E-04  4000   0.229E-02    0.231E-02
DAV:   6    -0.331133504945E+04   -0.75699E-06   -0.65843E-05  4160   0.971E-03    0.103E-02
DAV:   7    -0.331133505103E+04   -0.15791E-05   -0.15245E-05  4192   0.379E-03    0.552E-03
DAV:   8    -0.331133505073E+04    0.30443E-06   -0.12078E-06  2848   0.175E-03
  13 F= -.33253931E+04 E0= -.33253931E+04  d E =-.701795E-02
 BRION: g(F)=  0.401E-01 g(S)=  0.000E+00 retain N=  3 mean eig= 1.53
 eig:   4.066  0.267  0.267
 bond charge predicted
       N       E                     dE             d eps       ncg     rms          rms(c)
DAV:   1    -0.331134103795E+04   -0.59869E-02   -0.83822E-01  3712   0.107E+00    0.163E-01
DAV:   2    -0.331134239865E+04   -0.13607E-02   -0.18797E-02  4160   0.145E-01    0.165E-01
DAV:   3    -0.331134226389E+04    0.13475E-03   -0.73289E-04  4864   0.274E-02    0.147E-01
DAV:   4    -0.331134183733E+04    0.42656E-03   -0.85738E-04  4224   0.380E-02    0.603E-02
DAV:   5    -0.331134183669E+04    0.64354E-06   -0.39569E-04  4064   0.231E-02    0.215E-02
DAV:   6    -0.331134183791E+04   -0.12243E-05   -0.67356E-05  4192   0.955E-03    0.108E-02
DAV:   7    -0.331134183919E+04   -0.12764E-05   -0.14578E-05  4224   0.410E-03    0.576E-03
DAV:   8    -0.331134183910E+04    0.88010E-07   -0.27610E-06  3648   0.212E-03
  14 F= -.33254001E+04 E0= -.33254001E+04  d E =-.693097E-02
 BRION: g(F)=  0.327E-01 g(S)=  0.000E+00 retain N=  3 mean eig= 1.12
 eig:   2.811  0.274  0.274
 bond charge predicted
       N       E                     dE             d eps       ncg     rms          rms(c)
DAV:   1    -0.331134800465E+04   -0.61655E-02   -0.61490E-01  3776   0.911E-01    0.136E-01
DAV:   2    -0.331134894046E+04   -0.93582E-03   -0.13032E-02  4224   0.120E-01    0.136E-01
DAV:   3    -0.331134883254E+04    0.10792E-03   -0.52945E-04  4544   0.240E-02    0.116E-01
DAV:   4    -0.331134861332E+04    0.21923E-03   -0.46672E-04  4224   0.284E-02    0.498E-02
DAV:   5    -0.331134861906E+04   -0.57355E-05   -0.23668E-04  4032   0.173E-02    0.180E-02
DAV:   6    -0.331134861759E+04    0.14607E-05   -0.42339E-05  4128   0.778E-03    0.846E-03
DAV:   7    -0.331134861927E+04   -0.16784E-05   -0.10001E-05  4224   0.303E-03    0.399E-03
DAV:   8    -0.331134861921E+04    0.58149E-07   -0.46215E-07  2432   0.118E-03
  15 F= -.33254069E+04 E0= -.33254069E+04  d E =-.680684E-02
 BRION: g(F)=  0.186E-01 g(S)=  0.000E+00 retain N=  3 mean eig= 2.61
 eig:   7.318  0.250  0.250
 bond charge predicted
       N       E                     dE             d eps       ncg     rms          rms(c)
DAV:   1    -0.331135194333E+04   -0.33241E-02   -0.35300E-01  3744   0.693E-01    0.106E-01
DAV:   2    -0.331135248586E+04   -0.54253E-03   -0.76649E-03  4256   0.933E-02    0.107E-01
DAV:   3    -0.331135242884E+04    0.57027E-04   -0.29048E-04  4640   0.175E-02    0.959E-02
DAV:   4    -0.331135224537E+04    0.18347E-03   -0.39806E-04  4320   0.261E-02    0.387E-02
DAV:   5    -0.331135224639E+04   -0.10244E-05   -0.16676E-04  3936   0.151E-02    0.152E-02
DAV:   6    -0.331135224693E+04   -0.53702E-06   -0.27386E-05  4096   0.609E-03    0.780E-03
DAV:   7    -0.331135224755E+04   -0.62137E-06   -0.67175E-06  4160   0.278E-03
  16 F= -.33254105E+04 E0= -.33254105E+04  d E =-.365307E-02
 BRION: g(F)=  0.148E-01 g(S)=  0.000E+00 retain N=  3 mean eig= 2.05
 eig:   5.637  0.250  0.250
 bond charge predicted
       N       E                     dE             d eps       ncg     rms          rms(c)
DAV:   1    -0.331135688346E+04   -0.46365E-02   -0.48137E-01  3808   0.793E-01    0.117E-01
DAV:   2    -0.331135753265E+04   -0.64920E-03   -0.89930E-03  4192   0.984E-02    0.114E-01
DAV:   3    -0.331135742998E+04    0.10268E-03   -0.32246E-04  4416   0.205E-02    0.941E-02
DAV:   4    -0.331135731472E+04    0.11526E-03   -0.47788E-04  4000   0.273E-02    0.276E-02
DAV:   5    -0.331135732671E+04   -0.11994E-04   -0.12615E-04  3936   0.122E-02    0.132E-02
DAV:   6    -0.331135732589E+04    0.81793E-06   -0.18542E-05  4128   0.586E-03    0.575E-03
DAV:   7    -0.331135732652E+04   -0.62358E-06   -0.65730E-06  4064   0.252E-03
  17 F= -.33254157E+04 E0= -.33254157E+04  d E =-.518085E-02
 BRION: g(F)=  0.933E-02 g(S)=  0.000E+00 retain N=  3 mean eig= 2.05
 eig:   5.678  0.171  0.291
 bond charge predicted
       N       E                     dE             d eps       ncg     rms          rms(c)
DAV:   1    -0.331136018182E+04   -0.28559E-02   -0.33043E-01  3840   0.660E-01    0.971E-02
DAV:   2    -0.331136062901E+04   -0.44719E-03   -0.61691E-03  4384   0.826E-02    0.964E-02
DAV:   3    -0.331136056340E+04    0.65608E-04   -0.19580E-04  4480   0.158E-02    0.824E-02
DAV:   4    -0.331136046308E+04    0.10032E-03   -0.36499E-04  4000   0.245E-02    0.253E-02
DAV:   5    -0.331136047257E+04   -0.94925E-05   -0.10092E-04  3968   0.111E-02    0.121E-02
DAV:   6    -0.331136047195E+04    0.61525E-06   -0.14384E-05  4096   0.495E-03    0.554E-03
DAV:   7    -0.331136047253E+04   -0.57823E-06   -0.53879E-06  3968   0.228E-03
  18 F= -.33254189E+04 E0= -.33254189E+04  d E =-.322214E-02
 BRION: g(F)=  0.101E-01 g(S)=  0.000E+00 retain N=  3 mean eig= 1.83
 eig:   4.972  0.258  0.258
 bond charge predicted
       N       E                     dE             d eps       ncg     rms          rms(c)
DAV:   1    -0.331136315101E+04   -0.26791E-02   -0.32670E-01  3776   0.658E-01    0.952E-02
DAV:   2    -0.331136360612E+04   -0.45510E-03   -0.62482E-03  4352   0.829E-02    0.947E-02
DAV:   3    -0.331136355052E+04    0.55602E-04   -0.22018E-04  4544   0.162E-02    0.816E-02
DAV:   4    -0.331136345264E+04    0.97873E-04   -0.30228E-04  4096   0.227E-02    0.284E-02
DAV:   5    -0.331136346129E+04   -0.86433E-05   -0.10278E-04  4032   0.114E-02    0.127E-02
DAV:   6    -0.331136346049E+04    0.80082E-06   -0.15972E-05  4064   0.490E-03    0.614E-03
DAV:   7    -0.331136346107E+04   -0.58045E-06   -0.54380E-06  4000   0.231E-03
  19 F= -.33254220E+04 E0= -.33254220E+04  d E =-.303249E-02
 BRION: g(F)=  0.982E-02 g(S)=  0.000E+00 retain N=  3 mean eig= 0.96
 eig:   2.392  0.172  0.325
 bond charge predicted
       N       E                     dE             d eps       ncg     rms          rms(c)
DAV:   1    -0.331136533663E+04   -0.18761E-02   -0.17875E-01  3840   0.491E-01    0.743E-02
DAV:   2    -0.331136559518E+04   -0.25854E-03   -0.36855E-03  4192   0.644E-02    0.746E-02
DAV:   3    -0.331136556136E+04    0.33812E-04   -0.13435E-04  4768   0.121E-02    0.653E-02
DAV:   4    -0.331136548423E+04    0.77133E-04   -0.16784E-04  4192   0.169E-02    0.267E-02
DAV:   5    -0.331136548568E+04   -0.14465E-05   -0.73974E-05  4064   0.101E-02    0.945E-03
DAV:   6    -0.331136548633E+04   -0.65414E-06   -0.12231E-05  4000   0.396E-03    0.463E-03
DAV:   7    -0.331136548662E+04   -0.29191E-06   -0.18602E-06  3520   0.170E-03
  20 F= -.33254241E+04 E0= -.33254241E+04  d E =-.209407E-02
 BRION: g(F)=  0.724E-02 g(S)=  0.000E+00 retain N=  3 mean eig= 2.51
 eig:   7.048  0.215  0.278
 bond charge predicted
       N       E                     dE             d eps       ncg     rms          rms(c)
DAV:   1    -0.331136724728E+04   -0.17609E-02   -0.18945E-01  3808   0.504E-01    0.742E-02
DAV:   2    -0.331136750740E+04   -0.26012E-03   -0.36645E-03  4288   0.640E-02    0.739E-02
DAV:   3    -0.331136747150E+04    0.35900E-04   -0.13787E-04  4576   0.127E-02    0.636E-02
DAV:   4    -0.331136740717E+04    0.64325E-04   -0.19422E-04  4192   0.182E-02    0.226E-02
DAV:   5    -0.331136741184E+04   -0.46626E-05   -0.61653E-05  3936   0.926E-03    0.982E-03
DAV:   6    -0.331136741203E+04   -0.19564E-06   -0.93821E-06  4032   0.371E-03
  21 F= -.33254261E+04 E0= -.33254261E+04  d E =-.199048E-02
 BRION: g(F)=  0.668E-02 g(S)=  0.000E+00 retain N=  3 mean eig= 1.65
 eig:   4.467  0.248  0.248
 bond charge predicted
       N       E                     dE             d eps       ncg     rms          rms(c)
DAV:   1    -0.331136915352E+04   -0.17417E-02   -0.14856E-01  3776   0.443E-01    0.652E-02
DAV:   2    -0.331136935814E+04   -0.20462E-03   -0.28341E-03  4320   0.560E-02    0.654E-02
DAV:   3    -0.331136933362E+04    0.24519E-04   -0.96710E-05  4480   0.106E-02    0.578E-02
DAV:   4    -0.331136928035E+04    0.53268E-04   -0.17898E-04  4064   0.178E-02    0.183E-02
DAV:   5    -0.331136928472E+04   -0.43687E-05   -0.54152E-05  3936   0.868E-03    0.909E-03
DAV:   6    -0.331136928453E+04    0.19150E-06   -0.77722E-06  4000   0.328E-03
  22 F= -.33254280E+04 E0= -.33254280E+04  d E =-.191064E-02
 BRION: g(F)=  0.430E-02 g(S)=  0.000E+00 retain N=  3 mean eig= 2.39
 eig:   6.710  0.235  0.235
 bond charge predicted
       N       E                     dE             d eps       ncg     rms          rms(c)
DAV:   1    -0.331137090081E+04   -0.16161E-02   -0.16652E-01  3776   0.466E-01    0.680E-02
DAV:   2    -0.331137110434E+04   -0.20353E-03   -0.28799E-03  4288   0.562E-02    0.663E-02
DAV:   3    -0.331137106704E+04    0.37300E-04   -0.94962E-05  4384   0.118E-02    0.539E-02
DAV:   4    -0.331137103480E+04    0.32245E-04   -0.16007E-04  3968   0.156E-02    0.158E-02
DAV:   5    -0.331137103858E+04   -0.37834E-05   -0.39583E-05  3936   0.682E-03    0.775E-03
DAV:   6    -0.331137103866E+04   -0.82771E-07   -0.58283E-06  4032   0.333E-03
  23 F= -.33254298E+04 E0= -.33254298E+04  d E =-.181559E-02
 BRION: g(F)=  0.413E-02 g(S)=  0.000E+00 retain N=  3 mean eig= 1.90
 eig:   5.204  0.164  0.325
 bond charge predicted
       N       E                     dE             d eps       ncg     rms          rms(c)
DAV:   1    -0.331137252407E+04   -0.14855E-02   -0.16815E-01  3776   0.468E-01    0.680E-02
DAV:   2    -0.331137273395E+04   -0.20988E-03   -0.29339E-03  4256   0.566E-02    0.670E-02
DAV:   3    -0.331137269817E+04    0.35782E-04   -0.88946E-05  4448   0.112E-02    0.561E-02
DAV:   4    -0.331137265910E+04    0.39073E-04   -0.18369E-04  4032   0.170E-02    0.157E-02
DAV:   5    -0.331137266308E+04   -0.39870E-05   -0.44540E-05  3904   0.752E-03    0.811E-03
DAV:   6    -0.331137266324E+04   -0.15483E-06   -0.60823E-06  4032   0.324E-03
  24 F= -.33254315E+04 E0= -.33254315E+04  d E =-.169563E-02
 BRION: g(F)=  0.408E-02 g(S)=  0.000E+00 retain N=  3 mean eig= 1.04
 eig:   2.628  0.207  0.281
 bond charge predicted
       N       E                     dE             d eps       ncg     rms          rms(c)
DAV:   1    -0.331137357106E+04   -0.90797E-03   -0.76400E-02  3776   0.322E-01    0.463E-02
DAV:   2    -0.331137368103E+04   -0.10997E-03   -0.15099E-03  4352   0.411E-02    0.468E-02
DAV:   3    -0.331137367068E+04    0.10348E-04   -0.53505E-05  4512   0.776E-03    0.419E-02
DAV:   4    -0.331137364314E+04    0.27540E-04   -0.62629E-05  3840   0.112E-02    0.180E-02
DAV:   5    -0.331137364460E+04   -0.14553E-05   -0.35382E-05  3904   0.696E-03    0.747E-03
DAV:   6    -0.331137364442E+04    0.17590E-06   -0.57735E-06  3872   0.267E-03
  25 F= -.33254325E+04 E0= -.33254325E+04  d E =-.100492E-02
 BRION: g(F)=  0.363E-02 g(S)=  0.000E+00 retain N=  3 mean eig= 2.31
 eig:   6.436  0.229  0.277
 bond charge predicted
       N       E                     dE             d eps       ncg     rms          rms(c)
DAV:   1    -0.331137500525E+04   -0.13607E-02   -0.16759E-01  3776   0.466E-01    0.679E-02
DAV:   2    -0.331137520648E+04   -0.20123E-03   -0.28525E-03  4320   0.559E-02    0.666E-02
DAV:   3    -0.331137516912E+04    0.37366E-04   -0.87455E-05  4416   0.113E-02    0.550E-02
DAV:   4    -0.331137513437E+04    0.34745E-04   -0.17575E-04  4000   0.165E-02    0.156E-02
DAV:   5    -0.331137513799E+04   -0.36127E-05   -0.42225E-05  3904   0.729E-03    0.802E-03
DAV:   6    -0.331137513821E+04   -0.22782E-06   -0.60262E-06  4064   0.326E-03
  26 F= -.33254340E+04 E0= -.33254340E+04  d E =-.155287E-02
 BRION: g(F)=  0.345E-02 g(S)=  0.000E+00 retain N=  3 mean eig= 1.52
 eig:   4.095  0.129  0.326
 bond charge predicted
       N       E                     dE             d eps       ncg     rms          rms(c)
DAV:   1    -0.331137573996E+04   -0.60197E-03   -0.43268E-02  3776   0.245E-01    0.374E-02
DAV:   2    -0.331137580557E+04   -0.65613E-04   -0.93856E-04  4256   0.327E-02    0.379E-02
DAV:   3    -0.331137579918E+04    0.63961E-05   -0.35897E-05  4768   0.618E-03    0.344E-02
DAV:   4    -0.331137577589E+04    0.23285E-04   -0.50037E-05  3904   0.979E-03    0.142E-02
DAV:   5    -0.331137577610E+04   -0.21083E-06   -0.23746E-05  4000   0.590E-03    0.585E-03
DAV:   6    -0.331137577618E+04   -0.74215E-07   -0.37705E-06  3008   0.216E-03
  27 F= -.33254347E+04 E0= -.33254347E+04  d E =-.670033E-03
 BRION: g(F)=  0.260E-02 g(S)=  0.000E+00 retain N=  3 mean eig= 2.36
 eig:   6.576  0.245  0.245
 bond charge predicted
       N       E                     dE             d eps       ncg     rms          rms(c)
DAV:   1    -0.331137684065E+04   -0.10645E-02   -0.10919E-01  3712   0.375E-01    0.537E-02
DAV:   2    -0.331137697675E+04   -0.13610E-03   -0.18697E-03  4352   0.449E-02    0.533E-02
DAV:   3    -0.331137695656E+04    0.20195E-04   -0.53312E-05  4416   0.860E-03    0.455E-02
DAV:   4    -0.331137693359E+04    0.22968E-04   -0.12680E-04  4096   0.142E-02    0.119E-02
DAV:   5    -0.331137693597E+04   -0.23788E-05   -0.28962E-05  3968   0.612E-03    0.679E-03
DAV:   6    -0.331137693585E+04    0.12195E-06   -0.38584E-06  3648   0.245E-03
  28 F= -.33254359E+04 E0= -.33254359E+04  d E =-.120656E-02
 BRION: g(F)=  0.230E-02 g(S)=  0.000E+00 retain N=  3 mean eig= 1.86
 eig:   5.093  0.129  0.364
 bond charge predicted
       N       E                     dE             d eps       ncg     rms          rms(c)
DAV:   1    -0.331137789471E+04   -0.95874E-03   -0.99808E-02  3744   0.360E-01    0.511E-02
DAV:   2    -0.331137801527E+04   -0.12056E-03   -0.16760E-03  4384   0.427E-02    0.502E-02
DAV:   3    -0.331137799570E+04    0.19572E-04   -0.52139E-05  4352   0.879E-03    0.416E-02
DAV:   4    -0.331137797854E+04    0.17154E-04   -0.96954E-05  3936   0.123E-02    0.116E-02
DAV:   5    -0.331137798076E+04   -0.22168E-05   -0.23115E-05  3936   0.533E-03    0.616E-03
DAV:   6    -0.331137798067E+04    0.90280E-07   -0.33477E-06  3520   0.236E-03
  29 F= -.33254370E+04 E0= -.33254370E+04  d E =-.108591E-02
 BRION: g(F)=  0.224E-02 g(S)=  0.000E+00 retain N=  3 mean eig= 1.22
 eig:   3.151  0.247  0.247
 bond charge predicted
       N       E                     dE             d eps       ncg     rms          rms(c)
DAV:   1    -0.331137850554E+04   -0.52478E-03   -0.40973E-02  3744   0.234E-01    0.346E-02
DAV:   2    -0.331137856261E+04   -0.57067E-04   -0.80085E-04  4224   0.299E-02    0.349E-02
DAV:   3    -0.331137855586E+04    0.67477E-05   -0.27409E-05  4768   0.555E-03    0.312E-02
DAV:   4    -0.331137853951E+04    0.16350E-04   -0.44759E-05  3936   0.906E-03    0.115E-02
DAV:   5    -0.331137854049E+04   -0.97876E-06   -0.16578E-05  3936   0.500E-03    0.491E-03
DAV:   6    -0.331137854059E+04   -0.10262E-06   -0.25013E-06  2912   0.175E-03
  30 F= -.33254376E+04 E0= -.33254376E+04  d E =-.593529E-03
 BRION: g(F)=  0.214E-02 g(S)=  0.000E+00 retain N=  3 mean eig= 1.90
 eig:   5.214  0.180  0.310
 bond charge predicted
       N       E                     dE             d eps       ncg     rms          rms(c)
DAV:   1    -0.331137964547E+04   -0.11050E-02   -0.15953E-01  3712   0.453E-01    0.638E-02
DAV:   2    -0.331137983579E+04   -0.19031E-03   -0.26255E-03  4384   0.530E-02    0.628E-02
DAV:   3    -0.331137980553E+04    0.30256E-04   -0.76000E-05  4320   0.108E-02    0.522E-02
DAV:   4    -0.331137978217E+04    0.23364E-04   -0.16478E-04  4224   0.157E-02    0.135E-02
DAV:   5    -0.331137978488E+04   -0.27157E-05   -0.36068E-05  3904   0.674E-03    0.775E-03
DAV:   6    -0.331137978475E+04    0.13859E-06   -0.51686E-06  3904   0.285E-03
  31 F= -.33254389E+04 E0= -.33254389E+04  d E =-.130210E-02
 BRION: g(F)=  0.203E-02 g(S)=  0.000E+00 retain N=  3 mean eig= 1.60
 eig:   4.355  0.095  0.356
 bond charge predicted
       N       E                     dE             d eps       ncg     rms          rms(c)
DAV:   1    -0.331137998234E+04   -0.19745E-03   -0.16494E-02  3712   0.153E-01    0.244E-02
DAV:   2    -0.331138001036E+04   -0.28021E-04   -0.40451E-04  4224   0.218E-02    0.252E-02
DAV:   3    -0.331138000906E+04    0.12956E-05   -0.15166E-05  4800   0.390E-03    0.239E-02
DAV:   4    -0.331137999729E+04    0.11776E-04   -0.15116E-05  3904   0.559E-03    0.133E-02
DAV:   5    -0.331137999530E+04    0.19916E-05   -0.17938E-05  3840   0.497E-03    0.512E-03
DAV:   6    -0.331137999535E+04   -0.48894E-07   -0.29730E-06  2816   0.193E-03
  32 F= -.33254391E+04 E0= -.33254391E+04  d E =-.213724E-03
 BRION: g(F)=  0.182E-02 g(S)=  0.000E+00 retain N=  3 mean eig= 2.22
 eig:   6.168  0.252  0.252
 bond charge predicted
       N       E                     dE             d eps       ncg     rms          rms(c)
DAV:   1    -0.331138077337E+04   -0.77808E-03   -0.81815E-02  3712   0.326E-01    0.464E-02
DAV:   2    -0.331138087310E+04   -0.99729E-04   -0.13878E-03  4352   0.387E-02    0.458E-02
DAV:   3    -0.331138085682E+04    0.16279E-04   -0.41362E-05  4384   0.780E-03    0.383E-02
DAV:   4    -0.331138084177E+04    0.15052E-04   -0.84831E-05  3968   0.114E-02    0.103E-02
DAV:   5    -0.331138084348E+04   -0.17131E-05   -0.19451E-05  3936   0.486E-03    0.559E-03
DAV:   6    -0.331138084343E+04    0.51456E-07   -0.25194E-06  3040   0.205E-03
  33 F= -.33254400E+04 E0= -.33254400E+04  d E =-.891682E-03
 BRION: g(F)=  0.155E-02 g(S)=  0.000E+00 retain N=  3 mean eig= 1.73
 eig:   4.705  0.086  0.407
 bond charge predicted
       N       E                     dE             d eps       ncg     rms          rms(c)
DAV:   1    -0.331138149268E+04   -0.64920E-03   -0.64041E-02  3712   0.288E-01    0.409E-02
DAV:   2    -0.331138157242E+04   -0.79741E-04   -0.10967E-03  4160   0.344E-02    0.407E-02
DAV:   3    -0.331138156089E+04    0.11537E-04   -0.31452E-05  4480   0.655E-03    0.351E-02
DAV:   4    -0.331138154725E+04    0.13637E-04   -0.76954E-05  3936   0.110E-02    0.916E-03
DAV:   5    -0.331138154862E+04   -0.13738E-05   -0.17336E-05  3936   0.484E-03    0.527E-03
DAV:   6    -0.331138154861E+04    0.17171E-07   -0.20190E-06  2624   0.175E-03
  34 F= -.33254407E+04 E0= -.33254407E+04  d E =-.742883E-03
 BRION: g(F)=  0.146E-02 g(S)=  0.000E+00 retain N=  3 mean eig= 1.46
 eig:   0.256  0.256  3.868
 bond charge predicted
       N       E                     dE             d eps       ncg     rms          rms(c)
DAV:   1    -0.331138193117E+04   -0.38255E-03   -0.26047E-02  3712   0.187E-01    0.264E-02
DAV:   2    -0.331138196703E+04   -0.35855E-04   -0.48835E-04  4448   0.232E-02    0.267E-02
DAV:   3    -0.331138196346E+04    0.35714E-05   -0.15345E-05  4448   0.427E-03    0.240E-02
DAV:   4    -0.331138195525E+04    0.82063E-05   -0.23369E-05  3904   0.672E-03    0.934E-03
DAV:   5    -0.331138195607E+04   -0.82154E-06   -0.10291E-05  3808   0.373E-03    0.425E-03
DAV:   6    -0.331138195598E+04    0.95926E-07   -0.14456E-06  2464   0.139E-03
  35 F= -.33254412E+04 E0= -.33254412E+04  d E =-.421873E-03
 BRION: g(F)=  0.142E-02 g(S)=  0.000E+00 retain N=  3 mean eig= 1.64
 eig:   4.412  0.229  0.270
 bond charge predicted
       N       E                     dE             d eps       ncg     rms          rms(c)
DAV:   1    -0.331138281578E+04   -0.85971E-03   -0.12792E-01  3712   0.404E-01    0.576E-02
DAV:   2    -0.331138296546E+04   -0.14969E-03   -0.20913E-03  4096   0.472E-02    0.567E-02
DAV:   3    -0.331138293952E+04    0.25943E-04   -0.61677E-05  4480   0.969E-03    0.470E-02
DAV:   4    -0.331138292068E+04    0.18843E-04   -0.13995E-04  4064   0.143E-02    0.115E-02
DAV:   5    -0.331138292238E+04   -0.17041E-05   -0.29889E-05  3936   0.613E-03    0.683E-03
DAV:   6    -0.331138292243E+04   -0.44529E-07   -0.38152E-06  3552   0.249E-03
  36 F= -.33254422E+04 E0= -.33254422E+04  d E =-.101861E-02
 BRION: g(F)=  0.131E-02 g(S)=  0.000E+00 retain N=  3 mean eig= 1.80
 eig:   4.941  0.062  0.391
 bond charge predicted
       N       E                     dE             d eps       ncg     rms          rms(c)
DAV:   1    -0.331138302929E+04   -0.10691E-03   -0.95371E-03  3648   0.117E-01    0.183E-02
DAV:   2    -0.331138304574E+04   -0.16449E-04   -0.23410E-04  4256   0.166E-02    0.189E-02
DAV:   3    -0.331138304508E+04    0.66840E-06   -0.85267E-06  4320   0.297E-03
  37 F= -.33254423E+04 E0= -.33254423E+04  d E =-.132224E-03
 BRION: g(F)=  0.129E-02 g(S)=  0.000E+00 retain N=  3 mean eig= 2.02
 eig:   5.507  0.277  0.277
 bond charge predicted
       N       E                     dE             d eps       ncg     rms          rms(c)
DAV:   1    -0.331138362277E+04   -0.57703E-03   -0.56434E-02  3712   0.269E-01    0.414E-02
DAV:   2    -0.331138368740E+04   -0.64626E-04   -0.92983E-04  4128   0.317E-02    0.398E-02
DAV:   3    -0.331138367296E+04    0.14439E-04   -0.30017E-05  4256   0.722E-03    0.305E-02
DAV:   4    -0.331138366865E+04    0.43132E-05   -0.59955E-05  3968   0.921E-03    0.724E-03
DAV:   5    -0.331138366902E+04   -0.37573E-06   -0.13807E-05  3872   0.411E-03    0.438E-03
DAV:   6    -0.331138366900E+04    0.18568E-07   -0.20058E-06  2752   0.178E-03
  38 F= -.33254430E+04 E0= -.33254430E+04  d E =-.653602E-03
 BRION: g(F)=  0.109E-02 g(S)=  0.000E+00 retain N=  3 mean eig= 1.20
 eig:   3.102  0.043  0.470
 bond charge predicted
       N       E                     dE             d eps       ncg     rms          rms(c)
DAV:   1    -0.331138422722E+04   -0.55820E-03   -0.61233E-02  3712   0.281E-01    0.395E-02
DAV:   2    -0.331138430046E+04   -0.73234E-04   -0.10159E-03  4256   0.330E-02    0.390E-02
DAV:   3    -0.331138428909E+04    0.11370E-04   -0.30809E-05  4448   0.664E-03    0.329E-02
DAV:   4    -0.331138427929E+04    0.98018E-05   -0.65284E-05  3904   0.100E-02    0.851E-03
DAV:   5    -0.331138428045E+04   -0.11632E-05   -0.14427E-05  3936   0.432E-03    0.486E-03
DAV:   6    -0.331138428037E+04    0.85041E-07   -0.17564E-06  2400   0.165E-03
  39 F= -.33254436E+04 E0= -.33254436E+04  d E =-.642833E-03
 BRION: g(F)=  0.112E-02 g(S)=  0.000E+00 retain N=  3 mean eig= 1.32
 eig:   3.458  0.251  0.251
 bond charge predicted
       N       E                     dE             d eps       ncg     rms          rms(c)
DAV:   1    -0.331138462549E+04   -0.34504E-03   -0.30150E-02  3712   0.199E-01    0.287E-02
DAV:   2    -0.331138466575E+04   -0.40265E-04   -0.55614E-04  4256   0.246E-02    0.289E-02
DAV:   3    -0.331138466087E+04    0.48849E-05   -0.16315E-05  4576   0.443E-03    0.259E-02
DAV:   4    -0.331138465126E+04    0.96113E-05   -0.36485E-05  3936   0.794E-03    0.802E-03
DAV:   5    -0.331138465212E+04   -0.86398E-06   -0.10029E-05  3840   0.381E-03    0.402E-03
DAV:   6    -0.331138465213E+04   -0.13853E-07   -0.12006E-06  2400   0.124E-03
  40 F= -.33254440E+04 E0= -.33254440E+04  d E =-.397843E-03
 BRION: g(F)=  0.123E-02 g(S)=  0.000E+00 retain N=  3 mean eig= 1.81
 eig:   4.959  0.237  0.237
 bond charge predicted
       N       E                     dE             d eps       ncg     rms          rms(c)
DAV:   1    -0.331138558417E+04   -0.93205E-03   -0.21498E-01  3712   0.524E-01    0.736E-02
DAV:   2    -0.331138583172E+04   -0.24754E-03   -0.34311E-03  4128   0.604E-02    0.723E-02
DAV:   3    -0.331138579059E+04    0.41132E-04   -0.10033E-04  4448   0.125E-02    0.598E-02
DAV:   4    -0.331138576455E+04    0.26031E-04   -0.22799E-04  4160   0.183E-02    0.141E-02
DAV:   5    -0.331138576687E+04   -0.23203E-05   -0.47871E-05  3904   0.787E-03    0.864E-03
DAV:   6    -0.331138576666E+04    0.21630E-06   -0.66008E-06  3808   0.304E-03
  41 F= -.33254452E+04 E0= -.33254452E+04  d E =-.117325E-02
 BRION: g(F)=  0.111E-02 g(S)=  0.000E+00 retain N=  3 mean eig= 2.03
 eig:   5.645  0.031  0.409
 bond charge predicted
       N       E                     dE             d eps       ncg     rms          rms(c)
DAV:   1    -0.331138516818E+04    0.59870E-03   -0.61246E-02  3712   0.283E-01    0.403E-02
DAV:   2    -0.331138524285E+04   -0.74674E-04   -0.10423E-03  4384   0.336E-02    0.401E-02
DAV:   3    -0.331138523130E+04    0.11552E-04   -0.29900E-05  4480   0.640E-03    0.346E-02
DAV:   4    -0.331138521545E+04    0.15848E-04   -0.68207E-05  3904   0.105E-02    0.934E-03
DAV:   5    -0.331138521665E+04   -0.11984E-05   -0.16430E-05  3840   0.464E-03    0.503E-03
DAV:   6    -0.331138521652E+04    0.13190E-06   -0.18902E-06  2560   0.164E-03
  42 F= -.33254446E+04 E0= -.33254446E+04  d E =0.584845E-03
 BRION: g(F)=  0.120E-02 g(S)=  0.000E+00 retain N=  3 mean eig= 1.91
 eig:   5.142  0.296  0.296
 bond charge predicted
       N       E                     dE             d eps       ncg     rms          rms(c)
DAV:   1    -0.331138596681E+04   -0.75016E-03   -0.12447E-01  3712   0.399E-01    0.563E-02
DAV:   2    -0.331138610880E+04   -0.14199E-03   -0.19874E-03  4160   0.460E-02    0.553E-02
DAV:   3    -0.331138608350E+04    0.25303E-04   -0.57477E-05  4416   0.946E-03    0.456E-02
DAV:   4    -0.331138606617E+04    0.17329E-04   -0.13474E-04  4128   0.140E-02    0.107E-02
DAV:   5    -0.331138606741E+04   -0.12360E-05   -0.28278E-05  3872   0.602E-03    0.652E-03
DAV:   6    -0.331138606740E+04    0.33178E-08   -0.35535E-06  3424   0.232E-03
  43 F= -.33254455E+04 E0= -.33254455E+04  d E =-.900214E-03
 BRION: g(F)=  0.862E-03 g(S)=  0.000E+00 retain N=  3 mean eig= 1.28
 eig:   3.303  0.003  0.529
 bond charge predicted
       N       E                     dE             d eps       ncg     rms          rms(c)
DAV:   1    -0.331138649014E+04   -0.42274E-03   -0.43113E-02  3712   0.235E-01    0.331E-02
DAV:   2    -0.331138654254E+04   -0.52401E-04   -0.72128E-04  4128   0.278E-02    0.329E-02
DAV:   3    -0.331138653478E+04    0.77620E-05   -0.20051E-05  4352   0.529E-03    0.283E-02
DAV:   4    -0.331138652747E+04    0.73135E-05   -0.50658E-05  3904   0.885E-03    0.708E-03
DAV:   5    -0.331138652828E+04   -0.81025E-06   -0.10959E-05  3936   0.382E-03    0.422E-03
DAV:   6    -0.331138652822E+04    0.58673E-07   -0.11995E-06  2304   0.134E-03
  44 F= -.33254460E+04 E0= -.33254460E+04  d E =-.487350E-03
 BRION: g(F)=  0.853E-03 g(S)=  0.000E+00 retain N=  3 mean eig= 2.30
 eig:   6.302  0.296  0.296
 bond charge predicted
       N       E                     dE             d eps       ncg     rms          rms(c)
DAV:   1    -0.331138688888E+04   -0.36060E-03   -0.33495E-02  3712   0.208E-01    0.293E-02
DAV:   2    -0.331138693037E+04   -0.41489E-04   -0.57131E-04  4352   0.248E-02    0.291E-02
DAV:   3    -0.331138692459E+04    0.57733E-05   -0.16512E-05  4384   0.471E-03    0.252E-02
DAV:   4    -0.331138691809E+04    0.65056E-05   -0.34549E-05  3744   0.745E-03    0.722E-03
DAV:   5    -0.331138691903E+04   -0.94203E-06   -0.86381E-06  3840   0.332E-03
  45 F= -.33254464E+04 E0= -.33254464E+04  d E =-.408560E-03
 BRION: g(F)=  0.895E-03 g(S)=  0.000E+00 retain N=  3 mean eig= 1.14
 eig:   2.962  0.094  0.350
 bond charge predicted
       N       E                     dE             d eps       ncg     rms          rms(c)
DAV:   1    -0.331138760897E+04   -0.69089E-03   -0.13839E-01  3712   0.420E-01    0.601E-02
DAV:   2    -0.331138776996E+04   -0.16099E-03   -0.22272E-03  4128   0.486E-02    0.591E-02
DAV:   3    -0.331138774243E+04    0.27527E-04   -0.61985E-05  4416   0.984E-03    0.489E-02
DAV:   4    -0.331138772657E+04    0.15865E-04   -0.15045E-04  4160   0.148E-02    0.113E-02
DAV:   5    -0.331138772795E+04   -0.13810E-05   -0.31150E-05  3872   0.633E-03    0.690E-03
DAV:   6    -0.331138772790E+04    0.48371E-07   -0.41254E-06  3456   0.245E-03
  46 F= -.33254473E+04 E0= -.33254473E+04  d E =-.858259E-03
 BRION: g(F)=  0.819E-03 g(S)=  0.000E+00 retain N=  2 mean eig= 0.51
 eig:   0.104  0.919
 bond charge predicted
       N       E                     dE             d eps       ncg     rms          rms(c)
DAV:   1    -0.331138759385E+04    0.13410E-03   -0.95363E-03  3648   0.118E-01    0.189E-02
DAV:   2    -0.331138761064E+04   -0.16794E-04   -0.24159E-04  4224   0.169E-02    0.195E-02
DAV:   3    -0.331138760993E+04    0.70594E-06   -0.87772E-06  4512   0.299E-03
  47 F= -.33254471E+04 E0= -.33254471E+04  d E =0.118065E-03
 BRION: g(F)=  0.123E-02 g(S)=  0.000E+00 retain N=  3 mean eig= 0.82
 eig:   2.007  0.224  0.224
 bond charge predicted
       N       E                     dE             d eps       ncg     rms          rms(c)
DAV:   1    -0.331138797531E+04   -0.36467E-03   -0.31192E-02  3712   0.203E-01    0.244E-02
DAV:   2    -0.331138802417E+04   -0.48862E-04   -0.59847E-04  4352   0.254E-02    0.252E-02
DAV:   3    -0.331138802122E+04    0.29493E-05   -0.14932E-05  4448   0.413E-03    0.233E-02
DAV:   4    -0.331138801310E+04    0.81263E-05   -0.31744E-05  3840   0.751E-03    0.820E-03
DAV:   5    -0.331138801418E+04   -0.10803E-05   -0.10370E-05  3712   0.368E-03    0.429E-03
DAV:   6    -0.331138801402E+04    0.15710E-06   -0.12108E-06  2496   0.128E-03
  48 F= -.33254476E+04 E0= -.33254476E+04  d E =-.419661E-03
 BRION: g(F)=  0.729E-03 g(S)=  0.000E+00 retain N=  3 mean eig= 1.85
 eig:   4.962  0.226  0.354
 bond charge predicted
       N       E                     dE             d eps       ncg     rms          rms(c)
DAV:   1    -0.331138839068E+04   -0.37650E-03   -0.37092E-02  3712   0.218E-01    0.310E-02
DAV:   2    -0.331138843449E+04   -0.43810E-04   -0.60897E-04  4160   0.254E-02    0.305E-02
DAV:   3    -0.331138842727E+04    0.72183E-05   -0.17250E-05  4320   0.508E-03    0.255E-02
DAV:   4    -0.331138842230E+04    0.49645E-05   -0.40327E-05  3840   0.774E-03    0.619E-03
DAV:   5    -0.331138842287E+04   -0.57049E-06   -0.85069E-06  3840   0.331E-03
  49 F= -.33254480E+04 E0= -.33254480E+04  d E =-.430871E-03
 BRION: g(F)=  0.631E-03 g(S)=  0.000E+00 retain N=  2 mean eig= 0.02
 eig:   0.023  0.011
 bond charge predicted
       N       E                     dE             d eps       ncg     rms          rms(c)
DAV:   1    -0.331138876619E+04   -0.34388E-03   -0.46983E-02  3712   0.246E-01    0.354E-02
DAV:   2    -0.331138882500E+04   -0.58812E-04   -0.80206E-04  4192   0.293E-02    0.353E-02
DAV:   3    -0.331138881667E+04    0.83270E-05   -0.21839E-05  4512   0.538E-03    0.306E-02
DAV:   4    -0.331138880803E+04    0.86364E-05   -0.53409E-05  3872   0.914E-03    0.804E-03
DAV:   5    -0.331138880913E+04   -0.10966E-05   -0.12082E-05  3904   0.399E-03    0.442E-03
DAV:   6    -0.331138880906E+04    0.75670E-07   -0.13598E-06  2336   0.137E-03
  50 F= -.33254484E+04 E0= -.33254484E+04  d E =-.415543E-03
 BRION: g(F)=  0.104E-02 g(S)=  0.000E+00 retain N=  3 mean eig= 0.33
 eig:   0.571  0.216  0.216
 bond charge predicted
       N       E                     dE             d eps       ncg     rms          rms(c)
DAV:   1    -0.331138900411E+04   -0.19498E-03   -0.87914E-03  3712   0.109E-01    0.155E-02
DAV:   2    -0.331138901700E+04   -0.12887E-04   -0.17424E-04  4384   0.139E-02    0.158E-02
DAV:   3    -0.331138901606E+04    0.93743E-06   -0.54007E-06  3712   0.252E-03
  51 F= -.33254486E+04 E0= -.33254486E+04  d E =-.212999E-03
 BRION: g(F)=  0.636E-03 g(S)=  0.000E+00 retain N=  1 mean eig= 0.18
 eig:   0.184
 bond charge predicted
       N       E                     dE             d eps       ncg     rms          rms(c)
DAV:   1    -0.331138946697E+04   -0.44998E-03   -0.71052E-02  3712   0.301E-01    0.479E-02
DAV:   2    -0.331138954079E+04   -0.73812E-04   -0.11241E-03  4128   0.348E-02    0.459E-02
DAV:   3    -0.331138952008E+04    0.20709E-04   -0.40439E-05  4192   0.859E-03    0.335E-02
DAV:   4    -0.331138951685E+04    0.32275E-05   -0.68602E-05  3904   0.976E-03    0.816E-03
DAV:   5    -0.331138951718E+04   -0.33405E-06   -0.17299E-05  4000   0.453E-03    0.480E-03
DAV:   6    -0.331138951730E+04   -0.11461E-06   -0.22461E-06  2944   0.198E-03
  52 F= -.33254491E+04 E0= -.33254491E+04  d E =-.528731E-03
 BRION: g(F)=  0.868E-03 g(S)=  0.000E+00 retain N=  2 mean eig= 0.21
 eig:   0.099  0.322
 bond charge predicted
       N       E                     dE             d eps       ncg     rms          rms(c)
DAV:   1    -0.331138966495E+04   -0.14777E-03   -0.82887E-03  3712   0.107E-01    0.155E-02
DAV:   2    -0.331138967766E+04   -0.12706E-04   -0.17404E-04  4352   0.140E-02    0.159E-02
DAV:   3    -0.331138967693E+04    0.72393E-06   -0.55944E-06  3776   0.249E-03
  53 F= -.33254493E+04 E0= -.33254493E+04  d E =-.171895E-03
 BRION: g(F)=  0.662E-03 g(S)=  0.000E+00 retain N=  1 mean eig= 0.20
 eig:   0.203
 bond charge predicted
       N       E                     dE             d eps       ncg     rms          rms(c)
DAV:   1    -0.331139004470E+04   -0.36704E-03   -0.61792E-02  3712   0.283E-01    0.452E-02
DAV:   2    -0.331139011230E+04   -0.67604E-04   -0.10203E-03  4160   0.332E-02    0.436E-02
DAV:   3    -0.331139009388E+04    0.18415E-04   -0.34686E-05  4160   0.773E-03    0.330E-02
DAV:   4    -0.331139008817E+04    0.57154E-05   -0.64414E-05  3904   0.953E-03    0.832E-03
DAV:   5    -0.331139008878E+04   -0.60559E-06   -0.15564E-05  4064   0.433E-03    0.473E-03
DAV:   6    -0.331139008891E+04   -0.13894E-06   -0.19252E-06  2592   0.187E-03
  54 F= -.33254498E+04 E0= -.33254498E+04  d E =-.444420E-03
 BRION: g(F)=  0.117E-02 g(S)=  0.000E+00 retain N=  2 mean eig= 0.23
 eig:   0.226  0.226
 bond charge predicted
       N       E                     dE             d eps       ncg     rms          rms(c)
DAV:   1    -0.331139024534E+04   -0.15657E-03   -0.70043E-03  3648   0.998E-02    0.146E-02
DAV:   2    -0.331139025716E+04   -0.11821E-04   -0.16013E-04  4288   0.136E-02    0.151E-02
DAV:   3    -0.331139025683E+04    0.33894E-06   -0.55678E-06  3776   0.247E-03
  55 F= -.33254499E+04 E0= -.33254499E+04  d E =-.169713E-03
 BRION: g(F)=  0.585E-03 g(S)=  0.000E+00 retain N=  1 mean eig= 0.20
 eig:   0.196
 bond charge predicted
       N       E                     dE             d eps       ncg     rms          rms(c)
DAV:   1    -0.331139065166E+04   -0.39449E-03   -0.65566E-02  3712   0.290E-01    0.470E-02
DAV:   2    -0.331139072061E+04   -0.68949E-04   -0.10770E-03  4160   0.341E-02    0.450E-02
DAV:   3    -0.331139069934E+04    0.21263E-04   -0.40215E-05  4192   0.851E-03    0.327E-02
DAV:   4    -0.331139069477E+04    0.45756E-05   -0.63993E-05  3904   0.945E-03    0.857E-03
DAV:   5    -0.331139069543E+04   -0.66357E-06   -0.16208E-05  4032   0.430E-03    0.472E-03
DAV:   6    -0.331139069557E+04   -0.13842E-06   -0.19396E-06  2592   0.195E-03
  56 F= -.33254504E+04 E0= -.33254504E+04  d E =-.461352E-03
 BRION: g(F)=  0.958E-03 g(S)=  0.000E+00 retain N=  2 mean eig= 0.21
 eig:   0.157  0.272
 bond charge predicted
       N       E                     dE             d eps       ncg     rms          rms(c)
DAV:   1    -0.331139083696E+04   -0.14153E-03   -0.69650E-03  3680   0.984E-02    0.145E-02
DAV:   2    -0.331139084802E+04   -0.11057E-04   -0.15257E-04  4320   0.132E-02    0.150E-02
DAV:   3    -0.331139084752E+04    0.50018E-06   -0.50902E-06  3776   0.235E-03
  57 F= -.33254506E+04 E0= -.33254506E+04  d E =-.163508E-03
 BRION: g(F)=  0.558E-03 g(S)=  0.000E+00 retain N=  1 mean eig= 0.21
 eig:   0.207
 bond charge predicted
       N       E                     dE             d eps       ncg     rms          rms(c)
DAV:   1    -0.331139122004E+04   -0.37202E-03   -0.61238E-02  3712   0.280E-01    0.450E-02
DAV:   2    -0.331139128473E+04   -0.64699E-04   -0.99103E-04  4160   0.326E-02    0.432E-02
DAV:   3    -0.331139126560E+04    0.19137E-04   -0.34472E-05  4160   0.799E-03    0.318E-02
DAV:   4    -0.331139126134E+04    0.42623E-05   -0.63254E-05  3936   0.935E-03    0.781E-03
DAV:   5    -0.331139126169E+04   -0.35373E-06   -0.15622E-05  4064   0.432E-03    0.463E-03
DAV:   6    -0.331139126182E+04   -0.13551E-06   -0.18384E-06  2528   0.187E-03
  58 F= -.33254510E+04 E0= -.33254510E+04  d E =-.446399E-03
 BRION: g(F)=  0.856E-03 g(S)=  0.000E+00 retain N=  2 mean eig= 0.23
 eig:   0.137  0.315
 bond charge predicted
       N       E                     dE             d eps       ncg     rms          rms(c)
DAV:   1    -0.331139139679E+04   -0.13510E-03   -0.63390E-03  3648   0.940E-02    0.136E-02
DAV:   2    -0.331139140692E+04   -0.10128E-04   -0.13753E-04  4288   0.125E-02    0.140E-02
DAV:   3    -0.331139140647E+04    0.44721E-06   -0.46886E-06  3680   0.229E-03
  59 F= -.33254511E+04 E0= -.33254511E+04  d E =-.146994E-03
 BRION: g(F)=  0.553E-03 g(S)=  0.000E+00 retain N=  1 mean eig= 0.19
 eig:   0.194
 bond charge predicted
       N       E                     dE             d eps       ncg     rms          rms(c)
DAV:   1    -0.331139176252E+04   -0.35561E-03   -0.57054E-02  3712   0.271E-01    0.437E-02
DAV:   2    -0.331139182292E+04   -0.60394E-04   -0.93536E-04  4160   0.318E-02    0.420E-02
DAV:   3    -0.331139180482E+04    0.18098E-04   -0.34037E-05  4160   0.779E-03    0.308E-02
DAV:   4    -0.331139180051E+04    0.43126E-05   -0.57444E-05  3904   0.896E-03    0.789E-03
DAV:   5    -0.331139180103E+04   -0.52562E-06   -0.14341E-05  4000   0.408E-03    0.442E-03
DAV:   6    -0.331139180114E+04   -0.10419E-06   -0.16764E-06  2368   0.182E-03
  60 F= -.33254516E+04 E0= -.33254516E+04  d E =-.414231E-03
 BRION: g(F)=  0.865E-03 g(S)=  0.000E+00 retain N=  2 mean eig= 0.22
 eig:   0.150  0.285
 bond charge predicted
       N       E                     dE             d eps       ncg     rms          rms(c)
DAV:   1    -0.331139192998E+04   -0.12895E-03   -0.64667E-03  3680   0.947E-02    0.141E-02
DAV:   2    -0.331139194019E+04   -0.10211E-04   -0.14158E-04  4320   0.127E-02    0.145E-02
DAV:   3    -0.331139193969E+04    0.50775E-06   -0.47240E-06  3648   0.228E-03
  61 F= -.33254517E+04 E0= -.33254517E+04  d E =-.149655E-03
 BRION: g(F)=  0.522E-03 g(S)=  0.000E+00 retain N=  1 mean eig= 0.21
 eig:   0.209
 bond charge predicted
       N       E                     dE             d eps       ncg     rms          rms(c)
DAV:   1    -0.331139227332E+04   -0.33313E-03   -0.56657E-02  3712   0.270E-01    0.431E-02
DAV:   2    -0.331139233419E+04   -0.60865E-04   -0.92550E-04  4160   0.315E-02    0.416E-02
DAV:   3    -0.331139231682E+04    0.17366E-04   -0.31620E-05  4160   0.752E-03    0.310E-02
DAV:   4    -0.331139231192E+04    0.49040E-05   -0.59696E-05  3936   0.913E-03    0.762E-03
DAV:   5    -0.331139231235E+04   -0.43435E-06   -0.14509E-05  4064   0.416E-03    0.445E-03
DAV:   6    -0.331139231245E+04   -0.92783E-07   -0.16732E-06  2432   0.179E-03
  62 F= -.33254521E+04 E0= -.33254521E+04  d E =-.403126E-03
 BRION: g(F)=  0.859E-03 g(S)=  0.000E+00 retain N=  2 mean eig= 0.22
 eig:   0.129  0.312
 bond charge predicted
       N       E                     dE             d eps       ncg     rms          rms(c)
DAV:   1    -0.331139244288E+04   -0.13053E-03   -0.60956E-03  3648   0.923E-02    0.136E-02
DAV:   2    -0.331139245273E+04   -0.98448E-05   -0.13499E-04  4256   0.124E-02    0.141E-02
DAV:   3    -0.331139245231E+04    0.41572E-06   -0.47343E-06  3680   0.229E-03
  63 F= -.33254523E+04 E0= -.33254523E+04  d E =-.141632E-03
 BRION: g(F)=  0.508E-03 g(S)=  0.000E+00 retain N=  1 mean eig= 0.20
 eig:   0.199
 bond charge predicted
       N       E                     dE             d eps       ncg     rms          rms(c)
DAV:   1    -0.331139278324E+04   -0.33051E-03   -0.54490E-02  3712   0.265E-01    0.429E-02
DAV:   2    -0.331139284098E+04   -0.57743E-04   -0.89714E-04  4128   0.311E-02    0.412E-02
DAV:   3    -0.331139282331E+04    0.17674E-04   -0.32631E-05  4192   0.763E-03    0.302E-02
DAV:   4    -0.331139281873E+04    0.45769E-05   -0.56330E-05  3904   0.889E-03    0.766E-03
DAV:   5    -0.331139281923E+04   -0.50111E-06   -0.13983E-05  4032   0.404E-03    0.433E-03
DAV:   6    -0.331139281933E+04   -0.95984E-07   -0.15941E-06  2336   0.179E-03
  64 F= -.33254526E+04 E0= -.33254526E+04  d E =-.384997E-03
 BRION: g(F)=  0.819E-03 g(S)=  0.000E+00 retain N=  2 mean eig= 0.21
 eig:   0.133  0.296
 bond charge predicted
       N       E                     dE             d eps       ncg     rms          rms(c)
DAV:   1    -0.331139294263E+04   -0.12340E-03   -0.62777E-03  3712   0.932E-02    0.141E-02
DAV:   2    -0.331139295247E+04   -0.98371E-05   -0.13793E-04  4288   0.125E-02    0.145E-02
DAV:   3    -0.331139295188E+04    0.58359E-06   -0.47219E-06  3520   0.229E-03
  65 F= -.33254528E+04 E0= -.33254528E+04  d E =-.143121E-03
 BRION: g(F)=  0.484E-03 g(S)=  0.000E+00 retain N=  1 mean eig= 0.21
 eig:   0.213
 bond charge predicted
       N       E                     dE             d eps       ncg     rms          rms(c)
DAV:   1    -0.331139326008E+04   -0.30762E-03   -0.53016E-02  3712   0.261E-01    0.413E-02
DAV:   2    -0.331139331770E+04   -0.57616E-04   -0.86588E-04  4160   0.305E-02    0.399E-02
DAV:   3    -0.331139330213E+04    0.15572E-04   -0.28766E-05  4160   0.709E-03    0.303E-02
DAV:   4    -0.331139329702E+04    0.51113E-05   -0.56989E-05  3936   0.896E-03    0.728E-03
DAV:   5    -0.331139329746E+04   -0.44086E-06   -0.13548E-05  4000   0.405E-03    0.428E-03
DAV:   6    -0.331139329751E+04   -0.48720E-07   -0.15570E-06  2336   0.170E-03
  66 F= -.33254532E+04 E0= -.33254532E+04  d E =-.374291E-03
 BRION: g(F)=  0.796E-03 g(S)=  0.000E+00 retain N=  2 mean eig= 0.22
 eig:   0.118  0.323
 bond charge predicted
       N       E                     dE             d eps       ncg     rms          rms(c)
DAV:   1    -0.331139342072E+04   -0.12327E-03   -0.58518E-03  3648   0.902E-02    0.135E-02
DAV:   2    -0.331139343005E+04   -0.93296E-05   -0.12941E-04  4256   0.121E-02    0.139E-02
DAV:   3    -0.331139342956E+04    0.49325E-06   -0.44436E-06  3488   0.224E-03
  67 F= -.33254533E+04 E0= -.33254533E+04  d E =-.133877E-03
 BRION: g(F)=  0.475E-03 g(S)=  0.000E+00 retain N=  1 mean eig= 0.20
 eig:   0.201
 bond charge predicted
       N       E                     dE             d eps       ncg     rms          rms(c)
DAV:   1    -0.331139373634E+04   -0.30628E-03   -0.50980E-02  3712   0.256E-01    0.410E-02
DAV:   2    -0.331139379110E+04   -0.54761E-04   -0.83888E-04  4128   0.301E-02    0.395E-02
DAV:   3    -0.331139377523E+04    0.15869E-04   -0.29203E-05  4192   0.715E-03    0.296E-02
DAV:   4    -0.331139377033E+04    0.49008E-05   -0.54845E-05  3904   0.880E-03    0.722E-03
DAV:   5    -0.331139377078E+04   -0.45443E-06   -0.13234E-05  3936   0.396E-03    0.418E-03
DAV:   6    -0.331139377085E+04   -0.68510E-07   -0.14695E-06  2208   0.170E-03
  68 F= -.33254536E+04 E0= -.33254536E+04  d E =-.358409E-03
 BRION: g(F)=  0.762E-03 g(S)=  0.000E+00 retain N=  2 mean eig= 0.22
 eig:   0.133  0.308
 bond charge predicted
       N       E                     dE             d eps       ncg     rms          rms(c)
DAV:   1    -0.331139388825E+04   -0.11747E-03   -0.61103E-03  3712   0.917E-02    0.141E-02
DAV:   2    -0.331139389769E+04   -0.94356E-05   -0.13426E-04  4256   0.123E-02    0.145E-02
DAV:   3    -0.331139389695E+04    0.73836E-06   -0.46279E-06  3584   0.228E-03
  69 F= -.33254538E+04 E0= -.33254538E+04  d E =-.135857E-03
 BRION: g(F)=  0.454E-03 g(S)=  0.000E+00 retain N=  1 mean eig= 0.22
 eig:   0.216
 bond charge predicted
       N       E                     dE             d eps       ncg     rms          rms(c)
DAV:   1    -0.331139418070E+04   -0.28301E-03   -0.49708E-02  3712   0.253E-01    0.394E-02
DAV:   2    -0.331139423552E+04   -0.54821E-04   -0.81258E-04  4160   0.295E-02    0.382E-02
DAV:   3    -0.331139422175E+04    0.13765E-04   -0.26183E-05  4160   0.664E-03    0.296E-02
DAV:   4    -0.331139421633E+04    0.54220E-05   -0.54305E-05  3872   0.880E-03    0.702E-03
DAV:   5    -0.331139421683E+04   -0.49663E-06   -0.12560E-05  3968   0.392E-03    0.414E-03
DAV:   6    -0.331139421684E+04   -0.13504E-07   -0.14502E-06  2272   0.161E-03
  70 F= -.33254541E+04 E0= -.33254541E+04  d E =-.346727E-03
 BRION: g(F)=  0.760E-03 g(S)=  0.000E+00 retain N=  2 mean eig= 0.22
 eig:   0.117  0.331
 bond charge predicted
       N       E                     dE             d eps       ncg     rms          rms(c)
DAV:   1    -0.331139433532E+04   -0.11850E-03   -0.57029E-03  3648   0.889E-02    0.135E-02
DAV:   2    -0.331139434432E+04   -0.89977E-05   -0.12665E-04  4288   0.120E-02    0.139E-02
DAV:   3    -0.331139434370E+04    0.62434E-06   -0.41810E-06  3424   0.220E-03
  71 F= -.33254543E+04 E0= -.33254543E+04  d E =-.128806E-03
 BRION: g(F)=  0.446E-03 g(S)=  0.000E+00 retain N=  1 mean eig= 0.20
 eig:   0.204
 bond charge predicted
       N       E                     dE             d eps       ncg     rms          rms(c)
DAV:   1    -0.331139462803E+04   -0.28370E-03   -0.48385E-02  3712   0.249E-01    0.393E-02
DAV:   2    -0.331139468092E+04   -0.52891E-04   -0.79692E-04  4128   0.293E-02    0.381E-02
DAV:   3    -0.331139466671E+04    0.14204E-04   -0.26501E-05  4160   0.671E-03    0.292E-02
DAV:   4    -0.331139466128E+04    0.54343E-05   -0.54253E-05  3904   0.879E-03    0.689E-03
DAV:   5    -0.331139466173E+04   -0.45082E-06   -0.12572E-05  3936   0.390E-03    0.408E-03
DAV:   6    -0.331139466177E+04   -0.38999E-07   -0.13794E-06  2176   0.162E-03
  72 F= -.33254546E+04 E0= -.33254546E+04  d E =-.334697E-03
 BRION: g(F)=  0.730E-03 g(S)=  0.000E+00 retain N=  2 mean eig= 0.23
 eig:   0.140  0.314
 bond charge predicted
       N       E                     dE             d eps       ncg     rms          rms(c)
DAV:   1    -0.331139477631E+04   -0.11458E-03   -0.60364E-03  3744   0.909E-02    0.144E-02
DAV:   2    -0.331139478528E+04   -0.89731E-05   -0.13137E-04  4288   0.122E-02    0.146E-02
DAV:   3    -0.331139478413E+04    0.11493E-05   -0.43658E-06  3520   0.228E-03    0.132E-02
DAV:   4    -0.331139478020E+04    0.39353E-05   -0.13079E-05  3840   0.466E-03    0.351E-03
DAV:   5    -0.331139478031E+04   -0.11560E-06   -0.24566E-06  2656   0.195E-03
  73 F= -.33254547E+04 E0= -.33254547E+04  d E =-.127384E-03
 BRION: g(F)=  0.402E-03 g(S)=  0.000E+00 retain N=  1 mean eig= 0.22
 eig:   0.216
 bond charge predicted
       N       E                     dE             d eps       ncg     rms          rms(c)
DAV:   1    -0.331139504761E+04   -0.26741E-03   -0.43227E-02  3712   0.236E-01    0.342E-02
DAV:   2    -0.331139509941E+04   -0.51800E-04   -0.72609E-04  4192   0.278E-02    0.337E-02
DAV:   3    -0.331139509024E+04    0.91663E-05   -0.19705E-05  4384   0.543E-03    0.283E-02
DAV:   4    -0.331139508306E+04    0.71793E-05   -0.47580E-05  3840   0.837E-03    0.704E-03
DAV:   5    -0.331139508390E+04   -0.83871E-06   -0.10316E-05  3808   0.351E-03    0.389E-03
DAV:   6    -0.331139508384E+04    0.56054E-07   -0.10432E-06  2240   0.135E-03
  74 F= -.33254550E+04 E0= -.33254550E+04  d E =-.326127E-03
 BRION: g(F)=  0.636E-03 g(S)=  0.000E+00 retain N=  2 mean eig= 0.22
 eig:   0.221  0.221
 bond charge predicted
       N       E                     dE             d eps       ncg     rms          rms(c)
DAV:   1    -0.331139518653E+04   -0.10263E-03   -0.41038E-03  3712   0.748E-02    0.112E-02
DAV:   2    -0.331139519277E+04   -0.62400E-05   -0.87133E-05  4320   0.986E-03    0.114E-02
DAV:   3    -0.331139519226E+04    0.50821E-06   -0.26355E-06  3104   0.180E-03
  75 F= -.33254552E+04 E0= -.33254552E+04  d E =-.111199E-03
 BRION: g(F)=  0.387E-03 g(S)=  0.000E+00 retain N=  1 mean eig= 0.20
 eig:   0.196
 bond charge predicted
       N       E                     dE             d eps       ncg     rms          rms(c)
DAV:   1    -0.331139549430E+04   -0.30153E-03   -0.45050E-02  3712   0.239E-01    0.364E-02
DAV:   2    -0.331139554211E+04   -0.47805E-04   -0.69867E-04  4096   0.272E-02    0.351E-02
DAV:   3    -0.331139553053E+04    0.11582E-04   -0.21232E-05  4192   0.629E-03    0.269E-02
DAV:   4    -0.331139552802E+04    0.25005E-05   -0.48091E-05  3904   0.814E-03    0.585E-03
DAV:   5    -0.331139552805E+04   -0.28813E-07   -0.11058E-05  3936   0.371E-03    0.374E-03
DAV:   6    -0.331139552803E+04    0.19907E-07   -0.12489E-06  2240   0.152E-03
  76 F= -.33254555E+04 E0= -.33254555E+04  d E =-.356136E-03
 BRION: g(F)=  0.385E-03 g(S)=  0.000E+00 retain N=  2 mean eig= 0.32
 eig:   0.119  0.521
 bond charge predicted
       N       E                     dE             d eps       ncg     rms          rms(c)
DAV:   1    -0.331139572740E+04   -0.19935E-03   -0.23218E-02  3712   0.173E-01    0.249E-02
DAV:   2    -0.331139575571E+04   -0.28305E-04   -0.40134E-04  4352   0.207E-02    0.247E-02
DAV:   3    -0.331139575088E+04    0.48325E-05   -0.10993E-05  4352   0.395E-03    0.211E-02
DAV:   4    -0.331139574577E+04    0.51004E-05   -0.31347E-05  3776   0.689E-03    0.500E-03
DAV:   5    -0.331139574621E+04   -0.43435E-06   -0.63566E-06  3616   0.286E-03
  77 F= -.33254557E+04 E0= -.33254557E+04  d E =-.232667E-03
 BRION: g(F)=  0.498E-03 g(S)=  0.000E+00 retain N=  2 mean eig= 1.11
 eig:   0.198  2.018
 bond charge predicted
       N       E                     dE             d eps       ncg     rms          rms(c)
DAV:   1    -0.331139589204E+04   -0.14626E-03   -0.17413E-02  3712   0.152E-01    0.223E-02
DAV:   2    -0.331139591607E+04   -0.24034E-04   -0.32802E-04  4128   0.189E-02    0.225E-02
DAV:   3    -0.331139591337E+04    0.26957E-05   -0.10807E-05  4576   0.355E-03    0.201E-02
DAV:   4    -0.331139590818E+04    0.51904E-05   -0.16661E-05  3808   0.551E-03    0.742E-03
DAV:   5    -0.331139590872E+04   -0.53865E-06   -0.62960E-06  3808   0.299E-03
  78 F= -.33254559E+04 E0= -.33254559E+04  d E =-.176489E-03
 BRION: g(F)=  0.732E-03 g(S)=  0.000E+00 retain N=  2 mean eig= 0.30
 eig:   0.203  0.394
 bond charge predicted
       N       E                     dE             d eps       ncg     rms          rms(c)
DAV:   1    -0.331139599396E+04   -0.85772E-04   -0.30128E-03  3648   0.652E-02    0.105E-02
DAV:   2    -0.331139599899E+04   -0.50348E-05   -0.70973E-05  4320   0.900E-03    0.105E-02
DAV:   3    -0.331139599837E+04    0.61665E-06   -0.21660E-06  2848   0.169E-03
  79 F= -.33254560E+04 E0= -.33254560E+04  d E =-.910446E-04
 BRION: g(F)=  0.357E-03 g(S)=  0.000E+00 retain N=  2 mean eig= 3.21
 eig:   0.204  6.216
 bond charge predicted
       N       E                     dE             d eps       ncg     rms          rms(c)
DAV:   1    -0.331139626296E+04   -0.26397E-03   -0.35836E-02  3712   0.213E-01    0.323E-02
DAV:   2    -0.331139630179E+04   -0.38828E-04   -0.56403E-04  4032   0.244E-02    0.312E-02
DAV:   3    -0.331139629267E+04    0.91156E-05   -0.16408E-05  4192   0.551E-03    0.241E-02
DAV:   4    -0.331139629031E+04    0.23622E-05   -0.38333E-05  3776   0.728E-03    0.532E-03
DAV:   5    -0.331139629044E+04   -0.13446E-06   -0.86843E-06  3872   0.324E-03
  80 F= -.33254563E+04 E0= -.33254563E+04  d E =-.309023E-03
 BRION: g(F)=  0.356E-03 g(S)=  0.000E+00 retain N=  3 mean eig= 2.92
 eig:   7.992  0.379  0.379
 bond charge predicted
       N       E                     dE             d eps       ncg     rms          rms(c)
DAV:   1    -0.331139642407E+04   -0.13376E-03   -0.12955E-02  3712   0.130E-01    0.190E-02
DAV:   2    -0.331139644119E+04   -0.17122E-04   -0.23260E-04  4512   0.158E-02    0.190E-02
DAV:   3    -0.331139643899E+04    0.22012E-05   -0.57038E-06  3744   0.276E-03    0.170E-02
DAV:   4    -0.331139643593E+04    0.30570E-05   -0.20509E-05  3776   0.576E-03    0.408E-03
DAV:   5    -0.331139643615E+04   -0.22096E-06   -0.41323E-06  3104   0.252E-03
  81 F= -.33254565E+04 E0= -.33254565E+04  d E =-.159910E-03
 BRION: g(F)=  0.490E-03 g(S)=  0.000E+00 retain N=  3 mean eig= 1.56
 eig:   4.359  0.283  0.052
 bond charge predicted
       N       E                     dE             d eps       ncg     rms          rms(c)
DAV:   1    -0.331139677187E+04   -0.33594E-03   -0.78848E-02  3712   0.318E-01    0.456E-02
DAV:   2    -0.331139686630E+04   -0.94431E-04   -0.13101E-03  4192   0.373E-02    0.450E-02
DAV:   3    -0.331139685060E+04    0.15698E-04   -0.35709E-05  4480   0.728E-03    0.380E-02
DAV:   4    -0.331139683847E+04    0.12132E-04   -0.87455E-05  3904   0.114E-02    0.934E-03
DAV:   5    -0.331139683998E+04   -0.15078E-05   -0.18956E-05  3904   0.481E-03    0.532E-03
DAV:   6    -0.331139683978E+04    0.19296E-06   -0.22695E-06  3072   0.181E-03
  82 F= -.33254569E+04 E0= -.33254569E+04  d E =-.426247E-03
 BRION: g(F)=  0.660E-03 g(S)=  0.000E+00 retain N=  2 mean eig= 0.42
 eig:   0.190  0.657
 bond charge predicted
       N       E                     dE             d eps       ncg     rms          rms(c)
DAV:   1    -0.331139671274E+04    0.12724E-03   -0.12308E-02  3712   0.128E-01    0.190E-02
DAV:   2    -0.331139672857E+04   -0.15830E-04   -0.22693E-04  4352   0.158E-02    0.190E-02
DAV:   3    -0.331139672613E+04    0.24335E-05   -0.69496E-06  4128   0.297E-03    0.167E-02
DAV:   4    -0.331139672136E+04    0.47716E-05   -0.17015E-05  3840   0.529E-03    0.462E-03
DAV:   5    -0.331139672162E+04   -0.26135E-06   -0.38460E-06  2816   0.233E-03
  83 F= -.33254568E+04 E0= -.33254568E+04  d E =0.125539E-03
 BRION: g(F)=  0.418E-03 g(S)=  0.000E+00 retain N=  2 mean eig= 1.65
 eig:   0.250  3.041
 bond charge predicted
       N       E                     dE             d eps       ncg     rms          rms(c)
DAV:   1    -0.331139692522E+04   -0.20386E-03   -0.30031E-02  3712   0.197E-01    0.279E-02
DAV:   2    -0.331139696189E+04   -0.36671E-04   -0.51803E-04  4192   0.236E-02    0.278E-02
DAV:   3    -0.331139695618E+04    0.57127E-05   -0.15247E-05  4416   0.445E-03    0.242E-02
DAV:   4    -0.331139694785E+04    0.83268E-05   -0.39968E-05  3840   0.792E-03    0.611E-03
DAV:   5    -0.331139694841E+04   -0.56025E-06   -0.86139E-06  3904   0.341E-03
  84 F= -.33254570E+04 E0= -.33254570E+04  d E =-.238919E-03
 BRION: g(F)=  0.597E-03 g(S)=  0.000E+00 retain N=  3 mean eig= 1.19
 eig:   3.183  0.284  0.114
 bond charge predicted
       N       E                     dE             d eps       ncg     rms          rms(c)
DAV:   1    -0.331139704547E+04   -0.97621E-04   -0.46848E-03  3776   0.795E-02    0.137E-02
DAV:   2    -0.331139705186E+04   -0.63890E-05   -0.10070E-04  4224   0.106E-02    0.135E-02
DAV:   3    -0.331139704995E+04    0.19093E-05   -0.34155E-06  3488   0.222E-03    0.109E-02
DAV:   4    -0.331139704767E+04    0.22813E-05   -0.92976E-06  3488   0.373E-03    0.262E-03
DAV:   5    -0.331139704777E+04   -0.98080E-07   -0.14778E-06  2336   0.142E-03
  85 F= -.33254571E+04 E0= -.33254571E+04  d E =-.106665E-03
 BRION: g(F)=  0.321E-03 g(S)=  0.000E+00 retain N=  1 mean eig= 0.23
 eig:   0.225
 bond charge predicted
       N       E                     dE             d eps       ncg     rms          rms(c)
DAV:   1    -0.331139730038E+04   -0.25271E-03   -0.37145E-02  3712   0.217E-01    0.308E-02
DAV:   2    -0.331139734316E+04   -0.42778E-04   -0.59522E-04  4096   0.251E-02    0.302E-02
DAV:   3    -0.331139733550E+04    0.76545E-05   -0.15542E-05  4384   0.502E-03    0.251E-02
DAV:   4    -0.331139733100E+04    0.45004E-05   -0.41978E-05  3840   0.774E-03    0.567E-03
DAV:   5    -0.331139733138E+04   -0.37305E-06   -0.86863E-06  3872   0.329E-03
  86 F= -.33254574E+04 E0= -.33254574E+04  d E =-.302270E-03
 BRION: g(F)=  0.360E-03 g(S)=  0.000E+00 retain N=  2 mean eig= 0.28
 eig:   0.277  0.277
 bond charge predicted
       N       E                     dE             d eps       ncg     rms          rms(c)
DAV:   1    -0.331139741554E+04   -0.84532E-04   -0.37477E-03  3712   0.701E-02    0.105E-02
DAV:   2    -0.331139742079E+04   -0.52508E-05   -0.69552E-05  4160   0.867E-03    0.105E-02
DAV:   3    -0.331139742019E+04    0.59477E-06   -0.18534E-06  2880   0.163E-03
  87 F= -.33254575E+04 E0= -.33254575E+04  d E =-.934793E-04
 BRION: g(F)=  0.338E-03 g(S)=  0.000E+00 retain N=  1 mean eig= 0.14
 eig:   0.139
 bond charge predicted
       N       E                     dE             d eps       ncg     rms          rms(c)
DAV:   1    -0.331139765290E+04   -0.23212E-03   -0.30213E-02  3712   0.196E-01    0.295E-02
DAV:   2    -0.331139768528E+04   -0.32374E-04   -0.46334E-04  4064   0.221E-02    0.286E-02
DAV:   3    -0.331139767800E+04    0.72729E-05   -0.13451E-05  4192   0.504E-03    0.220E-02
DAV:   4    -0.331139767671E+04    0.12990E-05   -0.31736E-05  3776   0.662E-03    0.470E-03
DAV:   5    -0.331139767670E+04    0.84983E-08   -0.72195E-06  3776   0.302E-03
  88 F= -.33254578E+04 E0= -.33254578E+04  d E =-.272847E-03
 BRION: g(F)=  0.336E-03 g(S)=  0.000E+00 retain N=  2 mean eig= 0.93
 eig:   1.054  0.805
 bond charge predicted
       N       E                     dE             d eps       ncg     rms          rms(c)
DAV:   1    -0.331139802462E+04   -0.34791E-03   -0.12506E-01  3712   0.400E-01    0.570E-02
DAV:   2    -0.331139817429E+04   -0.14967E-03   -0.20621E-03  4160   0.467E-02    0.564E-02
DAV:   3    -0.331139815018E+04    0.24102E-04   -0.53981E-05  4544   0.902E-03    0.481E-02
DAV:   4    -0.331139813113E+04    0.19051E-04   -0.15738E-04  4128   0.153E-02    0.107E-02
DAV:   5    -0.331139813262E+04   -0.14879E-05   -0.31922E-05  3872   0.648E-03    0.680E-03
DAV:   6    -0.331139813244E+04    0.18370E-06   -0.36865E-06  3616   0.228E-03
  89 F= -.33254583E+04 E0= -.33254583E+04  d E =-.490829E-03
 BRION: g(F)=  0.785E-03 g(S)=  0.000E+00 retain N=  3 mean eig= 2.00
 eig:   5.528  0.332  0.140
 bond charge predicted
       N       E                     dE             d eps       ncg     rms          rms(c)
DAV:   1    -0.331139860612E+04   -0.47350E-03   -0.15322E+00  3712   0.140E+00    0.197E-01
DAV:   2    -0.331140038320E+04   -0.17771E-02   -0.24620E-02  4032   0.161E-01    0.194E-01
DAV:   3    -0.331140007787E+04    0.30533E-03   -0.62360E-04  4480   0.318E-02    0.163E-01
DAV:   4    -0.331139988352E+04    0.19435E-03   -0.17903E-03  4128   0.505E-02    0.359E-02
DAV:   5    -0.331139989727E+04   -0.13754E-04   -0.36525E-04  3904   0.214E-02    0.227E-02
DAV:   6    -0.331139989592E+04    0.13491E-05   -0.43102E-05  3776   0.810E-03    0.103E-02
DAV:   7    -0.331139989477E+04    0.11481E-05   -0.25986E-05  4160   0.532E-03    0.404E-03
DAV:   8    -0.331139989482E+04   -0.41502E-07   -0.45010E-06  3712   0.237E-03
  90 F= -.33254602E+04 E0= -.33254602E+04  d E =-.188167E-02
 BRION: g(F)=  0.482E-03 g(S)=  0.000E+00 retain N=  2 mean eig= 0.28
 eig:   0.129  0.436
 bond charge predicted
       N       E                     dE             d eps       ncg     rms          rms(c)
DAV:   1    -0.331139798056E+04    0.19142E-02   -0.80959E-01  3712   0.102E+00    0.144E-01
DAV:   2    -0.331139891930E+04   -0.93874E-03   -0.13024E-02  4064   0.117E-01    0.141E-01
DAV:   3    -0.331139875777E+04    0.16154E-03   -0.32916E-04  4512   0.231E-02    0.119E-01
DAV:   4    -0.331139864850E+04    0.10926E-03   -0.93844E-04  4128   0.367E-02    0.265E-02
DAV:   5    -0.331139865700E+04   -0.84944E-05   -0.19498E-04  3872   0.157E-02    0.165E-02
DAV:   6    -0.331139865628E+04    0.72049E-06   -0.22693E-05  3840   0.589E-03    0.758E-03
DAV:   7    -0.331139865568E+04    0.59797E-06   -0.13449E-05  3936   0.384E-03    0.298E-03
DAV:   8    -0.331139865568E+04   -0.72177E-08   -0.23239E-06  2816   0.175E-03
  91 F= -.33254588E+04 E0= -.33254588E+04  d E =0.133094E-02
 BRION: g(F)=  0.548E-03 g(S)=  0.000E+00 retain N=  3 mean eig= 1.32
 eig:   3.094  0.432  0.432
 bond charge predicted
       N       E                     dE             d eps       ncg     rms          rms(c)
DAV:   1    -0.331139876265E+04   -0.10697E-03   -0.49997E-03  3712   0.820E-02    0.121E-02
DAV:   2    -0.331139876932E+04   -0.66735E-05   -0.95943E-05  4224   0.103E-02    0.121E-02
DAV:   3    -0.331139876830E+04    0.10187E-05   -0.28634E-06  3232   0.194E-03    0.106E-02
DAV:   4    -0.331139876651E+04    0.17865E-05   -0.61526E-06  3680   0.311E-03    0.344E-03
DAV:   5    -0.331139876660E+04   -0.85216E-07   -0.12645E-06  2336   0.138E-03
  92 F= -.33254590E+04 E0= -.33254590E+04  d E =-.118193E-03
 BRION: g(F)=  0.286E-03 g(S)=  0.000E+00 retain N=  3 mean eig= 1.22
 eig:   2.970  0.625  0.079
 bond charge predicted
       N       E                     dE             d eps       ncg     rms          rms(c)
DAV:   1    -0.331139915188E+04   -0.38537E-03   -0.11831E-01  3712   0.387E-01    0.550E-02
DAV:   2    -0.331139928702E+04   -0.13513E-03   -0.18808E-03  4128   0.444E-02    0.539E-02
DAV:   3    -0.331139926220E+04    0.24816E-04   -0.48240E-05  4448   0.898E-03    0.444E-02
DAV:   4    -0.331139924941E+04    0.12789E-04   -0.13563E-04  4192   0.138E-02    0.969E-03
DAV:   5    -0.331139925014E+04   -0.73062E-06   -0.27398E-05  3872   0.583E-03    0.618E-03
DAV:   6    -0.331139925006E+04    0.78115E-07   -0.31984E-06  3392   0.228E-03
  93 F= -.33254595E+04 E0= -.33254595E+04  d E =-.516535E-03
 BRION: g(F)=  0.281E-03 g(S)=  0.000E+00 retain N=  4 mean eig= 1.43
 eig:   1.297  1.297  0.023  3.102
 bond charge predicted
       N       E                     dE             d eps       ncg     rms          rms(c)
DAV:   1    -0.331139955145E+04   -0.30131E-03   -0.69280E-02  3712   0.296E-01    0.418E-02
DAV:   2    -0.331139963253E+04   -0.81073E-04   -0.11320E-03  4192   0.345E-02    0.411E-02
DAV:   3    -0.331139961837E+04    0.14157E-04   -0.29553E-05  4448   0.685E-03    0.344E-02
DAV:   4    -0.331139960965E+04    0.87200E-05   -0.81483E-05  3936   0.108E-02    0.791E-03
DAV:   5    -0.331139961044E+04   -0.78836E-06   -0.16447E-05  3872   0.452E-03    0.489E-03
DAV:   6    -0.331139961035E+04    0.91095E-07   -0.17852E-06  2720   0.174E-03
  94 F= -.33254599E+04 E0= -.33254599E+04  d E =-.384124E-03
 BRION: g(F)=  0.303E-03 g(S)=  0.000E+00 retain N=  3 mean eig= 1.55
 eig:   3.530  0.197  0.914
 bond charge predicted
       N       E                     dE             d eps       ncg     rms          rms(c)
DAV:   1    -0.331139723577E+04    0.23747E-02   -0.69213E+00  3712   0.296E+00    0.418E-01
DAV:   2    -0.331140516439E+04   -0.79286E-02   -0.11033E-01  4032   0.340E-01    0.410E-01
DAV:   3    -0.331140373081E+04    0.14336E-02   -0.28255E-03  4416   0.683E-02    0.340E-01
DAV:   4    -0.331140288593E+04    0.84488E-03   -0.80564E-03  4192   0.106E-01    0.747E-02
DAV:   5    -0.331140293248E+04   -0.46557E-04   -0.16148E-03  3808   0.448E-02    0.476E-02
DAV:   6    -0.331140293219E+04    0.29191E-06   -0.18943E-04  3808   0.173E-02    0.209E-02
DAV:   7    -0.331140292869E+04    0.35050E-05   -0.11437E-04  4032   0.111E-02    0.850E-03
DAV:   8    -0.331140292870E+04   -0.16764E-07   -0.20844E-05  4000   0.499E-03    0.540E-03
DAV:   9    -0.331140292823E+04    0.47556E-06   -0.41021E-06  4096   0.244E-03
  95 F= -.33254634E+04 E0= -.33254634E+04  d E =-.357419E-02
 BRION: g(F)=  0.580E-03 g(S)=  0.000E+00 retain N=  4 mean eig= 4.10
 eig:   7.712  7.712  0.234  0.752
 bond charge predicted
       N       E                     dE             d eps       ncg     rms          rms(c)
DAV:   1    -0.331139867423E+04    0.42545E-02   -0.90963E+00  3712   0.339E+00    0.479E-01
DAV:   2    -0.331140909272E+04   -0.10418E-01   -0.14486E-01  4032   0.390E-01    0.470E-01
DAV:   3    -0.331140721198E+04    0.18807E-02   -0.37069E-03  4448   0.783E-02    0.390E-01
DAV:   4    -0.331140609832E+04    0.11137E-02   -0.10606E-02  4256   0.122E-01    0.854E-02
DAV:   5    -0.331140615697E+04   -0.58651E-04   -0.21272E-03  3776   0.515E-02    0.546E-02
DAV:   6    -0.331140615821E+04   -0.12433E-05   -0.24834E-04  3840   0.198E-02    0.240E-02
DAV:   7    -0.331140615375E+04    0.44638E-05   -0.14935E-04  4000   0.127E-02    0.980E-03
DAV:   8    -0.331140615372E+04    0.25786E-07   -0.27195E-05  4000   0.570E-03    0.622E-03
DAV:   9    -0.331140615308E+04    0.63522E-06   -0.55757E-06  4256   0.281E-03
  96 F= -.33254670E+04 E0= -.33254670E+04  d E =-.352697E-02
 BRION: g(F)=  0.410E-03 g(S)=  0.000E+00 retain N=  3 mean eig= 3.19
 eig:   0.461  4.552  4.552
 bond charge predicted
       N       E                     dE             d eps       ncg     rms          rms(c)
DAV:   1    -0.331139031702E+04    0.15837E-01   -0.14246E+01  3712   0.425E+00    0.600E-01
DAV:   2    -0.331140667234E+04   -0.16355E-01   -0.22718E-01  4032   0.489E-01    0.589E-01
DAV:   3    -0.331140372766E+04    0.29447E-02   -0.58131E-03  4448   0.980E-02    0.489E-01
DAV:   4    -0.331140195362E+04    0.17740E-02   -0.16576E-02  4224   0.152E-01    0.107E-01
DAV:   5    -0.331140205394E+04   -0.10032E-03   -0.33275E-03  3744   0.642E-02    0.683E-02
DAV:   6    -0.331140204952E+04    0.44224E-05   -0.39388E-04  3840   0.247E-02    0.302E-02
DAV:   7    -0.331140204192E+04    0.76029E-05   -0.23333E-04  3904   0.158E-02    0.123E-02
DAV:   8    -0.331140204186E+04    0.55647E-07   -0.43172E-05  4032   0.717E-03    0.774E-03
DAV:   9    -0.331140204073E+04    0.11307E-05   -0.86619E-06  4288   0.349E-03    0.273E-03
DAV:  10    -0.331140204068E+04    0.49477E-07   -0.10836E-06  2752   0.144E-03
  97 F= -.33254625E+04 E0= -.33254625E+04  d E =0.448949E-02
 BRION: g(F)=  0.396E-03 g(S)=  0.000E+00 retain N=  3 mean eig= 5.45
 eig:   7.311  7.311  1.738
 bond charge predicted
       N       E                     dE             d eps       ncg     rms          rms(c)
DAV:   1    -0.331139943732E+04    0.26034E-02   -0.68421E+00  3712   0.294E+00    0.416E-01
DAV:   2    -0.331140724716E+04   -0.78098E-02   -0.10885E-01  4000   0.338E-01    0.408E-01
DAV:   3    -0.331140581630E+04    0.14309E-02   -0.27922E-03  4352   0.682E-02    0.337E-01
DAV:   4    -0.331140499307E+04    0.82322E-03   -0.79323E-03  4224   0.105E-01    0.741E-02
DAV:   5    -0.331140503602E+04   -0.42949E-04   -0.15783E-03  3840   0.444E-02    0.472E-02
DAV:   6    -0.331140503597E+04    0.46857E-07   -0.18732E-04  3808   0.173E-02    0.206E-02
DAV:   7    -0.331140503306E+04    0.29097E-05   -0.11196E-04  4032   0.110E-02    0.844E-03
DAV:   8    -0.331140503303E+04    0.29919E-07   -0.20487E-05  3936   0.496E-03    0.535E-03
DAV:   9    -0.331140503258E+04    0.45705E-06   -0.40554E-06  4064   0.242E-03
 soft stop encountered!  aborting job ...
  98 F= -.33254657E+04 E0= -.33254657E+04  d E =-.325047E-02
 BRION: g(F)=  0.293E-03 g(S)=  0.000E+00 retain N=  3 mean eig= 2.95
 eig:   2.334  2.334  4.191
 deleting file STOPCAR
 PROFILE, used timers:     328
