 vasp.6.4.2 20Jul23 (build Oct 12 2023 10:31:02) complex                         
 executed on              LinuxNV date 2024.11.02  01:23:02
 running  128 mpi-ranks, with    1 threads/rank, on    2 nodes
 distrk:  each k-point on   64 cores,    2 groups
 distr:  one band on NCORE=   8 cores,    8 groups


--------------------------------------------------------------------------------------------------------


 INCAR:
   ENCUT = 520.000000
   SIGMA = 0.050000
   EDIFF = 1.00e-06
   ALGO = N
   GGA = PE
   PREC = Accurate
   SYSTEM = 01_AOPT
   ICHARG = 0
   ISMEAR = 0
   ISPIN = 2
   ISTART = 1
   ISYM = -1
   KPAR = 2
   LORBIT = 11
   NBANDS = 220
   NELM = 100
   NELMIN = 5
   NPAR = 8
   LASPH = .TRUE.
   LCHARG = .FALSE.
   LWAVE = .FALSE.
   LREAL = .FALSE.

 POTCAR:    PAW_PBE Ge 05Jan2001                  
 POTCAR:    PAW_PBE Se 06Sep2000                  
 -----------------------------------------------------------------------------
|                                                                             |
|           W    W    AA    RRRRR   N    N  II  N    N   GGGG   !!!           |
|           W    W   A  A   R    R  NN   N  II  NN   N  G    G  !!!           |
|           W    W  A    A  R    R  N N  N  II  N N  N  G       !!!           |
|           W WW W  AAAAAA  RRRRR   N  N N  II  N  N N  G  GGG   !            |
|           WW  WW  A    A  R   R   N   NN  II  N   NN  G    G                |
|           W    W  A    A  R    R  N    N  II  N    N   GGGG   !!!           |
|                                                                             |
|     You use a magnetic or noncollinear calculation, but did not specify     |
|     the initial magnetic moment with the MAGMOM tag. Note that a            |
|     default of 1 will be used for all atoms. This ferromagnetic setup       |
|     may break the symmetry of the crystal, in particular it may rule        |
|     out finding an antiferromagnetic solution. Thence, we recommend         |
|     setting the initial magnetic moment manually or verifying carefully     |
|     that this magnetic setup is desired.                                    |
|                                                                             |
 -----------------------------------------------------------------------------

 POTCAR:    PAW_PBE Ge 05Jan2001                  
   VRHFIN =Ge: s2p2                                                                                 
   LEXCH  = PE                                                                                      
   EATOM  =   104.9960 eV,    7.7170 Ry                                                             
                                                                                                    
   TITEL  = PAW_PBE Ge 05Jan2001                                                                    
   LULTRA =        F    use ultrasoft PP ?                                                          
   IUNSCR =        1    unscreen: 0-lin 1-nonlin 2-no                                               
   RPACOR =    2.170    partial core radius                                                         
   POMASS =   72.610; ZVAL   =    4.000    mass and valenz                                          
   RCORE  =    2.300    outmost cutoff radius                                                       
   RWIGS  =    2.300; RWIGS  =    1.217    wigner-seitz radius (au A)                               
   ENMAX  =  173.807; ENMIN  =  130.355 eV                                                          
   ICORE  =        3    local potential                                                             
   LCOR   =        T    correct aug charges                                                         
   LPAW   =        T    paw PP                                                                      
   EAUG   =  385.843                                                                                
   DEXC   =    0.000                                                                                
   RMAX   =    2.342    core radius for proj-oper                                                   
   RAUG   =    1.300    factor for augmentation sphere                                              
   RDEP   =    2.318    radius for radial grids                                                     
   RDEPT  =    2.103    core radius for aug-charge                                                  
                                                                                                    
   Atomic configuration                                                                             
   10 entries                                                                                       
     n  l   j            E        occ.                                                              
     1  0  0.50    -10959.8463   2.0000                                                             
     2  0  0.50     -1371.6056   2.0000                                                             
     2  1  1.50     -1198.4791   6.0000                                                             
     3  0  0.50      -168.4733   2.0000                                                             
     3  1  1.50      -115.6019   6.0000                                                             
     3  2  2.50       -29.3106  10.0000                                                             
     4  0  0.50       -11.7309   2.0000                                                             
     4  1  0.50        -3.8952   2.0000                                                             
     4  2  1.50        -4.0817   0.0000                                                             
     4  3  2.50        -4.0817   0.0000                                                             
   Description                                                                                      
     l       E           TYP  RCUT    TYP  RCUT                                                     
     0    -11.7309493     23  2.300                                                                 
     0     -7.4578696     23  2.300                                                                 
     1     -3.8952261     23  2.300                                                                 
     1      6.1178114     23  2.300                                                                 
     2     -4.0817478     23  2.300                                                                 
     3     -1.3605826      7  2.300                                                                 
  local pseudopotential read in
  partial core-charges read in
  partial kinetic energy density read in
  atomic valenz-charges read in
  non local Contribution for L=            0  read in
    real space projection operators read in
  non local Contribution for L=            0  read in
    real space projection operators read in
  non local Contribution for L=            1  read in
    real space projection operators read in
  non local Contribution for L=            1  read in
    real space projection operators read in
  non local Contribution for L=            2  read in
    real space projection operators read in
    PAW grid and wavefunctions read in
 
   number of l-projection  operators is LMAX  =            5
   number of lm-projection operators is LMMAX =           13
 
 POTCAR:    PAW_PBE Se 06Sep2000                  
   VRHFIN =Se: s2p4                                                                                 
   LEXCH  = PE                                                                                      
   EATOM  =   257.1286 eV,   18.8984 Ry                                                             
                                                                                                    
   TITEL  = PAW_PBE Se 06Sep2000                                                                    
   LULTRA =        F    use ultrasoft PP ?                                                          
   IUNSCR =        1    unscreen: 0-lin 1-nonlin 2-no                                               
   RPACOR =    1.900    partial core radius                                                         
   POMASS =   78.960; ZVAL   =    6.000    mass and valenz                                          
   RCORE  =    2.100    outmost cutoff radius                                                       
   RWIGS  =    2.200; RWIGS  =    1.164    wigner-seitz radius (au A)                               
   ENMAX  =  211.555; ENMIN  =  158.666 eV                                                          
   ICORE  =        3    local potential                                                             
   LCOR   =        T    correct aug charges                                                         
   LPAW   =        T    paw PP                                                                      
   EAUG   =  446.842                                                                                
   DEXC   =    0.000                                                                                
   RMAX   =    2.147    core radius for proj-oper                                                   
   RAUG   =    1.300    factor for augmentation sphere                                              
   RDEP   =    2.177    radius for radial grids                                                     
   RDEPT  =    1.928    core radius for aug-charge                                                  
                                                                                                    
   Atomic configuration                                                                             
   10 entries                                                                                       
     n  l   j            E        occ.                                                              
     1  0  0.50    -12503.4787   2.0000                                                             
     2  0  0.50     -1606.9547   2.0000                                                             
     2  1  1.50     -1413.3140   6.0000                                                             
     3  0  0.50      -213.4885   2.0000                                                             
     3  1  1.50      -152.9538   6.0000                                                             
     3  2  2.50       -53.1221  10.0000                                                             
     4  0  0.50       -17.2865   2.0000                                                             
     4  1  0.50        -6.5110   4.0000                                                             
     4  2  2.50        -6.8029   0.0000                                                             
     4  3  2.50        -6.8029   0.0000                                                             
   Description                                                                                      
     l       E           TYP  RCUT    TYP  RCUT                                                     
     0    -17.2865377     23  2.100                                                                 
     0    -15.3094411     23  2.100                                                                 
     1     -6.5110275     23  2.100                                                                 
     1     -0.0695192     23  2.100                                                                 
     2     -6.8029130     23  2.100                                                                 
     3     -1.3605826      7  2.100                                                                 
  local pseudopotential read in
  partial core-charges read in
  partial kinetic energy density read in
  atomic valenz-charges read in
  non local Contribution for L=            0  read in
    real space projection operators read in
  non local Contribution for L=            0  read in
    real space projection operators read in
  non local Contribution for L=            1  read in
    real space projection operators read in
  non local Contribution for L=            1  read in
    real space projection operators read in
  non local Contribution for L=            2  read in
    real space projection operators read in
    PAW grid and wavefunctions read in
 
   number of l-projection  operators is LMAX  =            5
   number of lm-projection operators is LMMAX =           13
 
 -----------------------------------------------------------------------------
|                                                                             |
|               ----> ADVICE to this user running VASP <----                  |
|                                                                             |
|     You have a (more or less) 'large supercell' and for larger cells it     |
|     might be more efficient to use real-space projection operators.         |
|     Therefore, try LREAL= Auto in the INCAR file.                           |
|     Mind: For very accurate calculation, you might also keep the            |
|     reciprocal projection scheme (i.e. LREAL=.FALSE.).                      |
|                                                                             |
 -----------------------------------------------------------------------------

  PAW_PBE Ge 05Jan2001                  :
 energy of atom  1       EATOM= -104.9960
 kinetic energy error for atom=    0.0002 (will be added to EATOM!!)
  PAW_PBE Se 06Sep2000                  :
 energy of atom  2       EATOM= -257.1286
 kinetic energy error for atom=    0.0007 (will be added to EATOM!!)
 
 
 POSCAR: Ge Se
  positions in cartesian coordinates
  No initial velocities read in
 exchange correlation table for  LEXCH =        8
   RHO(1)=    0.500       N(1)  =     2000
   RHO(2)=  100.500       N(2)  =     4000
 


--------------------------------------------------------------------------------------------------------


 ion  position               nearest neighbor table
   1  0.043  0.027  0.135-  55 2.52  45 2.55
   2  0.259  0.889  0.372-  48 2.55  67 2.56  45 2.59
   3  0.577  0.215  0.371-  68 2.48  56 2.64  49 2.68
   4  0.550  0.507  0.379-  49 2.43  69 2.66  50 2.74
   5  0.564  0.877  0.404-  44 2.72  70 2.72  48 2.75
   6  0.893  0.197  0.379-  55 2.48  46 2.74  56 2.75
   7  0.901  0.553  0.374-  71 2.60  72 2.62  47 2.77
   8  0.873  0.850  0.359-  72 2.55  53 2.56  44 2.73
   9  0.073  0.138  0.629-  37 2.51  57 2.56  51 2.69
  10  0.090  0.478  0.624-  38 2.61  43 2.63  58 2.65
  11  0.078  0.805  0.631-  39 2.49  52 2.56  59 2.56
  12  0.398  0.147  0.625-  60 2.55  51 2.60  40 2.85
  13  0.399  0.483  0.633-  38 2.61  41 2.68  61 2.76
  14  0.409  0.806  0.635-  62 2.58  39 2.61  42 2.63
  15  0.747  0.152  0.631-  63 2.53  40 2.64  37 2.69
  16  0.746  0.490  0.619-  64 2.57  43 2.63  41 2.76
  17  0.241  0.564  0.379-  66 2.55  47 2.57  50 2.63
  18  0.215  0.178  0.374-  54 2.55  45 2.66  46 2.80
  19  0.754  0.807  0.623-  65 2.58  52 2.72  42 2.75
  20  0.921  0.637  0.862-  52 2.55  64 2.65  58 2.71
  21  0.921  0.972  0.866-  65 2.48  59 2.57  37 2.67
  22  0.063  0.357  0.143-  46 2.57  71 2.69
  23  0.063  0.705  0.142-  47 2.35  53 2.62  67 2.79
  24  0.412  0.062  0.129-  48 2.54  68 2.58  54 2.63
  25  0.378  0.372  0.119-  49 2.58  66 2.59  54 2.79
  26  0.717  0.029  0.130-  44 2.53  68 2.59  55 2.75
  27  0.746  0.380  0.107-  71 2.61  56 2.65  69 2.81
  28  0.386  0.710  0.127-  67 2.42  50 2.65
  29  0.239  0.317  0.869-  57 2.60  38 2.62  60 2.71
  30  0.229  0.613  0.912-  58 2.46  61 2.51
  31  0.241  0.977  0.878-  51 2.57  59 2.68  62 2.69
  32  0.579  0.321  0.866-  41 2.49  63 2.63
  33  0.583  0.642  0.874-  42 2.49  64 2.78
  34  0.572  0.977  0.862-  62 2.53  40 2.63
  35  0.912  0.309  0.868-  63 2.64  43 2.65  57 2.71
  36  0.699  0.678  0.103-  69 2.54  70 2.61  72 2.75
  37  0.914  0.015  0.629-   9 2.51  21 2.67  15 2.69
  38  0.247  0.340  0.633-  10 2.61  13 2.61  29 2.62
  39  0.237  0.686  0.651-  11 2.49  14 2.61
  40  0.585  0.017  0.629-  34 2.63  15 2.64  12 2.85
  41  0.572  0.356  0.645-  32 2.49  13 2.68  16 2.76
  42  0.576  0.679  0.652-  33 2.49  14 2.63  19 2.75
  43  0.914  0.362  0.636-  16 2.63  10 2.63  35 2.65
  44  0.729  0.015  0.358-  26 2.53   5 2.72   8 2.73
  45  0.088  0.007  0.359-   1 2.55   2 2.59  18 2.66
  46  0.060  0.340  0.374-  22 2.57   6 2.74  18 2.80
  47  0.077  0.687  0.354-  23 2.35  17 2.57   7 2.77
  48  0.409  0.027  0.355-  24 2.54   2 2.55   5 2.75
  49  0.423  0.363  0.347-   4 2.43  25 2.58   3 2.68
  50  0.416  0.680  0.362-  17 2.63  28 2.65   4 2.74
  51  0.244  0.007  0.648-  31 2.57  12 2.60   9 2.69
  52  0.923  0.670  0.634-  20 2.55  11 2.56  19 2.72
  53  0.904  0.841  0.131-   8 2.56  23 2.62
  54  0.247  0.192  0.147-  18 2.55  24 2.63  25 2.79
  55  0.892  0.160  0.159-   6 2.48   1 2.52  26 2.75
  56  0.738  0.351  0.344-   3 2.64  27 2.65   6 2.75
  57  0.085  0.178  0.856-   9 2.56  29 2.60  35 2.71
  58  0.081  0.490  0.863-  30 2.46  10 2.65  20 2.71
  59  0.078  0.838  0.860-  11 2.56  21 2.57  31 2.68
  60  0.400  0.172  0.855-  12 2.55  29 2.71
  61  0.396  0.504  0.881-  30 2.51  13 2.76
  62  0.415  0.850  0.863-  34 2.53  14 2.58  31 2.69
  63  0.741  0.185  0.856-  15 2.53  32 2.63  35 2.64
  64  0.757  0.503  0.851-  16 2.57  20 2.65  33 2.78
  65  0.765  0.848  0.852-  21 2.48  19 2.58
  66  0.232  0.516  0.155-  17 2.55  25 2.59
  67  0.242  0.839  0.148-  28 2.42   2 2.56  23 2.79
  68  0.579  0.184  0.149-   3 2.48  24 2.58  26 2.59
  69  0.573  0.522  0.140-  36 2.54   4 2.66  27 2.81
  70  0.576  0.839  0.162-  36 2.61   5 2.72
  71  0.909  0.508  0.144-   7 2.60  27 2.61  22 2.69
  72  0.745  0.692  0.347-   8 2.55   7 2.62  36 2.75
 

IMPORTANT INFORMATION: All symmetrisations will be switched off!
NOSYMM: (Re-)initialisation of all symmetry stuff for point group C_1.


----------------------------------------------------------------------------------------

                                     Primitive cell                                     

  volume of cell :    1719.4648

  direct lattice vectors                    reciprocal lattice vectors
    12.440389770 -0.000001077 -0.000002440     0.080383334  0.000000007  0.000000020
    -0.000001082 12.503535054  0.000001446     0.000000007  0.079977382 -0.000000012
    -0.000002791  0.000001645 11.054178564     0.000000018 -0.000000010  0.090463529

  length of vectors
    12.440389770 12.503535054 11.054178564     0.080383334  0.079977382  0.090463529

  position of ions in fractional coordinates (direct lattice)
     0.042588924  0.026928141  0.135243212
     0.258822081  0.889330048  0.371766729
     0.577176444  0.214575115  0.370553411
     0.550246152  0.507413703  0.378760861
     0.564263302  0.876863477  0.403939602
     0.893145972  0.197436227  0.379272206
     0.900898580  0.552891187  0.374235419
     0.873161988  0.850097972  0.359441251
     0.072650052  0.137943941  0.628635633
     0.089994676  0.477724027  0.624020375
     0.077734033  0.805437119  0.630861877
     0.397590128  0.147105172  0.625369980
     0.398762354  0.482993213  0.632799492
     0.408578703  0.806097598  0.634699104
     0.747269898  0.152111065  0.630523251
     0.746250740  0.489742136  0.618645351
     0.240761673  0.563645039  0.379109351
     0.215132888  0.178169710  0.373883322
     0.754161962  0.807347995  0.622644761
     0.920855724  0.637415189  0.861722360
     0.920773929  0.971629729  0.865534100
     0.062688238  0.356859702  0.142552074
     0.062991679  0.704595028  0.142489510
     0.412416664  0.062127095  0.128860488
     0.377573142  0.371611830  0.119376499
     0.716735012  0.029224651  0.130360734
     0.746083193  0.380497179  0.106790026
     0.386099438  0.709821894  0.127288420
     0.239295359  0.317497468  0.869115895
     0.228604245  0.612709412  0.912132140
     0.240589374  0.976792459  0.877917317
     0.579276446  0.320592708  0.865668348
     0.583282793  0.641514077  0.873560627
     0.572465730  0.977479440  0.862106641
     0.911844527  0.309178687  0.867714213
     0.699354082  0.678189208  0.103365651
     0.913599559  0.014872746  0.629225079
     0.246579371  0.339581065  0.633487381
     0.236972644  0.686443915  0.651428105
     0.584870119  0.016512965  0.629140436
     0.571621184  0.355936434  0.644572117
     0.576446734  0.679296672  0.652318790
     0.913617730  0.361632334  0.635662434
     0.728648564  0.014668212  0.358450165
     0.088126727  0.007367873  0.358843777
     0.059649541  0.340462966  0.374311563
     0.077082732  0.687289919  0.353580319
     0.408686047  0.027321569  0.355036438
     0.422912587  0.362623239  0.346715313
     0.415747241  0.680305320  0.361872461
     0.244010298  0.007323197  0.647767465
     0.923393390  0.670410402  0.634176681
     0.904323226  0.841494884  0.130684462
     0.246902198  0.192226262  0.146742985
     0.892446948  0.160311448  0.159093765
     0.737803073  0.350923781  0.343753766
     0.084767685  0.177957750  0.855700405
     0.080576959  0.490215923  0.862845345
     0.077536299  0.837765972  0.859617359
     0.400245491  0.171954174  0.854766108
     0.396457145  0.504166605  0.881142499
     0.414578900  0.849787564  0.862781237
     0.740711137  0.184666358  0.856404811
     0.756683480  0.502975348  0.850765609
     0.765454195  0.847942083  0.851520029
     0.232480397  0.516360855  0.155126852
     0.242159805  0.838885656  0.148170674
     0.578837301  0.184032783  0.148976956
     0.573048412  0.522070857  0.140294604
     0.576012118  0.838916417  0.161633547
     0.908839346  0.508419859  0.144380362
     0.744880781  0.691585312  0.346500934

  ion indices of the primitive-cell ions
   primitive index   ion index
                 1           1
                 2           2
                 3           3
                 4           4
                 5           5
                 6           6
                 7           7
                 8           8
                 9           9
                10          10
                11          11
                12          12
                13          13
                14          14
                15          15
                16          16
                17          17
                18          18
                19          19
                20          20
                21          21
                22          22
                23          23
                24          24
                25          25
                26          26
                27          27
                28          28
                29          29
                30          30
                31          31
                32          32
                33          33
                34          34
                35          35
                36          36
                37          37
                38          38
                39          39
                40          40
                41          41
                42          42
                43          43
                44          44
                45          45
                46          46
                47          47
                48          48
                49          49
                50          50
                51          51
                52          52
                53          53
                54          54
                55          55
                56          56
                57          57
                58          58
                59          59
                60          60
                61          61
                62          62
                63          63
                64          64
                65          65
                66          66
                67          67
                68          68
                69          69
                70          70
                71          71
                72          72

----------------------------------------------------------------------------------------

 
 
 KPOINTS: KPOINTS created by Atomic Simulation Env

Automatic generation of k-mesh.
 Grid dimensions read from file:
 generate k-points for:    2    2    2

 Generating k-lattice:

  Cartesian coordinates                     Fractional coordinates (reciprocal lattice)
     0.040191667  0.000000003  0.000000010     0.500000000 -0.000000000  0.000000000
     0.000000003  0.039988691 -0.000000006     0.000000000  0.500000000  0.000000000
     0.000000009 -0.000000005  0.045231764     0.000000000  0.000000000  0.500000000

  Length of vectors
     0.040191667  0.039988691  0.045231764

  Shift w.r.t. Gamma in fractional coordinates (k-lattice)
     0.000000000  0.000000000  0.000000000

 
 Subroutine IBZKPT returns following result:
 ===========================================
 
 Found      8 irreducible k-points:
 
 Following reciprocal coordinates:
            Coordinates               Weight
  0.000000  0.000000  0.000000      1.000000
  0.500000  0.000000  0.000000      1.000000
  0.000000  0.500000  0.000000      1.000000
  0.500000  0.500000  0.000000      1.000000
  0.000000  0.000000  0.500000      1.000000
  0.500000  0.000000  0.500000      1.000000
  0.000000  0.500000  0.500000      1.000000
  0.500000  0.500000  0.500000      1.000000
 
 Following cartesian coordinates:
            Coordinates               Weight
  0.000000  0.000000  0.000000      1.000000
  0.040192  0.000000  0.000000      1.000000
  0.000000  0.039989 -0.000000      1.000000
  0.040192  0.039989  0.000000      1.000000
  0.000000 -0.000000  0.045232      1.000000
  0.040192 -0.000000  0.045232      1.000000
  0.000000  0.039989  0.045232      1.000000
  0.040192  0.039989  0.045232      1.000000
 
 -----------------------------------------------------------------------------
|                                                                             |
|           W    W    AA    RRRRR   N    N  II  N    N   GGGG   !!!           |
|           W    W   A  A   R    R  NN   N  II  NN   N  G    G  !!!           |
|           W    W  A    A  R    R  N N  N  II  N N  N  G       !!!           |
|           W WW W  AAAAAA  RRRRR   N  N N  II  N  N N  G  GGG   !            |
|           WW  WW  A    A  R   R   N   NN  II  N   NN  G    G                |
|           W    W  A    A  R    R  N    N  II  N    N   GGGG   !!!           |
|                                                                             |
|     The number of bands has been changed from the values supplied in        |
|     the INCAR file. This is a result of running the parallel version.       |
|     The orbitals not found in the WAVECAR file will be initialized with     |
|     random numbers, which is usually adequate. For correlated               |
|     calculations, however, you should redo the groundstate calculation.     |
|     I found NBANDS = 220. Now, NBANDS = 224.                                |
|                                                                             |
 -----------------------------------------------------------------------------



--------------------------------------------------------------------------------------------------------




 Dimension of arrays:
   k-points           NKPTS =      8   k-points in BZ     NKDIM =      8   number of bands    NBANDS=    224
   number of dos      NEDOS =    301   number of ions     NIONS =     72
   non local maximal  LDIM  =      5   non local SUM 2l+1 LMDIM =     13
   total plane-waves  NPLWV = 774144
   max r-space proj   IRMAX =      1   max aug-charges    IRDMAX=  24666
   dimension x,y,z NGX =    96 NGY =   96 NGZ =   84
   dimension x,y,z NGXF=   192 NGYF=  192 NGZF=  168
   support grid    NGXF=   192 NGYF=  192 NGZF=  168
   ions per type =              36  36
   NGX,Y,Z   is equivalent  to a cutoff of  12.83, 12.76, 12.63 a.u.
   NGXF,Y,Z  is equivalent  to a cutoff of  25.66, 25.53, 25.27 a.u.

 SYSTEM =  01_AOPT                                 
 POSCAR =  Ge Se                                   

 Startparameter for this run:
   NWRITE =      2    write-flag & timer
   PREC   = accura    normal or accurate (medium, high low for compatibility)
   ISTART =      0    job   : 0-new  1-cont  2-samecut
   ICHARG =      2    charge: 1-file 2-atom 10-const
   ISPIN  =      2    spin polarized calculation?
   LNONCOLLINEAR =      F non collinear calculations
   LSORBIT =      F    spin-orbit coupling
   INIWAV =      1    electr: 0-lowe 1-rand  2-diag
   LASPH  =      T    aspherical Exc in radial PAW
 Electronic Relaxation 1
   ENCUT  =  520.0 eV  38.22 Ry    6.18 a.u.  23.13 23.25 20.55*2*pi/ulx,y,z
   ENINI  =  520.0     initial cutoff
   ENAUG  =  446.8 eV  augmentation charge cutoff
   NELM   =    100;   NELMIN=  5; NELMDL=  0     # of ELM steps 
   EDIFF  = 0.1E-05   stopping-criterion for ELM
   LREAL  =      F    real-space projection
   NLSPLINE    = F    spline interpolate recip. space projectors
   LCOMPAT=      F    compatible to vasp.4.4
   GGA_COMPAT  = T    GGA compatible to vasp.4.4-vasp.4.6
   LMAXPAW     = -100 max onsite density
   LMAXMIX     =    2 max onsite mixed and CHGCAR
   VOSKOWN=      0    Vosko Wilk Nusair interpolation
   ROPT   =    0.00000   0.00000
 Ionic relaxation
   EDIFFG = 0.1E-04   stopping-criterion for IOM
   NSW    =      0    number of steps for IOM
   NBLOCK =      1;   KBLOCK =      1    inner block; outer block 
   IBRION =     -1    ionic relax: 0-MD 1-quasi-New 2-CG
   NFREE  =      0    steps in history (QN), initial steepest desc. (CG)
   ISIF   =      2    stress and relaxation
   IWAVPR =     10    prediction:  0-non 1-charg 2-wave 3-comb
   ISYM   =     -1    0-nonsym 1-usesym 2-fastsym
   LCORR  =      T    Harris-Foulkes like correction to forces

   POTIM  = 0.5000    time-step for ionic-motion
   TEIN   =    0.0    initial temperature
   TEBEG  =    0.0;   TEEND  =   0.0 temperature during run
   SMASS  =  -3.00    Nose mass-parameter (am)
   estimated Nose-frequenzy (Omega)   =  0.10E-29 period in steps = 0.13E+47 mass=  -0.354E-26a.u.
   SCALEE = 1.0000    scale energy and forces
   NPACO  =    256;   APACO  = 10.0  distance and # of slots for P.C.
   PSTRESS=    0.0 pullay stress

  Mass of Ions in am
   POMASS =  72.61 78.96
  Ionic Valenz
   ZVAL   =   4.00  6.00
  Atomic Wigner-Seitz radii
   RWIGS  =  -1.00 -1.00
  virtual crystal weights 
   VCA    =   1.00  1.00
   NELECT =     360.0000    total number of electrons
   NUPDOWN=      -1.0000    fix difference up-down

 DOS related values:
   EMIN   =  10.00;   EMAX   =-10.00  energy-range for DOS
   EFERMI =   0.00;   METHOD = LEGACY      
   ISMEAR =     0;   SIGMA  =   0.05  broadening in eV -4-tet -1-fermi 0-gaus

 Electronic relaxation 2 (details)
   IALGO  =     38    algorithm
   LDIAG  =      T    sub-space diagonalisation (order eigenvalues)
   LSUBROT=      F    optimize rotation matrix (better conditioning)
   TURBO    =      0    0=normal 1=particle mesh
   IRESTART =      0    0=no restart 2=restart with 2 vectors
   NREBOOT  =      0    no. of reboots
   NMIN     =      0    reboot dimension
   EREF     =   0.00    reference energy to select bands
   IMIX   =      4    mixing-type and parameters
     AMIX     =   0.40;   BMIX     =  1.00
     AMIX_MAG =   1.60;   BMIX_MAG =  1.00
     AMIN     =   0.10
     WC   =   100.;   INIMIX=   1;  MIXPRE=   1;  MAXMIX= -45

 Intra band minimization:
   WEIMIN = 0.0000     energy-eigenvalue tresh-hold
   EBREAK =  0.11E-08  absolut break condition
   DEPER  =   0.30     relativ break condition  

   TIME   =   0.40     timestep for ELM

  volume/ion in A,a.u.               =      23.88       161.16
  Fermi-wavevector in a.u.,A,eV,Ry     =   0.972101  1.837004 12.857229  0.944980
  Thomas-Fermi vector in A             =   2.102372
 
 Write flags
   LWAVE        =      F    write WAVECAR
   LDOWNSAMPLE  =      F    k-point downsampling of WAVECAR
   LCHARG       =      F    write CHGCAR
   LVTOT        =      F    write LOCPOT, total local potential
   LVHAR        =      F    write LOCPOT, Hartree potential only
   LELF         =      F    write electronic localiz. function (ELF)
   LORBIT       =     11    0 simple, 1 ext, 2 COOP (PROOUT), +10 PAW based schemes


 Dipole corrections
   LMONO  =      F    monopole corrections only (constant potential shift)
   LDIPOL =      F    correct potential (dipole corrections)
   IDIPOL =      0    1-x, 2-y, 3-z, 4-all directions 
   EPSILON=  1.0000000 bulk dielectric constant

 Exchange correlation treatment:
   GGA     =    PE    GGA type
   LEXCH   =     8    internal setting for exchange type
   LIBXC   =     F    Libxc                    
   VOSKOWN =     0    Vosko Wilk Nusair interpolation
   LHFCALC =     F    Hartree Fock is set to
   LHFONE  =     F    Hartree Fock one center treatment
   AEXX    =    0.0000 exact exchange contribution

 Linear response parameters
   LEPSILON=     F    determine dielectric tensor
   LRPA    =     F    only Hartree local field effects (RPA)
   LNABLA  =     F    use nabla operator in PAW spheres
   LVEL    =     F    velocity operator in full k-point grid
   CSHIFT  =0.1000    complex shift for real part using Kramers Kronig
   OMEGAMAX=  -1.0    maximum frequency
   DEG_THRESHOLD= 0.2000000E-02 threshold for treating states as degnerate
   RTIME   =   -0.100 relaxation time in fs
  (WPLASMAI=    0.000 imaginary part of plasma frequency in eV, 0.658/RTIME)
   DFIELD  = 0.0000000 0.0000000 0.0000000 field for delta impulse in time
 
  Optional k-point grid parameters
   LKPOINTS_OPT  =     F    use optional k-point grid
   KPOINTS_OPT_MODE=     1    mode for optional k-point grid
 
 Orbital magnetization related:
   ORBITALMAG=     F  switch on orbital magnetization
   LCHIMAG   =     F  perturbation theory with respect to B field
   DQ        =  0.001000  dq finite difference perturbation B field
   LLRAUG    =     F  two centre corrections for induced B field
   LBONE     =     F  B-component reconstruction in AE one-centre
   LVGVCALC  =     T  calculate vGv susceptibility
   LVGVAPPL  =     F  apply vGv susceptibility instead of pGv for G=0

 Random number generation:
   RANDOM_GENERATOR = DEFAULT
   PCG_SEED         = not used


--------------------------------------------------------------------------------------------------------


 Static calculation
 charge density and potential will be updated during run
 spin polarized calculation
 Variant of blocked Davidson
 Davidson routine will perform the subspace rotation
 perform sub-space diagonalisation
    after iterative eigenvector-optimisation
 modified Broyden-mixing scheme, WC =      100.0
 initial mixing is a Kerker type mixing with AMIX =  0.4000 and BMIX =      1.0000
 Hartree-type preconditioning will be used
 using additional bands            44
 reciprocal scheme for non local part
 use partial core corrections
 calculate Harris-corrections to forces 
   (improved forces if not selfconsistent)
 use gradient corrections 
 use of overlap-Matrix (Vanderbilt PP)
 Gauss-broadening in eV      SIGMA  =   0.05


--------------------------------------------------------------------------------------------------------


  energy-cutoff  :      520.00
  volume of cell :     1719.46
      direct lattice vectors                 reciprocal lattice vectors
    12.440389770 -0.000001077 -0.000002440     0.080383334  0.000000007  0.000000020
    -0.000001082 12.503535054  0.000001446     0.000000007  0.079977382 -0.000000012
    -0.000002791  0.000001645 11.054178564     0.000000018 -0.000000010  0.090463529

  length of vectors
    12.440389770 12.503535054 11.054178564     0.080383334  0.079977382  0.090463529


 
 k-points in units of 2pi/SCALE and weight: KPOINTS created by Atomic Simulation Env
   0.00000000  0.00000000  0.00000000       0.125
   0.04019167  0.00000000  0.00000001       0.125
   0.00000000  0.03998869 -0.00000001       0.125
   0.04019167  0.03998869  0.00000000       0.125
   0.00000001 -0.00000001  0.04523176       0.125
   0.04019168 -0.00000000  0.04523177       0.125
   0.00000001  0.03998869  0.04523176       0.125
   0.04019168  0.03998869  0.04523177       0.125
 
 k-points in reciprocal lattice and weights: KPOINTS created by Atomic Simulation Env
   0.00000000  0.00000000  0.00000000       0.125
   0.50000000  0.00000000  0.00000000       0.125
   0.00000000  0.50000000  0.00000000       0.125
   0.50000000  0.50000000  0.00000000       0.125
   0.00000000  0.00000000  0.50000000       0.125
   0.50000000  0.00000000  0.50000000       0.125
   0.00000000  0.50000000  0.50000000       0.125
   0.50000000  0.50000000  0.50000000       0.125
 
 position of ions in fractional coordinates (direct lattice) 
   0.04258892  0.02692814  0.13524321
   0.25882208  0.88933005  0.37176673
   0.57717644  0.21457512  0.37055341
   0.55024615  0.50741370  0.37876086
   0.56426330  0.87686348  0.40393960
   0.89314597  0.19743623  0.37927221
   0.90089858  0.55289119  0.37423542
   0.87316199  0.85009797  0.35944125
   0.07265005  0.13794394  0.62863563
   0.08999468  0.47772403  0.62402038
   0.07773403  0.80543712  0.63086188
   0.39759013  0.14710517  0.62536998
   0.39876235  0.48299321  0.63279949
   0.40857870  0.80609760  0.63469910
   0.74726990  0.15211106  0.63052325
   0.74625074  0.48974214  0.61864535
   0.24076167  0.56364504  0.37910935
   0.21513289  0.17816971  0.37388332
   0.75416196  0.80734799  0.62264476
   0.92085572  0.63741519  0.86172236
   0.92077393  0.97162973  0.86553410
   0.06268824  0.35685970  0.14255207
   0.06299168  0.70459503  0.14248951
   0.41241666  0.06212709  0.12886049
   0.37757314  0.37161183  0.11937650
   0.71673501  0.02922465  0.13036073
   0.74608319  0.38049718  0.10679003
   0.38609944  0.70982189  0.12728842
   0.23929536  0.31749747  0.86911589
   0.22860424  0.61270941  0.91213214
   0.24058937  0.97679246  0.87791732
   0.57927645  0.32059271  0.86566835
   0.58328279  0.64151408  0.87356063
   0.57246573  0.97747944  0.86210664
   0.91184453  0.30917869  0.86771421
   0.69935408  0.67818921  0.10336565
   0.91359956  0.01487275  0.62922508
   0.24657937  0.33958106  0.63348738
   0.23697264  0.68644391  0.65142810
   0.58487012  0.01651297  0.62914044
   0.57162118  0.35593643  0.64457212
   0.57644673  0.67929667  0.65231879
   0.91361773  0.36163233  0.63566243
   0.72864856  0.01466821  0.35845016
   0.08812673  0.00736787  0.35884378
   0.05964954  0.34046297  0.37431156
   0.07708273  0.68728992  0.35358032
   0.40868605  0.02732157  0.35503644
   0.42291259  0.36262324  0.34671531
   0.41574724  0.68030532  0.36187246
   0.24401030  0.00732320  0.64776747
   0.92339339  0.67041040  0.63417668
   0.90432323  0.84149488  0.13068446
   0.24690220  0.19222626  0.14674299
   0.89244695  0.16031145  0.15909377
   0.73780307  0.35092378  0.34375377
   0.08476769  0.17795775  0.85570040
   0.08057696  0.49021592  0.86284534
   0.07753630  0.83776597  0.85961736
   0.40024549  0.17195417  0.85476611
   0.39645715  0.50416661  0.88114250
   0.41457890  0.84978756  0.86278124
   0.74071114  0.18466636  0.85640481
   0.75668348  0.50297535  0.85076561
   0.76545420  0.84794208  0.85152003
   0.23248040  0.51636086  0.15512685
   0.24215980  0.83888566  0.14817067
   0.57883730  0.18403278  0.14897696
   0.57304841  0.52207086  0.14029460
   0.57601212  0.83891642  0.16163355
   0.90883935  0.50841986  0.14438036
   0.74488078  0.69158531  0.34650093
 
 position of ions in cartesian coordinates  (Angst):
   0.52982240  0.33669713  1.49500255
   3.21984556 11.11976976  4.10957647
   7.18029866  2.68294746  4.09616247
   6.84527499  6.34446505  4.18688958
   7.01965334 10.96389328  4.46522038
  11.11108273  2.46865045  4.19254079
  11.20752784  6.91309399  4.13686375
  10.86247353 10.62922945  3.97332687
   0.90379305  1.72478786  6.94905056
   1.11956659  5.97324004  6.89803313
   0.96703904 10.07081221  6.97366082
   4.94617425  1.83933527  6.91295067
   4.96075682  6.03912318  6.99507831
   5.08287568 10.07907017  7.01607739
   9.29632686  1.90192627  6.96991500
   9.28364782  6.12350818  6.83861507
   2.99516738  7.04755586  4.19074269
   2.67633574  2.22775159  4.13297274
   9.38206614 10.09470416  6.88282570
  11.45580103  7.96994358  9.52563151
  11.45478310 12.14880681  9.56776765
   0.77986533  4.46200796  1.57579644
   0.78363988  8.80992880  1.57510535
   5.13062363  0.77680807  1.42444593
   4.69715632  4.64646133  1.31960875
   8.91646252  0.36541089  1.44102912
   9.28156501  4.75755918  1.18047474
   4.80322637  8.87528273  1.40706901
   2.97692477  3.96984189  9.60736217
   2.84392270  7.66103487 10.08287188
   2.99302207 12.21335994  9.70465562
   7.20642201  4.00854296  9.56925155
   7.25626216  8.02119455  9.65649466
   7.12169335 12.22194925  9.52988077
  11.34369857  3.86582699  9.59186607
   8.70023634  8.47976195  1.14262164
  11.36553284  0.18596195  6.95556417
   3.06754135  4.24596453  7.00268251
   2.94802950  8.58297637  7.20100300
   7.27601047  0.20647085  6.95462932
   7.11118815  4.45046412  7.12521440
   7.17121950  8.49361020  7.21084796
  11.36575850  4.52168262  7.02672434
   9.06467113  0.18340431  3.96237037
   1.09632982  0.09212496  3.96672299
   0.74206213  4.25699118  4.13770720
   0.95893750  8.59355410  3.90854078
   5.08421270  0.34161635  3.92463522
   5.26119606  4.53407249  3.83265247
   5.17205597  8.50622157  4.00020277
   3.03558140  0.09156665  7.16053665
  11.48737119  8.38250002  7.01030099
  11.25013214 10.52166002  1.44460839
   3.07155896  2.40350778  1.62212284
  11.10238727  2.00445911  1.75864895
   9.17855647  4.38778757  3.79991422
   1.05454046  2.22510228  9.45906512
   1.00240583  6.12943331  9.53804703
   0.96457848 10.47503753  9.50236481
   4.97920735  2.15003601  9.44873646
   4.93207841  6.30386584  9.74030628
   5.15751978 10.62534957  9.53733807
   9.21473266  2.30898289  9.46685016
   9.41343450  6.28897049  9.40451384
   9.52254524 10.60227413  9.41285381
   2.89214577  6.45633606  1.71480010
   3.01256104 10.48903619  1.63790571
   7.20096102  2.30105998  1.64681673
   7.12894465  6.52773087  1.55084096
   7.16581390 10.48942048  1.78672590
  11.30631475  6.35704479  1.59600482
   9.26660553  8.64726096  3.83028238
 


--------------------------------------------------------------------------------------------------------


 k-point   1 :   0.0000 0.0000 0.0000  plane waves:   46249
 k-point   2 :   0.5000 0.0000 0.0000  plane waves:   46318
 k-point   3 :   0.0000 0.5000 0.0000  plane waves:   46266
 k-point   4 :   0.5000 0.5000 0.0000  plane waves:   46396
 k-point   5 :   0.0000 0.0000 0.5000  plane waves:   46274
 k-point   6 :   0.5000 0.0000 0.5000  plane waves:   46284
 k-point   7 :   0.0000 0.5000 0.5000  plane waves:   46312
 k-point   8 :   0.5000 0.5000 0.5000  plane waves:   46288

 maximum and minimum number of plane-waves per node :      5868     5735

 maximum number of plane-waves:     46396
 maximum index in each direction: 
   IXMAX=   23   IYMAX=   23   IZMAX=   20
   IXMIN=  -23   IYMIN=  -23   IZMIN=  -21


 parallel 3D FFT for wavefunctions:
    minimum data exchange during FFTs selected (reduces bandwidth)
 parallel 3D FFT for charge:
    minimum data exchange during FFTs selected (reduces bandwidth)


 total amount of memory used by VASP MPI-rank0   110605. kBytes
=======================================================================

   base      :      30000. kBytes
   nonl-proj :      16310. kBytes
   fftplans  :       6179. kBytes
   grid      :      15593. kBytes
   one-center:        146. kBytes
   wavefun   :      42377. kBytes
 
     INWAV:  cpu time      0.0000: real time      0.0001
 Broyden mixing: mesh for mixing (old mesh)
   NGX = 47   NGY = 47   NGZ = 41
  (NGX  =192   NGY  =192   NGZ  =168)
  gives a total of  90569 points

 initial charge density was supplied:
 charge density of overlapping atoms calculated
 number of electron     360.0000000 magnetization      72.0000000
 keeping initial charge density in first step


--------------------------------------------------------------------------------------------------------


 Maximum index for augmentation-charges           871 (set IRDMAX)


--------------------------------------------------------------------------------------------------------


 First call to EWALD:  gamma=   0.148
 Maximum number of real-space cells 3x 3x 3
 Maximum number of reciprocal cells 3x 3x 3

    FEWALD:  cpu time      0.0061: real time      0.0061


--------------------------------------- Ionic step        1  -------------------------------------------




--------------------------------------- Iteration      1(   1)  ---------------------------------------


    POTLOK:  cpu time      0.1400: real time      0.1410
    SETDIJ:  cpu time      0.6017: real time      0.6123
     EDDAV:  cpu time      8.6640: real time      8.7128
       DOS:  cpu time      0.0016: real time      0.0016
    --------------------------------------------
      LOOP:  cpu time      9.4073: real time      9.4677

 eigenvalue-minimisations  :  7168
 total energy-change (2. order) : 0.1818048E+04  (-0.1419577E+05)
 number of electron     360.0000000 magnetization      72.0000000
 augmentation part      360.0000000 magnetization      72.0000000

 Free energy of the ion-electron system (eV)
  ---------------------------------------------------
  alpha Z        PSCENC =       798.21355673
  Ewald energy   TEWEN  =    -12870.96429228
  -Hartree energ DENC   =     -1108.41997173
  -exchange      EXHF   =         0.00000000
  -V(xc)+E(xc)   XCENC  =      -293.48145338
  PAW double counting   =     10738.42099860    -9719.93139476
  entropy T*S    EENTRO =        -0.02240850
  eigenvalues    EBANDS =      1237.78155925
  atomic energy  EATOM  =     13036.45147835
  Solvation  Ediel_sol  =         0.00000000
  ---------------------------------------------------
  free energy    TOTEN  =      1818.04807227 eV

  energy without entropy =     1818.07048077  energy(sigma->0) =     1818.05927652


--------------------------------------------------------------------------------------------------------




--------------------------------------- Iteration      1(   2)  ---------------------------------------


     EDDAV:  cpu time      9.7718: real time      9.8303
       DOS:  cpu time      0.0015: real time      0.0015
    --------------------------------------------
      LOOP:  cpu time      9.7733: real time      9.8318

 eigenvalue-minimisations  :  8472
 total energy-change (2. order) :-0.1881415E+04  (-0.1805962E+04)
 number of electron     360.0000000 magnetization      72.0000000
 augmentation part      360.0000000 magnetization      72.0000000

 Free energy of the ion-electron system (eV)
  ---------------------------------------------------
  alpha Z        PSCENC =       798.21355673
  Ewald energy   TEWEN  =    -12870.96429228
  -Hartree energ DENC   =     -1108.41997173
  -exchange      EXHF   =         0.00000000
  -V(xc)+E(xc)   XCENC  =      -293.48145338
  PAW double counting   =     10738.42099860    -9719.93139476
  entropy T*S    EENTRO =        -0.01862606
  eigenvalues    EBANDS =      -643.63704808
  atomic energy  EATOM  =     13036.45147835
  Solvation  Ediel_sol  =         0.00000000
  ---------------------------------------------------
  free energy    TOTEN  =       -63.36675261 eV

  energy without entropy =      -63.34812655  energy(sigma->0) =      -63.35743958


--------------------------------------------------------------------------------------------------------




--------------------------------------- Iteration      1(   3)  ---------------------------------------


     EDDAV:  cpu time      9.8987: real time      9.9467
       DOS:  cpu time      0.0012: real time      0.0012
    --------------------------------------------
      LOOP:  cpu time      9.8999: real time      9.9479

 eigenvalue-minimisations  :  8616
 total energy-change (2. order) :-0.2180915E+03  (-0.2122067E+03)
 number of electron     360.0000000 magnetization      72.0000000
 augmentation part      360.0000000 magnetization      72.0000000

 Free energy of the ion-electron system (eV)
  ---------------------------------------------------
  alpha Z        PSCENC =       798.21355673
  Ewald energy   TEWEN  =    -12870.96429228
  -Hartree energ DENC   =     -1108.41997173
  -exchange      EXHF   =         0.00000000
  -V(xc)+E(xc)   XCENC  =      -293.48145338
  PAW double counting   =     10738.42099860    -9719.93139476
  entropy T*S    EENTRO =        -0.00059462
  eigenvalues    EBANDS =      -861.74655115
  atomic energy  EATOM  =     13036.45147835
  Solvation  Ediel_sol  =         0.00000000
  ---------------------------------------------------
  free energy    TOTEN  =      -281.45822424 eV

  energy without entropy =     -281.45762962  energy(sigma->0) =     -281.45792693


--------------------------------------------------------------------------------------------------------




--------------------------------------- Iteration      1(   4)  ---------------------------------------


     EDDAV:  cpu time     10.0847: real time     10.1344
       DOS:  cpu time      0.0012: real time      0.0012
    --------------------------------------------
      LOOP:  cpu time     10.0859: real time     10.1356

 eigenvalue-minimisations  :  8784
 total energy-change (2. order) :-0.7945221E+01  (-0.7857813E+01)
 number of electron     360.0000000 magnetization      72.0000000
 augmentation part      360.0000000 magnetization      72.0000000

 Free energy of the ion-electron system (eV)
  ---------------------------------------------------
  alpha Z        PSCENC =       798.21355673
  Ewald energy   TEWEN  =    -12870.96429228
  -Hartree energ DENC   =     -1108.41997173
  -exchange      EXHF   =         0.00000000
  -V(xc)+E(xc)   XCENC  =      -293.48145338
  PAW double counting   =     10738.42099860    -9719.93139476
  entropy T*S    EENTRO =        -0.00006656
  eigenvalues    EBANDS =      -869.69230020
  atomic energy  EATOM  =     13036.45147835
  Solvation  Ediel_sol  =         0.00000000
  ---------------------------------------------------
  free energy    TOTEN  =      -289.40344523 eV

  energy without entropy =     -289.40337868  energy(sigma->0) =     -289.40341195


--------------------------------------------------------------------------------------------------------




--------------------------------------- Iteration      1(   5)  ---------------------------------------


     EDDAV:  cpu time     10.2466: real time     10.3044
       DOS:  cpu time      0.0010: real time      0.0010
    CHARGE:  cpu time      0.4256: real time      0.4271
    MIXING:  cpu time      0.0082: real time      0.0082
    --------------------------------------------
      LOOP:  cpu time     10.6813: real time     10.7408

 eigenvalue-minimisations  :  9032
 total energy-change (2. order) :-0.2819747E+00  (-0.2812333E+00)
 number of electron     359.9999993 magnetization      48.7748334
 augmentation part      -66.8084912 magnetization      48.9879279

 Broyden mixing:
  rms(total) = 0.29166E+01    rms(broyden)= 0.29166E+01
  rms(prec ) = 0.30716E+01
  weight for this iteration     100.00

 Free energy of the ion-electron system (eV)
  ---------------------------------------------------
  alpha Z        PSCENC =       798.21355673
  Ewald energy   TEWEN  =    -12870.96429228
  -Hartree energ DENC   =     -1108.41997173
  -exchange      EXHF   =         0.00000000
  -V(xc)+E(xc)   XCENC  =      -293.48145338
  PAW double counting   =     10738.42099860    -9719.93139476
  entropy T*S    EENTRO =        -0.00006566
  eigenvalues    EBANDS =      -869.97427576
  atomic energy  EATOM  =     13036.45147835
  Solvation  Ediel_sol  =         0.00000000
  ---------------------------------------------------
  free energy    TOTEN  =      -289.68541990 eV

  energy without entropy =     -289.68535424  energy(sigma->0) =     -289.68538707


--------------------------------------------------------------------------------------------------------




--------------------------------------- Iteration      1(   6)  ---------------------------------------


    POTLOK:  cpu time      0.1350: real time      0.1364
    SETDIJ:  cpu time      0.6131: real time      0.6154
     EDDAV:  cpu time      9.2805: real time      9.3316
       DOS:  cpu time      0.0011: real time      0.0011
    CHARGE:  cpu time      0.4307: real time      0.4326
    MIXING:  cpu time      0.0073: real time      0.0073
    --------------------------------------------
      LOOP:  cpu time     10.4677: real time     10.5245

 eigenvalue-minimisations  :  7912
 total energy-change (2. order) : 0.3398681E+00  (-0.2658975E+01)
 number of electron     359.9999993 magnetization      27.8772234
 augmentation part      -66.1990660 magnetization      29.0596496

 Broyden mixing:
  rms(total) = 0.17264E+01    rms(broyden)= 0.17264E+01
  rms(prec ) = 0.17631E+01
  weight for this iteration     100.00

 eigenvalues of (default mixing * dielectric matrix)
  average eigenvalue GAMMA=   1.0084
  1.0084

 Free energy of the ion-electron system (eV)
  ---------------------------------------------------
  alpha Z        PSCENC =       798.21355673
  Ewald energy   TEWEN  =    -12870.96429228
  -Hartree energ DENC   =     -1161.50269253
  -exchange      EXHF   =         0.00000000
  -V(xc)+E(xc)   XCENC  =      -286.96186427
  PAW double counting   =     13033.68315771   -12018.73092941
  entropy T*S    EENTRO =        -0.00002061
  eigenvalues    EBANDS =      -819.53394548
  atomic energy  EATOM  =     13036.45147835
  Solvation  Ediel_sol  =         0.00000000
  ---------------------------------------------------
  free energy    TOTEN  =      -289.34555180 eV

  energy without entropy =     -289.34553119  energy(sigma->0) =     -289.34554149


--------------------------------------------------------------------------------------------------------




--------------------------------------- Iteration      1(   7)  ---------------------------------------


    POTLOK:  cpu time      0.1317: real time      0.1323
    SETDIJ:  cpu time      0.6091: real time      0.6107
     EDDAV:  cpu time      9.3599: real time      9.4035
       DOS:  cpu time      0.0010: real time      0.0010
    CHARGE:  cpu time      0.4255: real time      0.4271
    MIXING:  cpu time      0.0083: real time      0.0083
    --------------------------------------------
      LOOP:  cpu time     10.5354: real time     10.5829

 eigenvalue-minimisations  :  7992
 total energy-change (2. order) :-0.7312251E+01  (-0.8704671E+00)
 number of electron     359.9999993 magnetization       9.1002582
 augmentation part      -66.1875303 magnetization       9.7739969

 Broyden mixing:
  rms(total) = 0.90856E+00    rms(broyden)= 0.90856E+00
  rms(prec ) = 0.92449E+00
  weight for this iteration     100.00

 eigenvalues of (default mixing * dielectric matrix)
  average eigenvalue GAMMA=   1.4574
  0.8624  2.0523

 Free energy of the ion-electron system (eV)
  ---------------------------------------------------
  alpha Z        PSCENC =       798.21355673
  Ewald energy   TEWEN  =    -12870.96429228
  -Hartree energ DENC   =     -1178.16065901
  -exchange      EXHF   =         0.00000000
  -V(xc)+E(xc)   XCENC  =      -289.89866267
  PAW double counting   =     15138.33664569   -14125.03023326
  entropy T*S    EENTRO =        -0.00000000
  eigenvalues    EBANDS =      -805.60563681
  atomic energy  EATOM  =     13036.45147835
  Solvation  Ediel_sol  =         0.00000000
  ---------------------------------------------------
  free energy    TOTEN  =      -296.65780327 eV

  energy without entropy =     -296.65780327  energy(sigma->0) =     -296.65780327


--------------------------------------------------------------------------------------------------------




--------------------------------------- Iteration      1(   8)  ---------------------------------------


    POTLOK:  cpu time      0.1306: real time      0.1313
    SETDIJ:  cpu time      0.6162: real time      0.6181
     EDDAV:  cpu time      9.4730: real time      9.5208
       DOS:  cpu time      0.0011: real time      0.0011
    CHARGE:  cpu time      0.4242: real time      0.4260
    MIXING:  cpu time      0.0075: real time      0.0075
    --------------------------------------------
      LOOP:  cpu time     10.6525: real time     10.7048

 eigenvalue-minimisations  :  8128
 total energy-change (2. order) :-0.3208016E+01  (-0.1758984E+00)
 number of electron     359.9999993 magnetization       4.2901347
 augmentation part      -66.1992188 magnetization       4.5942993

 Broyden mixing:
  rms(total) = 0.32528E+00    rms(broyden)= 0.32528E+00
  rms(prec ) = 0.33063E+00
  weight for this iteration     100.00

 eigenvalues of (default mixing * dielectric matrix)
  average eigenvalue GAMMA=   1.3638
  2.5072  0.9267  0.6574

 Free energy of the ion-electron system (eV)
  ---------------------------------------------------
  alpha Z        PSCENC =       798.21355673
  Ewald energy   TEWEN  =    -12870.96429228
  -Hartree energ DENC   =     -1182.62414601
  -exchange      EXHF   =         0.00000000
  -V(xc)+E(xc)   XCENC  =      -289.59109526
  PAW double counting   =     16930.33307395   -15917.98592083
  entropy T*S    EENTRO =        -0.00000000
  eigenvalues    EBANDS =      -803.69847363
  atomic energy  EATOM  =     13036.45147835
  Solvation  Ediel_sol  =         0.00000000
  ---------------------------------------------------
  free energy    TOTEN  =      -299.86581899 eV

  energy without entropy =     -299.86581899  energy(sigma->0) =     -299.86581899


--------------------------------------------------------------------------------------------------------




--------------------------------------- Iteration      1(   9)  ---------------------------------------


    POTLOK:  cpu time      0.1311: real time      0.1318
    SETDIJ:  cpu time      0.6120: real time      0.6144
     EDDAV:  cpu time     10.2678: real time     10.3159
       DOS:  cpu time      0.0007: real time      0.0007
    CHARGE:  cpu time      0.4277: real time      0.4293
    MIXING:  cpu time      0.0072: real time      0.0072
    --------------------------------------------
      LOOP:  cpu time     11.4466: real time     11.4995

 eigenvalue-minimisations  :  9088
 total energy-change (2. order) :-0.3736511E+00  (-0.4275257E-01)
 number of electron     359.9999993 magnetization       2.2649546
 augmentation part      -66.2371655 magnetization       2.4155891

 Broyden mixing:
  rms(total) = 0.14641E+00    rms(broyden)= 0.14641E+00
  rms(prec ) = 0.14815E+00
  weight for this iteration     100.00

 eigenvalues of (default mixing * dielectric matrix)
  average eigenvalue GAMMA=   1.3295
  2.6343  1.2296  0.8325  0.6214

 Free energy of the ion-electron system (eV)
  ---------------------------------------------------
  alpha Z        PSCENC =       798.21355673
  Ewald energy   TEWEN  =    -12870.96429228
  -Hartree energ DENC   =     -1181.60208043
  -exchange      EXHF   =         0.00000000
  -V(xc)+E(xc)   XCENC  =      -289.62838437
  PAW double counting   =     17218.13625461   -16206.12925867
  entropy T*S    EENTRO =        -0.00000000
  eigenvalues    EBANDS =      -804.71674403
  atomic energy  EATOM  =     13036.45147835
  Solvation  Ediel_sol  =         0.00000000
  ---------------------------------------------------
  free energy    TOTEN  =      -300.23947009 eV

  energy without entropy =     -300.23947009  energy(sigma->0) =     -300.23947009


--------------------------------------------------------------------------------------------------------




--------------------------------------- Iteration      1(  10)  ---------------------------------------


    POTLOK:  cpu time      0.1305: real time      0.1312
    SETDIJ:  cpu time      0.6108: real time      0.6126
     EDDAV:  cpu time      9.5170: real time      9.5615
       DOS:  cpu time      0.0012: real time      0.0012
    CHARGE:  cpu time      0.4188: real time      0.4203
    MIXING:  cpu time      0.0074: real time      0.0074
    --------------------------------------------
      LOOP:  cpu time     10.6856: real time     10.7342

 eigenvalue-minimisations  :  8088
 total energy-change (2. order) :-0.9907532E-01  (-0.9287225E-02)
 number of electron     359.9999993 magnetization       0.7474665
 augmentation part      -66.2381709 magnetization       0.8145998

 Broyden mixing:
  rms(total) = 0.72788E-01    rms(broyden)= 0.72788E-01
  rms(prec ) = 0.73870E-01
  weight for this iteration     100.00

 eigenvalues of (default mixing * dielectric matrix)
  average eigenvalue GAMMA=   1.3757
  2.6985  1.7616  0.9686  0.8234  0.6267

 Free energy of the ion-electron system (eV)
  ---------------------------------------------------
  alpha Z        PSCENC =       798.21355673
  Ewald energy   TEWEN  =    -12870.96429228
  -Hartree energ DENC   =     -1181.82150956
  -exchange      EXHF   =         0.00000000
  -V(xc)+E(xc)   XCENC  =      -289.62592463
  PAW double counting   =     17223.66506831   -16211.67076483
  entropy T*S    EENTRO =        -0.00000000
  eigenvalues    EBANDS =      -804.58615749
  atomic energy  EATOM  =     13036.45147835
  Solvation  Ediel_sol  =         0.00000000
  ---------------------------------------------------
  free energy    TOTEN  =      -300.33854541 eV

  energy without entropy =     -300.33854541  energy(sigma->0) =     -300.33854541


--------------------------------------------------------------------------------------------------------




--------------------------------------- Iteration      1(  11)  ---------------------------------------


    POTLOK:  cpu time      0.1306: real time      0.1312
    SETDIJ:  cpu time      0.6117: real time      0.6142
     EDDAV:  cpu time     10.1987: real time     10.2520
       DOS:  cpu time      0.0010: real time      0.0010
    CHARGE:  cpu time      0.4280: real time      0.4299
    MIXING:  cpu time      0.0077: real time      0.0078
    --------------------------------------------
      LOOP:  cpu time     11.3777: real time     11.4360

 eigenvalue-minimisations  :  8904
 total energy-change (2. order) :-0.3073090E-01  (-0.3505978E-02)
 number of electron     359.9999993 magnetization       0.1909558
 augmentation part      -66.2237731 magnetization       0.2099051

 Broyden mixing:
  rms(total) = 0.28589E-01    rms(broyden)= 0.28589E-01
  rms(prec ) = 0.29066E-01
  weight for this iteration     100.00

 eigenvalues of (default mixing * dielectric matrix)
  average eigenvalue GAMMA=   1.4023
  2.8935  2.1748  1.1653  0.8553  0.7004  0.6244

 Free energy of the ion-electron system (eV)
  ---------------------------------------------------
  alpha Z        PSCENC =       798.21355673
  Ewald energy   TEWEN  =    -12870.96429228
  -Hartree energ DENC   =     -1182.91532785
  -exchange      EXHF   =         0.00000000
  -V(xc)+E(xc)   XCENC  =      -289.58739047
  PAW double counting   =     17146.39338347   -16134.37078926
  entropy T*S    EENTRO =        -0.00000000
  eigenvalues    EBANDS =      -803.58989500
  atomic energy  EATOM  =     13036.45147835
  Solvation  Ediel_sol  =         0.00000000
  ---------------------------------------------------
  free energy    TOTEN  =      -300.36927632 eV

  energy without entropy =     -300.36927632  energy(sigma->0) =     -300.36927632


--------------------------------------------------------------------------------------------------------




--------------------------------------- Iteration      1(  12)  ---------------------------------------


    POTLOK:  cpu time      0.1301: real time      0.1320
    SETDIJ:  cpu time      0.6112: real time      0.6129
     EDDAV:  cpu time      9.8414: real time      9.8905
       DOS:  cpu time      0.0008: real time      0.0008
    CHARGE:  cpu time      0.4222: real time      0.4243
    MIXING:  cpu time      0.0080: real time      0.0081
    --------------------------------------------
      LOOP:  cpu time     11.0138: real time     11.0686

 eigenvalue-minimisations  :  8464
 total energy-change (2. order) :-0.3366456E-02  (-0.4465081E-03)
 number of electron     359.9999993 magnetization       0.0620004
 augmentation part      -66.2233381 magnetization       0.0667903

 Broyden mixing:
  rms(total) = 0.10895E-01    rms(broyden)= 0.10895E-01
  rms(prec ) = 0.11477E-01
  weight for this iteration     100.00

 eigenvalues of (default mixing * dielectric matrix)
  average eigenvalue GAMMA=   1.3662
  2.9986  2.3254  1.2055  0.8860  0.8860  0.6089  0.6527

 Free energy of the ion-electron system (eV)
  ---------------------------------------------------
  alpha Z        PSCENC =       798.21355673
  Ewald energy   TEWEN  =    -12870.96429228
  -Hartree energ DENC   =     -1183.01192290
  -exchange      EXHF   =         0.00000000
  -V(xc)+E(xc)   XCENC  =      -289.58939326
  PAW double counting   =     17111.09237230   -16099.04736511
  entropy T*S    EENTRO =        -0.00000000
  eigenvalues    EBANDS =      -803.51707660
  atomic energy  EATOM  =     13036.45147835
  Solvation  Ediel_sol  =         0.00000000
  ---------------------------------------------------
  free energy    TOTEN  =      -300.37264277 eV

  energy without entropy =     -300.37264277  energy(sigma->0) =     -300.37264277


--------------------------------------------------------------------------------------------------------




--------------------------------------- Iteration      1(  13)  ---------------------------------------


    POTLOK:  cpu time      0.1299: real time      0.1306
    SETDIJ:  cpu time      0.6133: real time      0.6150
     EDDAV:  cpu time     11.0055: real time     11.0591
       DOS:  cpu time      0.0036: real time      0.0037
    CHARGE:  cpu time      0.4283: real time      0.4303
    MIXING:  cpu time      0.0080: real time      0.0080
    --------------------------------------------
      LOOP:  cpu time     12.1885: real time     12.2467

 eigenvalue-minimisations  :  9760
 total energy-change (2. order) :-0.1419573E-03  (-0.6353280E-04)
 number of electron     359.9999993 magnetization       0.0163212
 augmentation part      -66.2248512 magnetization       0.0172199

 Broyden mixing:
  rms(total) = 0.44756E-02    rms(broyden)= 0.44756E-02
  rms(prec ) = 0.46752E-02
  weight for this iteration     100.00

 eigenvalues of (default mixing * dielectric matrix)
  average eigenvalue GAMMA=   1.3500
  3.0504  2.4278  1.1269  1.1269  0.9445  0.8667  0.6485  0.6083

 Free energy of the ion-electron system (eV)
  ---------------------------------------------------
  alpha Z        PSCENC =       798.21355673
  Ewald energy   TEWEN  =    -12870.96429228
  -Hartree energ DENC   =     -1182.91178647
  -exchange      EXHF   =         0.00000000
  -V(xc)+E(xc)   XCENC  =      -289.59895867
  PAW double counting   =     17097.82168269   -16085.76563842
  entropy T*S    EENTRO =        -0.00000000
  eigenvalues    EBANDS =      -803.61882665
  atomic energy  EATOM  =     13036.45147835
  Solvation  Ediel_sol  =         0.00000000
  ---------------------------------------------------
  free energy    TOTEN  =      -300.37278473 eV

  energy without entropy =     -300.37278473  energy(sigma->0) =     -300.37278473


--------------------------------------------------------------------------------------------------------




--------------------------------------- Iteration      1(  14)  ---------------------------------------


    POTLOK:  cpu time      0.1327: real time      0.1334
    SETDIJ:  cpu time      0.6095: real time      0.6114
     EDDAV:  cpu time      9.6320: real time      9.6885
       DOS:  cpu time      0.0008: real time      0.0008
    CHARGE:  cpu time      0.4184: real time      0.4205
    MIXING:  cpu time      0.0079: real time      0.0080
    --------------------------------------------
      LOOP:  cpu time     10.8012: real time     10.8625

 eigenvalue-minimisations  :  8304
 total energy-change (2. order) :-0.1771805E-04  (-0.8818282E-05)
 number of electron     359.9999993 magnetization       0.0051092
 augmentation part      -66.2244795 magnetization       0.0054812

 Broyden mixing:
  rms(total) = 0.16831E-02    rms(broyden)= 0.16831E-02
  rms(prec ) = 0.17907E-02
  weight for this iteration     100.00

 eigenvalues of (default mixing * dielectric matrix)
  average eigenvalue GAMMA=   1.3353
  3.0776  2.4557  1.4938  1.1906  0.8816  0.8816  0.7839  0.6114  0.6419

 Free energy of the ion-electron system (eV)
  ---------------------------------------------------
  alpha Z        PSCENC =       798.21355673
  Ewald energy   TEWEN  =    -12870.96429228
  -Hartree energ DENC   =     -1182.91975867
  -exchange      EXHF   =         0.00000000
  -V(xc)+E(xc)   XCENC  =      -289.59918239
  PAW double counting   =     17093.28339240   -16081.22443200
  entropy T*S    EENTRO =        -0.00000000
  eigenvalues    EBANDS =      -803.61356457
  atomic energy  EATOM  =     13036.45147835
  Solvation  Ediel_sol  =         0.00000000
  ---------------------------------------------------
  free energy    TOTEN  =      -300.37280245 eV

  energy without entropy =     -300.37280245  energy(sigma->0) =     -300.37280245


--------------------------------------------------------------------------------------------------------




--------------------------------------- Iteration      1(  15)  ---------------------------------------


    POTLOK:  cpu time      0.1299: real time      0.1306
    SETDIJ:  cpu time      0.6132: real time      0.6150
     EDDAV:  cpu time     10.0004: real time     10.0492
       DOS:  cpu time      0.0013: real time      0.0013
    CHARGE:  cpu time      0.4251: real time      0.4268
    MIXING:  cpu time      0.0081: real time      0.0081
    --------------------------------------------
      LOOP:  cpu time     11.1779: real time     11.2311

 eigenvalue-minimisations  :  8584
 total energy-change (2. order) :-0.3044857E-05  (-0.1599188E-05)
 number of electron     359.9999993 magnetization       0.0017966
 augmentation part      -66.2245844 magnetization       0.0020112

 Broyden mixing:
  rms(total) = 0.74683E-03    rms(broyden)= 0.74682E-03
  rms(prec ) = 0.78856E-03
  weight for this iteration     100.00

 eigenvalues of (default mixing * dielectric matrix)
  average eigenvalue GAMMA=   1.3026
  3.0884  2.4251  1.6875  1.1033  0.9740  0.9740  0.8299  0.7061  0.6189  0.6189

 Free energy of the ion-electron system (eV)
  ---------------------------------------------------
  alpha Z        PSCENC =       798.21355673
  Ewald energy   TEWEN  =    -12870.96429228
  -Hartree energ DENC   =     -1182.90972575
  -exchange      EXHF   =         0.00000000
  -V(xc)+E(xc)   XCENC  =      -289.59936226
  PAW double counting   =     17092.78486775   -16080.72514115
  entropy T*S    EENTRO =        -0.00000000
  eigenvalues    EBANDS =      -803.62418689
  atomic energy  EATOM  =     13036.45147835
  Solvation  Ediel_sol  =         0.00000000
  ---------------------------------------------------
  free energy    TOTEN  =      -300.37280549 eV

  energy without entropy =     -300.37280549  energy(sigma->0) =     -300.37280549


--------------------------------------------------------------------------------------------------------




--------------------------------------- Iteration      1(  16)  ---------------------------------------


    POTLOK:  cpu time      0.1302: real time      0.1309
    SETDIJ:  cpu time      0.6122: real time      0.6145
     EDDAV:  cpu time      6.6982: real time      6.7323
       DOS:  cpu time      0.0008: real time      0.0008
    --------------------------------------------
      LOOP:  cpu time      7.4413: real time      7.4785

 eigenvalue-minimisations  :  4872
 total energy-change (2. order) :-0.6046855E-06  (-0.1557579E-06)
 number of electron     359.9999993 magnetization       0.0017966
 augmentation part      -66.2245844 magnetization       0.0020112

 Free energy of the ion-electron system (eV)
  ---------------------------------------------------
  alpha Z        PSCENC =       798.21355673
  Ewald energy   TEWEN  =    -12870.96429228
  -Hartree energ DENC   =     -1182.90393386
  -exchange      EXHF   =         0.00000000
  -V(xc)+E(xc)   XCENC  =      -289.59961755
  PAW double counting   =     17092.72069968   -16080.66069866
  entropy T*S    EENTRO =        -0.00000000
  eigenvalues    EBANDS =      -803.62999849
  atomic energy  EATOM  =     13036.45147835
  Solvation  Ediel_sol  =         0.00000000
  ---------------------------------------------------
  free energy    TOTEN  =      -300.37280610 eV

  energy without entropy =     -300.37280610  energy(sigma->0) =     -300.37280610


--------------------------------------------------------------------------------------------------------




 average (electrostatic) potential at core
  the test charge radii are     1.1631  1.0808
  (the norm of the test charge is              1.0000)
       1 -33.4074       2 -33.2837       3 -33.3487       4 -33.3621       5 -33.6469
       6 -33.4173       7 -33.4856       8 -33.3225       9 -33.3707      10 -33.5468
      11 -33.2146      12 -33.4572      13 -33.6192      14 -33.4751      15 -33.4053
      16 -33.5903      17 -33.4497      18 -33.4844      19 -33.6912      20 -33.5509
      21 -33.2542      22 -33.6136      23 -33.3052      24 -33.3728      25 -33.4985
      26 -33.3728      27 -33.6109      28 -33.3286      29 -33.4774      30 -33.4262
      31 -33.4791      32 -33.4817      33 -33.7495      34 -33.5265      35 -33.5087
      36 -33.4048      37 -54.8434      38 -54.9740      39 -54.6083      40 -54.7693
      41 -54.8186      42 -54.9823      43 -54.7815      44 -54.8042      45 -54.8484
      46 -54.6808      47 -54.9639      48 -54.9598      49 -54.8462      50 -54.7490
      51 -54.8334      52 -55.0259      53 -54.7253      54 -54.8197      55 -54.8731
      56 -54.7658      57 -54.8288      58 -55.0781      59 -54.7986      60 -54.6975
      61 -54.8879      62 -54.8517      63 -54.8384      64 -54.9835      65 -54.7955
      66 -55.0003      67 -54.7247      68 -54.9189      69 -54.7848      70 -54.5357
      71 -54.8345      72 -54.7529
 
 
 
 E-fermi :   3.4797     XC(G=0):  -9.3810     alpha+bet : -8.8356

 Fermi energy:         3.4796666797

 spin component 1

 k-point     1 :       0.0000    0.0000    0.0000
  band No.  band energies     occupation 
      1     -10.8994      1.00000
      2     -10.5690      1.00000
      3     -10.4467      1.00000
      4     -10.3690      1.00000
      5     -10.2971      1.00000
      6     -10.2256      1.00000
      7     -10.0813      1.00000
      8     -10.0417      1.00000
      9      -9.9953      1.00000
     10      -9.9461      1.00000
     11      -9.8919      1.00000
     12      -9.8662      1.00000
     13      -9.7961      1.00000
     14      -9.7657      1.00000
     15      -9.6746      1.00000
     16      -9.6414      1.00000
     17      -9.6113      1.00000
     18      -9.5759      1.00000
     19      -9.5266      1.00000
     20      -9.5007      1.00000
     21      -9.4790      1.00000
     22      -9.4219      1.00000
     23      -9.3837      1.00000
     24      -9.3443      1.00000
     25      -9.3191      1.00000
     26      -9.2773      1.00000
     27      -9.2457      1.00000
     28      -9.1741      1.00000
     29      -9.1486      1.00000
     30      -9.1253      1.00000
     31      -9.0917      1.00000
     32      -9.0499      1.00000
     33      -9.0209      1.00000
     34      -9.0143      1.00000
     35      -8.9651      1.00000
     36      -8.8577      1.00000
     37      -5.4624      1.00000
     38      -5.3628      1.00000
     39      -5.3001      1.00000
     40      -5.2792      1.00000
     41      -5.1264      1.00000
     42      -5.0854      1.00000
     43      -5.0261      1.00000
     44      -4.9935      1.00000
     45      -4.7791      1.00000
     46      -4.7561      1.00000
     47      -4.6052      1.00000
     48      -4.5265      1.00000
     49      -4.5117      1.00000
     50      -4.4635      1.00000
     51      -4.4445      1.00000
     52      -4.4047      1.00000
     53      -4.3622      1.00000
     54      -4.3419      1.00000
     55      -4.3037      1.00000
     56      -4.3011      1.00000
     57      -4.2679      1.00000
     58      -4.1839      1.00000
     59      -4.1581      1.00000
     60      -4.1441      1.00000
     61      -4.1154      1.00000
     62      -4.0922      1.00000
     63      -3.9832      1.00000
     64      -3.8957      1.00000
     65      -3.8792      1.00000
     66      -3.8103      1.00000
     67      -3.6898      1.00000
     68      -3.6321      1.00000
     69      -3.4542      1.00000
     70      -3.3996      1.00000
     71      -2.4132      1.00000
     72      -2.3994      1.00000
     73      -1.8337      1.00000
     74      -1.6332      1.00000
     75      -1.6001      1.00000
     76      -1.5819      1.00000
     77      -1.3545      1.00000
     78      -1.3081      1.00000
     79      -1.2700      1.00000
     80      -1.2508      1.00000
     81      -1.2354      1.00000
     82      -1.1401      1.00000
     83      -1.1024      1.00000
     84      -1.0850      1.00000
     85      -1.0156      1.00000
     86      -0.8742      1.00000
     87      -0.7677      1.00000
     88      -0.7541      1.00000
     89      -0.7134      1.00000
     90      -0.6064      1.00000
     91      -0.5553      1.00000
     92      -0.5235      1.00000
     93      -0.4545      1.00000
     94      -0.3846      1.00000
     95      -0.1918      1.00000
     96      -0.1254      1.00000
     97      -0.0859      1.00000
     98      -0.0584      1.00000
     99       0.0239      1.00000
    100       0.0651      1.00000
    101       0.0964      1.00000
    102       0.1369      1.00000
    103       0.1927      1.00000
    104       0.2234      1.00000
    105       0.2581      1.00000
    106       0.3123      1.00000
    107       0.3233      1.00000
    108       0.3531      1.00000
    109       0.3821      1.00000
    110       0.4161      1.00000
    111       0.4435      1.00000
    112       0.5488      1.00000
    113       0.5542      1.00000
    114       0.6004      1.00000
    115       0.6472      1.00000
    116       0.6980      1.00000
    117       0.7203      1.00000
    118       0.7285      1.00000
    119       0.7742      1.00000
    120       0.7950      1.00000
    121       0.8274      1.00000
    122       0.8657      1.00000
    123       0.9036      1.00000
    124       0.9380      1.00000
    125       0.9458      1.00000
    126       1.0257      1.00000
    127       1.0439      1.00000
    128       1.0720      1.00000
    129       1.0922      1.00000
    130       1.1222      1.00000
    131       1.1732      1.00000
    132       1.2181      1.00000
    133       1.2492      1.00000
    134       1.2849      1.00000
    135       1.3127      1.00000
    136       1.3543      1.00000
    137       1.4074      1.00000
    138       1.4159      1.00000
    139       1.4678      1.00000
    140       1.5097      1.00000
    141       1.5710      1.00000
    142       1.6039      1.00000
    143       1.6170      1.00000
    144       1.7273      1.00000
    145       1.7438      1.00000
    146       1.7750      1.00000
    147       1.7823      1.00000
    148       1.8240      1.00000
    149       1.8767      1.00000
    150       1.8998      1.00000
[...]
   0.143E+00 0.581E+01 -.247E+02   0.130E-01 -.386E+01 0.275E+02   -.133E+00 -.187E+01 -.305E+01   -.223E-03 -.336E-03 -.124E-03
   -.161E+02 -.704E+01 0.243E+02   0.182E+02 0.720E+01 -.266E+02   -.193E+01 0.426E+00 0.285E+01   -.128E-03 0.213E-03 0.314E-04
   0.756E+01 0.119E+02 0.201E+02   -.787E+01 -.133E+02 -.218E+02   -.620E-01 0.971E+00 0.222E+01   -.186E-04 0.196E-03 0.114E-03
   -.645E+01 0.126E+02 0.343E+02   0.647E+01 -.138E+02 -.361E+02   0.150E+00 0.117E+01 0.202E+01   0.181E-03 0.149E-03 -.393E-03
   -.146E+02 0.114E+02 0.813E+01   0.149E+02 -.129E+02 -.856E+01   0.278E+00 0.666E+00 0.618E+00   0.105E-03 0.106E-03 -.254E-03
   0.398E+01 0.499E+01 0.497E+01   -.421E+01 -.560E+01 -.633E+01   -.406E-02 0.561E+00 0.191E+01   0.256E-03 0.204E-03 -.305E-04
   -.290E+00 0.124E+02 0.223E+02   0.335E+00 -.135E+02 -.242E+02   0.255E-01 0.109E+01 0.149E+01   0.104E-03 -.111E-03 -.317E-04
   0.410E+00 0.596E+01 0.217E+02   -.241E+00 -.709E+01 -.234E+02   0.140E+00 0.964E+00 0.157E+01   -.133E-03 -.720E-04 -.723E-04
   0.679E+01 0.200E+02 0.221E+02   -.673E+01 -.214E+02 -.238E+02   -.106E+00 0.757E+00 0.203E+01   -.302E-03 -.441E-03 -.344E-03
   -.863E+01 -.489E+01 -.260E+02   0.888E+01 0.562E+01 0.277E+02   -.243E+00 -.131E+01 -.151E+01   0.234E-03 0.529E-04 -.112E-03
   0.203E+02 0.721E+01 -.191E+02   -.218E+02 -.763E+01 0.211E+02   0.137E+01 0.860E+00 -.186E+01   -.124E-04 -.282E-03 0.572E-04
   -.102E+02 -.939E+01 -.164E+02   0.103E+02 0.101E+02 0.180E+02   0.135E+00 -.122E+01 -.214E+01   0.168E-04 -.214E-03 0.273E-03
   0.183E+01 -.117E+02 -.349E+02   -.200E+01 0.133E+02 0.374E+02   -.172E+00 -.157E+01 -.988E+00   0.326E-04 0.304E-03 -.105E-03
   -.413E+01 -.794E+01 -.206E+02   0.463E+01 0.912E+01 0.223E+02   -.141E+00 -.136E+01 -.141E+01   -.210E-03 -.251E-03 -.219E-03
   0.293E+02 0.158E+02 -.283E+02   -.312E+02 -.167E+02 0.298E+02   0.119E+01 0.150E+00 -.127E+01   0.534E-04 0.133E-03 0.228E-03
   -.933E+01 -.110E+02 -.287E+02   0.977E+01 0.119E+02 0.300E+02   -.843E+00 -.117E+01 -.139E+01   -.131E-03 -.491E-04 -.146E-03
   -.229E+01 0.143E+02 0.197E+02   0.214E+01 -.156E+02 -.213E+02   0.829E-02 0.111E+01 0.141E+01   -.212E-03 -.227E-03 -.387E-03
   0.807E+01 0.311E+01 0.224E+02   -.831E+01 -.403E+01 -.241E+02   -.300E+00 0.733E+00 0.163E+01   0.316E-04 0.237E-03 -.361E-03
   0.110E+02 -.573E+01 0.301E+02   -.121E+02 0.565E+01 -.318E+02   0.145E+01 0.576E+00 0.200E+01   0.718E-04 0.576E-05 -.328E-05
   0.167E+02 0.716E+01 0.259E+02   -.176E+02 -.729E+01 -.278E+02   0.105E+01 0.249E+00 0.184E+01   0.130E-03 -.343E-03 0.272E-04
   -.399E+01 -.111E+02 0.398E+02   0.353E+01 0.123E+02 -.416E+02   0.607E+00 -.643E+00 0.121E+01   0.131E-03 -.367E-03 -.615E-04
   -.853E+01 -.113E+02 -.254E+02   0.910E+01 0.125E+02 0.265E+02   -.239E+00 -.143E+01 -.113E+01   -.759E-04 -.856E-04 0.317E-03
   0.106E+02 0.171E+02 -.359E+02   -.109E+02 -.183E+02 0.378E+02   -.207E+00 0.106E+01 -.181E+01   -.413E-03 -.446E-03 0.396E-05
   0.120E+02 0.731E+01 -.221E+02   -.129E+02 -.846E+01 0.232E+02   0.333E+00 0.973E+00 -.143E+01   0.193E-03 0.198E-03 0.965E-04
   -.888E+01 0.654E+01 -.303E+02   0.919E+01 -.786E+01 0.320E+02   -.279E+00 0.133E+01 -.165E+01   -.407E-03 0.261E-03 0.656E-04
   -.163E+02 0.101E+02 -.268E+02   0.167E+02 -.106E+02 0.284E+02   0.157E+00 0.863E+00 -.142E+01   0.305E-03 0.147E-03 0.296E-03
   -.224E+02 -.219E+01 -.437E+01   0.234E+02 0.120E+01 0.547E+01   -.231E+00 0.952E+00 -.203E+01   0.143E-03 0.835E-04 0.115E-03
   -.205E+01 0.130E+02 -.288E+02   0.196E+01 -.145E+02 0.305E+02   -.218E-01 0.116E+01 -.175E+01   0.160E-03 -.273E-03 0.220E-03
   0.855E+00 0.218E+02 -.285E+02   -.838E+00 -.232E+02 0.305E+02   0.101E+00 0.125E+01 -.191E+01   0.502E-04 -.230E-03 -.210E-03
   0.948E+01 0.242E+01 -.233E+02   -.960E+01 -.314E+01 0.246E+02   -.342E+00 0.115E+01 -.118E+01   -.405E-03 0.156E-04 0.383E-04
   0.218E+02 0.401E+01 -.272E+02   -.226E+02 -.527E+01 0.288E+02   -.830E-01 0.648E+00 -.195E+01   0.185E-03 0.264E-03 0.451E-03
   0.101E+02 0.404E+01 0.857E+01   -.108E+02 -.369E+01 -.976E+01   0.488E+00 -.836E+00 0.736E+00   0.264E-03 0.361E-03 0.145E-03
   0.530E+01 -.274E+02 0.333E+02   -.596E+01 0.289E+02 -.351E+02   0.115E+00 -.797E+00 0.160E+01   0.193E-03 -.276E-04 0.218E-03
   -.120E-01 -.116E+02 0.434E+02   0.228E+00 0.132E+02 -.453E+02   -.324E+00 -.143E+01 0.125E+01   -.941E-04 -.809E-04 -.388E-04
   0.782E+01 0.623E+01 0.229E+02   -.902E+01 -.687E+01 -.239E+02   0.157E+01 0.605E-01 0.128E+01   0.662E-05 0.235E-03 0.903E-04
   0.815E+01 -.144E+02 0.334E+02   -.879E+01 0.154E+02 -.342E+02   0.145E+00 -.936E+00 0.619E+00   -.121E-04 -.147E-03 -.445E-03
   -.235E+01 -.792E+01 0.229E+02   0.282E+01 0.905E+01 -.245E+02   -.290E+00 -.105E+01 0.155E+01   -.102E-03 0.390E-03 0.271E-03
   0.202E+02 0.103E+02 -.224E+02   -.218E+02 -.107E+02 0.230E+02   0.160E+01 0.281E-01 -.848E+00   0.756E-04 -.276E-04 -.160E-03
 -----------------------------------------------------------------------------------------------
   0.807E+01 0.581E+01 0.802E+00   0.533E-13 -.764E-13 0.995E-13   -.807E+01 -.581E+01 -.801E+00   -.236E-03 0.803E-04 -.454E-03
 
 
 POSITION                                       TOTAL-FORCE (eV/Angst)
 -----------------------------------------------------------------------------------
      0.52982      0.33670      1.49500         0.110899     -0.524312     -0.321976
      3.21985     11.11977      4.10958        -0.238114     -0.510650      0.171898
      7.18030      2.68295      4.09616         0.074181      0.240558      0.411352
      6.84527      6.34447      4.18689         0.514218      0.936060     -0.365260
      7.01965     10.96389      4.46522         0.073988      0.274376     -0.636782
     11.11108      2.46865      4.19254        -0.060255      0.558104      0.463200
     11.20753      6.91309      4.13686         0.021612     -0.112069     -0.101699
     10.86247     10.62923      3.97333         0.046030      0.315580     -0.080918
      0.90379      1.72479      6.94905         0.440061      0.400400     -0.065458
      1.11957      5.97324      6.89803        -0.123863      0.166999      0.108909
      0.96704     10.07081      6.97366         0.098228      0.802538     -0.170713
      4.94617      1.83934      6.91295         0.247799     -0.003988      0.127808
      4.96076      6.03912      6.99508         0.071682      0.011125      0.567532
      5.08288     10.07907      7.01608        -0.286843      0.315192      0.027446
      9.29633      1.90193      6.96991        -0.025081     -0.011437     -0.149995
      9.28365      6.12351      6.83862        -0.101666     -0.170525      0.144835
      2.99517      7.04756      4.19074         0.202101     -0.255913      0.502851
      2.67634      2.22775      4.13297        -0.394442      0.324827      0.073844
      9.38207     10.09470      6.88283        -0.058260      0.076123      0.382659
     11.45580      7.96994      9.52563        -0.097822      0.165095      0.280377
     11.45478     12.14881      9.56777         0.229805      0.610191     -0.095651
      0.77987      4.46201      1.57580        -0.071502      0.363774      0.424513
      0.78364      8.80993      1.57511         0.104548      0.238474     -1.591177
      5.13062      0.77681      1.42445        -0.155910     -0.378767     -0.337572
      4.69716      4.64646      1.31961         0.049711     -0.161238      0.076080
      8.91646      0.36541      1.44103         0.060278     -0.307902     -0.054908
      9.28157      4.75756      1.18047        -0.380005      0.221353      0.558400
      4.80323      8.87528      1.40707         0.926448     -0.322978      0.183747
      2.97692      3.96984      9.60736         0.243339     -0.380242     -0.394370
      2.84392      7.66103     10.08287         0.339525      1.141481     -0.036306
      2.99302     12.21336      9.70466         0.065623      0.118029      0.013435
      7.20642      4.00854      9.56925        -0.282888     -0.276683      0.270602
      7.25626      8.02119      9.65649        -0.117771     -0.214392      0.109816
      7.12169     12.22195      9.52988         0.341393      0.320741     -0.194923
     11.34370      3.86583      9.59187         0.022378      0.080383     -0.219245
      8.70024      8.47976      1.14262         0.166878      0.580649      0.598914
     11.36553      0.18596      6.95556        -0.370599     -0.410014      0.471832
      3.06754      4.24596      7.00268         0.170991     -0.003661      0.283300
      2.94803      8.58298      7.20100         0.597917     -0.821270      0.189203
      7.27601      0.20647      6.95463        -0.240141     -0.051716      0.554836
      7.11119      4.45046      7.12521         0.071253     -0.001559     -0.445316
      7.17122      8.49361      7.21085         0.308624     -0.169442     -0.191808
     11.36576      4.52168      7.02672        -0.042899     -0.682332      0.294778
      9.06467      0.18340      3.96237         0.005204     -0.583960      0.145513
      1.09633      0.09212      3.96672        -0.102382      0.435816      0.099823
      0.74206      4.25699      4.13771         0.187945     -0.524093     -0.605382
      0.95894      8.59355      3.90854        -0.336693      0.057281      1.538674
      5.08421      0.34162      3.92464         0.363383     -0.179435      0.288423
      5.26120      4.53407      3.83265        -0.672641     -0.791135      0.240867
      5.17206      8.50622      4.00020        -0.402006     -0.282943     -0.150849
      3.03558      0.09157      7.16054        -0.136582     -0.147577     -0.205056
     11.48737      8.38250      7.01030        -0.544887     -0.185639     -0.046814
     11.25013     10.52166      1.44461         0.379459      0.488715      0.323220
      3.07156      2.40351      1.62212         0.059355      0.122198     -0.108672
     11.10239      2.00446      1.75865         0.140127      0.471151     -0.633405
      9.17856      4.38779      3.79991         0.330620     -0.284352     -0.043709
      1.05454      2.22510      9.45907        -0.440778     -0.083146      0.101716
      1.00241      6.12943      9.53805        -0.571367     -0.169645     -0.308107
      0.96458     10.47504      9.50236         0.030529      0.008562      0.047612
      4.97921      2.15004      9.44874         0.513303      0.362433      0.120739
      4.93208      6.30387      9.74031         0.789756     -0.038131     -0.932918
      5.15752     10.62535      9.53734        -0.110788     -0.343749     -0.119752
      9.21473      2.30898      9.46685         0.117896     -0.174825      0.034691
      9.41343      6.28897      9.40451        -0.463234      0.429738      0.063537
      9.52255     10.60227      9.41285        -0.923082     -0.603482     -0.259173
      2.89215      6.45634      1.71480        -0.220642     -0.476735     -0.456094
      3.01256     10.48904      1.63791        -0.547544      0.700045     -0.161772
      7.20096      2.30106      1.64682        -0.107818      0.184251     -0.614957
      7.12894      6.52773      1.55084         0.374443     -0.578096      0.230391
      7.16581     10.48942      1.78673        -0.493782      0.035797     -0.153096
     11.30631      6.35704      1.59600         0.180224      0.089294     -0.061852
      9.26661      8.64726      3.83028         0.050532     -0.429300     -0.211687
 -----------------------------------------------------------------------------------
    total drift:                               -0.000809     -0.001484      0.000241


--------------------------------------------------------------------------------------------------------



  FREE ENERGIE OF THE ION-ELECTRON SYSTEM (eV)
  ---------------------------------------------------
  free  energy   TOTEN  =      -300.37280610 eV

  energy  without entropy=     -300.37280610  energy(sigma->0) =     -300.37280610
 


--------------------------------------------------------------------------------------------------------


    POTLOK:  cpu time      0.7421: real time      0.7450


--------------------------------------------------------------------------------------------------------


     LOOP+:  cpu time    182.0210: real time    182.9542
    4ORBIT:  cpu time      0.0000: real time      0.0000



 total charge

# of ion       s       p       d       tot
------------------------------------------
    1        1.323   0.769   0.053   2.145
    2        1.317   0.802   0.061   2.180
    3        1.321   0.786   0.061   2.168
    4        1.317   0.790   0.062   2.169
    5        1.337   0.696   0.050   2.084
    6        1.325   0.755   0.056   2.137
    7        1.330   0.743   0.052   2.124
    8        1.317   0.785   0.056   2.158
    9        1.311   0.799   0.059   2.169
   10        1.330   0.748   0.057   2.134
   11        1.315   0.819   0.066   2.200
   12        1.330   0.743   0.053   2.125
   13        1.326   0.733   0.049   2.108
   14        1.314   0.772   0.056   2.142
   15        1.318   0.771   0.055   2.144
   16        1.328   0.737   0.054   2.119
   17        1.315   0.785   0.058   2.158
   18        1.325   0.748   0.053   2.126
   19        1.322   0.735   0.049   2.106
   20        1.335   0.744   0.054   2.133
   21        1.307   0.814   0.061   2.182
   22        1.330   0.720   0.048   2.099
   23        1.309   0.829   0.069   2.207
   24        1.322   0.784   0.058   2.164
   25        1.333   0.748   0.056   2.137
   26        1.327   0.764   0.059   2.149
   27        1.327   0.728   0.050   2.104
   28        1.318   0.782   0.060   2.159
   29        1.316   0.769   0.061   2.146
   30        1.318   0.794   0.061   2.174
   31        1.334   0.733   0.053   2.120
   32        1.324   0.756   0.053   2.133
   33        1.313   0.753   0.050   2.116
   34        1.324   0.743   0.049   2.116
   35        1.321   0.752   0.051   2.124
   36        1.314   0.772   0.058   2.144
   37        1.479   2.292   0.032   3.803
   38        1.480   2.293   0.034   3.806
   39        1.473   2.307   0.028   3.808
   40        1.477   2.280   0.027   3.784
   41        1.474   2.304   0.030   3.808
   42        1.478   2.297   0.031   3.807
   43        1.476   2.292   0.029   3.798
   44        1.477   2.297   0.032   3.806
   45        1.478   2.303   0.033   3.813
   46        1.480   2.271   0.027   3.778
   47        1.474   2.342   0.040   3.856
   48        1.474   2.315   0.035   3.825
   49        1.473   2.335   0.035   3.843
   50        1.479   2.283   0.029   3.791
   51        1.474   2.305   0.032   3.810
   52        1.476   2.310   0.035   3.822
   53        1.481   2.279   0.029   3.788
   54        1.477   2.297   0.031   3.805
   55        1.474   2.328   0.034   3.836
   56        1.475   2.288   0.028   3.790
   57        1.478   2.296   0.031   3.804
   58        1.476   2.318   0.039   3.833
   59        1.478   2.303   0.033   3.814
   60        1.475   2.284   0.027   3.785
   61        1.480   2.276   0.031   3.787
   62        1.477   2.303   0.031   3.811
   63        1.477   2.303   0.031   3.811
   64        1.477   2.291   0.032   3.800
   65        1.477   2.299   0.030   3.805
   66        1.472   2.306   0.034   3.813
   67        1.473   2.332   0.034   3.838
   68        1.474   2.332   0.036   3.843
   69        1.477   2.292   0.030   3.799
   70        1.474   2.282   0.024   3.780
   71        1.474   2.300   0.030   3.804
   72        1.478   2.294   0.031   3.803
--------------------------------------------------
tot        100.739 110.330   3.144 214.213



 magnetization (x)

# of ion       s       p       d       tot
------------------------------------------
    1       -0.000   0.000  -0.000  -0.000
    2       -0.000   0.000  -0.000   0.000
    3       -0.000   0.000   0.000   0.000
    4       -0.000   0.000   0.000   0.000
    5       -0.000   0.000   0.000   0.000
    6       -0.000   0.000  -0.000   0.000
    7       -0.000   0.000   0.000   0.000
    8       -0.000  -0.000  -0.000  -0.000
    9       -0.000   0.000   0.000   0.000
   10       -0.000   0.000   0.000   0.000
   11       -0.000   0.000  -0.000   0.000
   12       -0.000   0.000   0.000   0.000
   13       -0.000   0.000   0.000   0.000
   14       -0.000   0.000  -0.000  -0.000
   15       -0.000   0.000   0.000   0.000
   16       -0.000   0.000   0.000   0.000
   17       -0.000   0.000   0.000   0.000
   18       -0.000   0.000  -0.000  -0.000
   19       -0.000  -0.000  -0.000  -0.000
   20       -0.000   0.000   0.000   0.000
   21       -0.000   0.000  -0.000   0.000
   22       -0.000   0.000   0.000   0.000
   23       -0.000   0.000  -0.000   0.000
   24       -0.000   0.000  -0.000   0.000
   25       -0.000   0.000   0.000   0.000
   26       -0.000   0.000  -0.000   0.000
   27       -0.000   0.000   0.000   0.000
   28       -0.000   0.000   0.000   0.000
   29       -0.000   0.000   0.000   0.000
   30       -0.000   0.000   0.000   0.000
   31       -0.000   0.000  -0.000   0.000
   32       -0.000   0.000   0.000   0.000
   33       -0.000   0.000   0.000   0.000
   34       -0.000   0.000  -0.000   0.000
   35       -0.000   0.000   0.000   0.000
   36       -0.000   0.000   0.000   0.000
   37       -0.000  -0.000   0.000  -0.000
   38       -0.000  -0.000   0.000  -0.000
   39       -0.000  -0.000   0.000  -0.000
   40       -0.000  -0.000  -0.000  -0.000
   41       -0.000  -0.000   0.000  -0.000
   42       -0.000  -0.000   0.000  -0.000
   43       -0.000  -0.000   0.000  -0.000
   44       -0.000  -0.000  -0.000  -0.000
   45       -0.000  -0.000  -0.000  -0.000
   46       -0.000  -0.000   0.000  -0.000
   47       -0.000  -0.000   0.000  -0.000
   48       -0.000  -0.000  -0.000  -0.000
   49       -0.000  -0.000   0.000  -0.000
   50       -0.000  -0.000   0.000  -0.000
   51       -0.000  -0.000   0.000  -0.000
   52       -0.000  -0.000   0.000  -0.000
   53       -0.000  -0.000  -0.000  -0.000
   54       -0.000  -0.000  -0.000  -0.000
   55       -0.000  -0.000  -0.000  -0.000
   56       -0.000  -0.000   0.000  -0.000
   57       -0.000  -0.000   0.000  -0.000
   58       -0.000  -0.000   0.000  -0.000
   59       -0.000  -0.000   0.000  -0.000
   60       -0.000  -0.000   0.000  -0.000
   61       -0.000  -0.000   0.000  -0.000
   62       -0.000  -0.000  -0.000  -0.000
   63       -0.000  -0.000   0.000  -0.000
   64       -0.000  -0.000   0.000  -0.000
   65       -0.000  -0.000  -0.000  -0.000
   66       -0.000  -0.000   0.000  -0.000
   67       -0.000  -0.000  -0.000  -0.000
   68       -0.000  -0.000   0.000  -0.000
   69       -0.000  -0.000   0.000  -0.000
   70       -0.000  -0.000   0.000  -0.000
   71       -0.000  -0.000   0.000  -0.000
   72       -0.000  -0.000   0.000  -0.000
--------------------------------------------------
tot         -0.000  -0.000   0.000  -0.000
 

 total amount of memory used by VASP MPI-rank0   110605. kBytes
=======================================================================

   base      :      30000. kBytes
   nonl-proj :      16310. kBytes
   fftplans  :       6179. kBytes
   grid      :      15593. kBytes
   one-center:        146. kBytes
   wavefun   :      42377. kBytes
 
  
  
 General timing and accounting informations for this job:
 ========================================================
  
                  Total CPU time used (sec):      193.907
                            User time (sec):      188.204
                          System time (sec):        5.702
                         Elapsed time (sec):      196.644
  
                   Maximum memory used (kb):      306696.
                   Average memory used (kb):          N/A
  
                          Minor page faults:       108089
                          Major page faults:           64
                 Voluntary context switches:         6726
