 vasp.6.4.2 20Jul23 (build Oct 12 2023 10:31:02) complex                         
 executed on              LinuxNV date 2025.05.27  18:20:22
 running  128 mpi-ranks, with    1 threads/rank, on    2 nodes
 distrk:  each k-point on   64 cores,    2 groups
 distr:  one band on NCORE=   4 cores,   16 groups


--------------------------------------------------------------------------------------------------------


 INCAR:
   ENCUT = 360.000000
   SIGMA = 0.050000
   EDIFF = 1.00e-06
   ALGO = Normal
   GGA = PE
   PREC = Normal
   SYSTEM = ./
   ICHARG = 2
   ISMEAR = 0
   ISPIN = 1
   ISTART = 0
   ISYM = 0
   KPAR = 2
   LMAXMIX = 4
   NELM = 100
   NPAR = 16
   LASPH = .TRUE.
   LCHARG = .FALSE.
   LWAVE = .FALSE.

 POTCAR:    PAW_PBE Ge 05Jan2001                  
 POTCAR:    PAW_PBE Se 06Sep2000                  
 POTCAR:    PAW_PBE Ge 05Jan2001                  
   VRHFIN =Ge: s2p2                                                                                 
   LEXCH  = PE                                                                                      
   EATOM  =   104.9960 eV,    7.7170 Ry                                                             
                                                                                                    
   TITEL  = PAW_PBE Ge 05Jan2001                                                                    
   LULTRA =        F    use ultrasoft PP ?                                                          
   IUNSCR =        1    unscreen: 0-lin 1-nonlin 2-no                                               
   RPACOR =    2.170    partial core radius                                                         
   POMASS =   72.610; ZVAL   =    4.000    mass and valenz                                          
   RCORE  =    2.300    outmost cutoff radius                                                       
   RWIGS  =    2.300; RWIGS  =    1.217    wigner-seitz radius (au A)                               
   ENMAX  =  173.807; ENMIN  =  130.355 eV                                                          
   ICORE  =        3    local potential                                                             
   LCOR   =        T    correct aug charges                                                         
   LPAW   =        T    paw PP                                                                      
   EAUG   =  385.843                                                                                
   DEXC   =    0.000                                                                                
   RMAX   =    2.342    core radius for proj-oper                                                   
   RAUG   =    1.300    factor for augmentation sphere                                              
   RDEP   =    2.318    radius for radial grids                                                     
   RDEPT  =    2.103    core radius for aug-charge                                                  
                                                                                                    
   Atomic configuration                                                                             
   10 entries                                                                                       
     n  l   j            E        occ.                                                              
     1  0  0.50    -10959.8463   2.0000                                                             
     2  0  0.50     -1371.6056   2.0000                                                             
     2  1  1.50     -1198.4791   6.0000                                                             
     3  0  0.50      -168.4733   2.0000                                                             
     3  1  1.50      -115.6019   6.0000                                                             
     3  2  2.50       -29.3106  10.0000                                                             
     4  0  0.50       -11.7309   2.0000                                                             
     4  1  0.50        -3.8952   2.0000                                                             
     4  2  1.50        -4.0817   0.0000                                                             
     4  3  2.50        -4.0817   0.0000                                                             
   Description                                                                                      
     l       E           TYP  RCUT    TYP  RCUT                                                     
     0    -11.7309493     23  2.300                                                                 
     0     -7.4578696     23  2.300                                                                 
     1     -3.8952261     23  2.300                                                                 
     1      6.1178114     23  2.300                                                                 
     2     -4.0817478     23  2.300                                                                 
     3     -1.3605826      7  2.300                                                                 
  local pseudopotential read in
  partial core-charges read in
  partial kinetic energy density read in
  atomic valenz-charges read in
  non local Contribution for L=            0  read in
    real space projection operators read in
  non local Contribution for L=            0  read in
    real space projection operators read in
  non local Contribution for L=            1  read in
    real space projection operators read in
  non local Contribution for L=            1  read in
    real space projection operators read in
  non local Contribution for L=            2  read in
    real space projection operators read in
    PAW grid and wavefunctions read in
 
   number of l-projection  operators is LMAX  =            5
   number of lm-projection operators is LMMAX =           13
 
 POTCAR:    PAW_PBE Se 06Sep2000                  
   VRHFIN =Se: s2p4                                                                                 
   LEXCH  = PE                                                                                      
   EATOM  =   257.1286 eV,   18.8984 Ry                                                             
                                                                                                    
   TITEL  = PAW_PBE Se 06Sep2000                                                                    
   LULTRA =        F    use ultrasoft PP ?                                                          
   IUNSCR =        1    unscreen: 0-lin 1-nonlin 2-no                                               
   RPACOR =    1.900    partial core radius                                                         
   POMASS =   78.960; ZVAL   =    6.000    mass and valenz                                          
   RCORE  =    2.100    outmost cutoff radius                                                       
   RWIGS  =    2.200; RWIGS  =    1.164    wigner-seitz radius (au A)                               
   ENMAX  =  211.555; ENMIN  =  158.666 eV                                                          
   ICORE  =        3    local potential                                                             
   LCOR   =        T    correct aug charges                                                         
   LPAW   =        T    paw PP                                                                      
   EAUG   =  446.842                                                                                
   DEXC   =    0.000                                                                                
   RMAX   =    2.147    core radius for proj-oper                                                   
   RAUG   =    1.300    factor for augmentation sphere                                              
   RDEP   =    2.177    radius for radial grids                                                     
   RDEPT  =    1.928    core radius for aug-charge                                                  
                                                                                                    
   Atomic configuration                                                                             
   10 entries                                                                                       
     n  l   j            E        occ.                                                              
     1  0  0.50    -12503.4787   2.0000                                                             
     2  0  0.50     -1606.9547   2.0000                                                             
     2  1  1.50     -1413.3140   6.0000                                                             
     3  0  0.50      -213.4885   2.0000                                                             
     3  1  1.50      -152.9538   6.0000                                                             
     3  2  2.50       -53.1221  10.0000                                                             
     4  0  0.50       -17.2865   2.0000                                                             
     4  1  0.50        -6.5110   4.0000                                                             
     4  2  2.50        -6.8029   0.0000                                                             
     4  3  2.50        -6.8029   0.0000                                                             
   Description                                                                                      
     l       E           TYP  RCUT    TYP  RCUT                                                     
     0    -17.2865377     23  2.100                                                                 
     0    -15.3094411     23  2.100                                                                 
     1     -6.5110275     23  2.100                                                                 
     1     -0.0695192     23  2.100                                                                 
     2     -6.8029130     23  2.100                                                                 
     3     -1.3605826      7  2.100                                                                 
  local pseudopotential read in
  partial core-charges read in
  partial kinetic energy density read in
  atomic valenz-charges read in
  non local Contribution for L=            0  read in
    real space projection operators read in
  non local Contribution for L=            0  read in
    real space projection operators read in
  non local Contribution for L=            1  read in
    real space projection operators read in
  non local Contribution for L=            1  read in
    real space projection operators read in
  non local Contribution for L=            2  read in
    real space projection operators read in
    PAW grid and wavefunctions read in
 
   number of l-projection  operators is LMAX  =            5
   number of lm-projection operators is LMMAX =           13
 
  PAW_PBE Ge 05Jan2001                  :
 energy of atom  1       EATOM= -104.9960
 kinetic energy error for atom=    0.0005 (will be added to EATOM!!)
  PAW_PBE Se 06Sep2000                  :
 energy of atom  2       EATOM= -257.1286
 kinetic energy error for atom=    0.0030 (will be added to EATOM!!)
 
 
 POSCAR: Ge Se
  positions in cartesian coordinates
  No initial velocities read in
 exchange correlation table for  LEXCH =        8
   RHO(1)=    0.500       N(1)  =     2000
   RHO(2)=  100.500       N(2)  =     4000
 


--------------------------------------------------------------------------------------------------------


 ion  position               nearest neighbor table
   1  0.250  0.104  0.123-   6 2.56   6 2.56   5 2.61
   2  0.750  0.604  0.377-   5 2.56   5 2.56   6 2.61
   3  0.750  0.896  0.877-   8 2.56   8 2.56   7 2.61
   4  0.250  0.396  0.623-   7 2.56   7 2.56   8 2.61
   5  0.250  0.011  0.354-   2 2.56   2 2.56   1 2.61
   6  0.750  0.511  0.146-   1 2.56   1 2.56   2 2.61
   7  0.750  0.989  0.646-   4 2.56   4 2.56   3 2.61
   8  0.250  0.489  0.854-   3 2.56   3 2.56   4 2.61
 

IMPORTANT INFORMATION: All symmetrisations will be switched off!
NOSYMM: (Re-)initialisation of all symmetry stuff for point group C_1.


----------------------------------------------------------------------------------------

                                     Primitive cell                                     

  volume of cell :     177.5791

  direct lattice vectors                    reciprocal lattice vectors
     3.750000000  0.000000000  0.000000000     0.266666667  0.000000000  0.000000000
     0.000000000  4.250000000  0.000000000     0.000000000  0.235294118  0.000000000
     0.000000000  0.000000000 11.142221000     0.000000000  0.000000000  0.089748713

  length of vectors
     3.750000000  4.250000000 11.142221000     0.266666667  0.235294118  0.089748713

  position of ions in fractional coordinates (direct lattice)
     0.250000000  0.104469674  0.122618493
     0.750000000  0.604469674  0.377381507
     0.750000000  0.895530326  0.877381507
     0.250000000  0.395530326  0.622618493
     0.250000000  0.011322240  0.354170511
     0.750000000  0.511322240  0.145829489
     0.750000000  0.988677760  0.645829489
     0.250000000  0.488677760  0.854170511

  ion indices of the primitive-cell ions
   primitive index   ion index
                 1           1
                 2           2
                 3           3
                 4           4
                 5           5
                 6           6
                 7           7
                 8           8

----------------------------------------------------------------------------------------

 
 
 KPOINTS: KPOINTS created by Atomic Simulation Env

Automatic generation of k-mesh.
 Grid dimensions read from file:
 generate k-points for:    6    6    2

 Generating k-lattice:

  Cartesian coordinates                     Fractional coordinates (reciprocal lattice)
     0.044444444  0.000000000  0.000000000     0.166666667  0.000000000  0.000000000
     0.000000000  0.039215686  0.000000000     0.000000000  0.166666667  0.000000000
     0.000000000  0.000000000  0.044874357     0.000000000  0.000000000  0.500000000

  Length of vectors
     0.044444444  0.039215686  0.044874357

  Shift w.r.t. Gamma in fractional coordinates (k-lattice)
     0.000000000  0.000000000  0.000000000

 
 Subroutine IBZKPT returns following result:
 ===========================================
 
 Found     40 irreducible k-points:
 
 Following reciprocal coordinates:
            Coordinates               Weight
  0.000000  0.000000  0.000000      1.000000
  0.166667  0.000000  0.000000      2.000000
  0.333333  0.000000  0.000000      2.000000
  0.500000  0.000000  0.000000      1.000000
  0.000000  0.166667  0.000000      2.000000
  0.166667  0.166667  0.000000      2.000000
  0.166667 -0.166667  0.000000      2.000000
  0.333333  0.166667  0.000000      2.000000
  0.333333 -0.166667  0.000000      2.000000
  0.500000  0.166667  0.000000      2.000000
  0.000000  0.333333  0.000000      2.000000
  0.166667  0.333333  0.000000      2.000000
  0.166667 -0.333333  0.000000      2.000000
  0.333333  0.333333  0.000000      2.000000
  0.333333 -0.333333  0.000000      2.000000
  0.500000  0.333333  0.000000      2.000000
  0.000000  0.500000  0.000000      1.000000
  0.166667  0.500000  0.000000      2.000000
  0.333333  0.500000  0.000000      2.000000
  0.500000  0.500000  0.000000      1.000000
  0.000000  0.000000  0.500000      1.000000
  0.166667  0.000000  0.500000      2.000000
  0.333333  0.000000  0.500000      2.000000
  0.500000  0.000000  0.500000      1.000000
  0.000000  0.166667  0.500000      2.000000
  0.166667  0.166667  0.500000      2.000000
  0.166667 -0.166667  0.500000      2.000000
  0.333333  0.166667  0.500000      2.000000
  0.333333 -0.166667  0.500000      2.000000
  0.500000  0.166667  0.500000      2.000000
  0.000000  0.333333  0.500000      2.000000
  0.166667  0.333333  0.500000      2.000000
  0.166667 -0.333333  0.500000      2.000000
  0.333333  0.333333  0.500000      2.000000
  0.333333 -0.333333  0.500000      2.000000
  0.500000  0.333333  0.500000      2.000000
  0.000000  0.500000  0.500000      1.000000
  0.166667  0.500000  0.500000      2.000000
  0.333333  0.500000  0.500000      2.000000
  0.500000  0.500000  0.500000      1.000000
 
 Following cartesian coordinates:
            Coordinates               Weight
  0.000000  0.000000  0.000000      1.000000
  0.044444  0.000000  0.000000      2.000000
  0.088889  0.000000  0.000000      2.000000
  0.133333  0.000000  0.000000      1.000000
  0.000000  0.039216  0.000000      2.000000
  0.044444  0.039216  0.000000      2.000000
  0.044444 -0.039216  0.000000      2.000000
  0.088889  0.039216  0.000000      2.000000
  0.088889 -0.039216  0.000000      2.000000
  0.133333  0.039216  0.000000      2.000000
  0.000000  0.078431  0.000000      2.000000
  0.044444  0.078431  0.000000      2.000000
  0.044444 -0.078431  0.000000      2.000000
  0.088889  0.078431  0.000000      2.000000
  0.088889 -0.078431  0.000000      2.000000
  0.133333  0.078431  0.000000      2.000000
  0.000000  0.117647  0.000000      1.000000
  0.044444  0.117647  0.000000      2.000000
  0.088889  0.117647  0.000000      2.000000
  0.133333  0.117647  0.000000      1.000000
  0.000000  0.000000  0.044874      1.000000
  0.044444  0.000000  0.044874      2.000000
  0.088889  0.000000  0.044874      2.000000
  0.133333  0.000000  0.044874      1.000000
  0.000000  0.039216  0.044874      2.000000
  0.044444  0.039216  0.044874      2.000000
  0.044444 -0.039216  0.044874      2.000000
  0.088889  0.039216  0.044874      2.000000
  0.088889 -0.039216  0.044874      2.000000
  0.133333  0.039216  0.044874      2.000000
  0.000000  0.078431  0.044874      2.000000
  0.044444  0.078431  0.044874      2.000000
  0.044444 -0.078431  0.044874      2.000000
  0.088889  0.078431  0.044874      2.000000
  0.088889 -0.078431  0.044874      2.000000
  0.133333  0.078431  0.044874      2.000000
  0.000000  0.117647  0.044874      1.000000
  0.044444  0.117647  0.044874      2.000000
  0.088889  0.117647  0.044874      2.000000
  0.133333  0.117647  0.044874      1.000000
 


--------------------------------------------------------------------------------------------------------




 Dimension of arrays:
   k-points           NKPTS =     40   k-points in BZ     NKDIM =     40   number of bands    NBANDS=     32
   number of dos      NEDOS =    301   number of ions     NIONS =      8
   non local maximal  LDIM  =      5   non local SUM 2l+1 LMDIM =     13
   total plane-waves  NPLWV =  19440
   max r-space proj   IRMAX =      1   max aug-charges    IRDMAX=   6149
   dimension x,y,z NGX =    18 NGY =   20 NGZ =   54
   dimension x,y,z NGXF=    36 NGYF=   40 NGZF=  108
   support grid    NGXF=    36 NGYF=   40 NGZF=  108
   ions per type =               4   4
   NGX,Y,Z   is equivalent  to a cutoff of   7.98,  7.82,  8.06 a.u.
   NGXF,Y,Z  is equivalent  to a cutoff of  15.96, 15.65, 16.11 a.u.

 SYSTEM =  ./                                      
 POSCAR =  Ge Se                                   

 Startparameter for this run:
   NWRITE =      2    write-flag & timer
   PREC   = normal    normal or accurate (medium, high low for compatibility)
   ISTART =      0    job   : 0-new  1-cont  2-samecut
   ICHARG =      2    charge: 1-file 2-atom 10-const
   ISPIN  =      1    spin polarized calculation?
   LNONCOLLINEAR =      F non collinear calculations
   LSORBIT =      F    spin-orbit coupling
   INIWAV =      1    electr: 0-lowe 1-rand  2-diag
   LASPH  =      T    aspherical Exc in radial PAW
 Electronic Relaxation 1
   ENCUT  =  360.0 eV  26.46 Ry    5.14 a.u.   5.80  6.58 17.24*2*pi/ulx,y,z
   ENINI  =  360.0     initial cutoff
   ENAUG  =  446.8 eV  augmentation charge cutoff
   NELM   =    100;   NELMIN=  2; NELMDL= -5     # of ELM steps 
   EDIFF  = 0.1E-05   stopping-criterion for ELM
   LREAL  =      F    real-space projection
   NLSPLINE    = F    spline interpolate recip. space projectors
   LCOMPAT=      F    compatible to vasp.4.4
   GGA_COMPAT  = T    GGA compatible to vasp.4.4-vasp.4.6
   LMAXPAW     = -100 max onsite density
   LMAXMIX     =    4 max onsite mixed and CHGCAR
   VOSKOWN=      0    Vosko Wilk Nusair interpolation
   ROPT   =    0.00000   0.00000
 Ionic relaxation
   EDIFFG = 0.1E-04   stopping-criterion for IOM
   NSW    =      0    number of steps for IOM
   NBLOCK =      1;   KBLOCK =      1    inner block; outer block 
   IBRION =     -1    ionic relax: 0-MD 1-quasi-New 2-CG
   NFREE  =      0    steps in history (QN), initial steepest desc. (CG)
   ISIF   =      2    stress and relaxation
   IWAVPR =     10    prediction:  0-non 1-charg 2-wave 3-comb
   ISYM   =      0    0-nonsym 1-usesym 2-fastsym
   LCORR  =      T    Harris-Foulkes like correction to forces

   POTIM  = 0.5000    time-step for ionic-motion
   TEIN   =    0.0    initial temperature
   TEBEG  =    0.0;   TEEND  =   0.0 temperature during run
   SMASS  =  -3.00    Nose mass-parameter (am)
   estimated Nose-frequenzy (Omega)   =  0.10E-29 period in steps = 0.13E+47 mass=  -0.321E-27a.u.
   SCALEE = 1.0000    scale energy and forces
   NPACO  =    256;   APACO  = 10.0  distance and # of slots for P.C.
   PSTRESS=    0.0 pullay stress

  Mass of Ions in am
   POMASS =  72.61 78.96
  Ionic Valenz
   ZVAL   =   4.00  6.00
  Atomic Wigner-Seitz radii
   RWIGS  =  -1.00 -1.00
  virtual crystal weights 
   VCA    =   1.00  1.00
   NELECT =      40.0000    total number of electrons
   NUPDOWN=      -1.0000    fix difference up-down

 DOS related values:
   EMIN   =  10.00;   EMAX   =-10.00  energy-range for DOS
   EFERMI =   0.00;   METHOD = LEGACY      
   ISMEAR =     0;   SIGMA  =   0.05  broadening in eV -4-tet -1-fermi 0-gaus

 Electronic relaxation 2 (details)
   IALGO  =     38    algorithm
   LDIAG  =      T    sub-space diagonalisation (order eigenvalues)
   LSUBROT=      F    optimize rotation matrix (better conditioning)
   TURBO    =      0    0=normal 1=particle mesh
   IRESTART =      0    0=no restart 2=restart with 2 vectors
   NREBOOT  =      0    no. of reboots
   NMIN     =      0    reboot dimension
   EREF     =   0.00    reference energy to select bands
   IMIX   =      4    mixing-type and parameters
     AMIX     =   0.40;   BMIX     =  1.00
     AMIX_MAG =   1.60;   BMIX_MAG =  1.00
     AMIN     =   0.10
     WC   =   100.;   INIMIX=   1;  MIXPRE=   1;  MAXMIX= -45

 Intra band minimization:
   WEIMIN = 0.0000     energy-eigenvalue tresh-hold
   EBREAK =  0.78E-08  absolut break condition
   DEPER  =   0.30     relativ break condition  

   TIME   =   0.40     timestep for ELM

  volume/ion in A,a.u.               =      22.20       149.80
  Fermi-wavevector in a.u.,A,eV,Ry     =   0.996088  1.882333 13.499570  0.992190
  Thomas-Fermi vector in A             =   2.128152
 
 Write flags
   LWAVE        =      F    write WAVECAR
   LDOWNSAMPLE  =      F    k-point downsampling of WAVECAR
   LCHARG       =      F    write CHGCAR
   LVTOT        =      F    write LOCPOT, total local potential
   LVHAR        =      F    write LOCPOT, Hartree potential only
   LELF         =      F    write electronic localiz. function (ELF)
   LORBIT       =      0    0 simple, 1 ext, 2 COOP (PROOUT), +10 PAW based schemes


 Dipole corrections
   LMONO  =      F    monopole corrections only (constant potential shift)
   LDIPOL =      F    correct potential (dipole corrections)
   IDIPOL =      0    1-x, 2-y, 3-z, 4-all directions 
   EPSILON=  1.0000000 bulk dielectric constant

 Exchange correlation treatment:
   GGA     =    PE    GGA type
   LEXCH   =     8    internal setting for exchange type
   LIBXC   =     F    Libxc                    
   VOSKOWN =     0    Vosko Wilk Nusair interpolation
   LHFCALC =     F    Hartree Fock is set to
   LHFONE  =     F    Hartree Fock one center treatment
   AEXX    =    0.0000 exact exchange contribution

 Linear response parameters
   LEPSILON=     F    determine dielectric tensor
   LRPA    =     F    only Hartree local field effects (RPA)
   LNABLA  =     F    use nabla operator in PAW spheres
   LVEL    =     F    velocity operator in full k-point grid
   CSHIFT  =0.1000    complex shift for real part using Kramers Kronig
   OMEGAMAX=  -1.0    maximum frequency
   DEG_THRESHOLD= 0.2000000E-02 threshold for treating states as degnerate
   RTIME   =   -0.100 relaxation time in fs
  (WPLASMAI=    0.000 imaginary part of plasma frequency in eV, 0.658/RTIME)
   DFIELD  = 0.0000000 0.0000000 0.0000000 field for delta impulse in time
 
  Optional k-point grid parameters
   LKPOINTS_OPT  =     F    use optional k-point grid
   KPOINTS_OPT_MODE=     1    mode for optional k-point grid
 
 Orbital magnetization related:
   ORBITALMAG=     F  switch on orbital magnetization
   LCHIMAG   =     F  perturbation theory with respect to B field
   DQ        =  0.001000  dq finite difference perturbation B field
   LLRAUG    =     F  two centre corrections for induced B field
   LBONE     =     F  B-component reconstruction in AE one-centre
   LVGVCALC  =     T  calculate vGv susceptibility
   LVGVAPPL  =     F  apply vGv susceptibility instead of pGv for G=0

 Random number generation:
   RANDOM_GENERATOR = DEFAULT
   PCG_SEED         = not used


--------------------------------------------------------------------------------------------------------


 Static calculation
 charge density and potential will be updated during run
 non-spin polarized calculation
 Variant of blocked Davidson
 Davidson routine will perform the subspace rotation
 perform sub-space diagonalisation
    after iterative eigenvector-optimisation
 modified Broyden-mixing scheme, WC =      100.0
 initial mixing is a Kerker type mixing with AMIX =  0.4000 and BMIX =      1.0000
 Hartree-type preconditioning will be used
 using additional bands            12
 reciprocal scheme for non local part
 use partial core corrections
 calculate Harris-corrections to forces 
   (improved forces if not selfconsistent)
 use gradient corrections 
 use of overlap-Matrix (Vanderbilt PP)
 Gauss-broadening in eV      SIGMA  =   0.05


--------------------------------------------------------------------------------------------------------


  energy-cutoff  :      360.00
  volume of cell :      177.58
      direct lattice vectors                 reciprocal lattice vectors
     3.750000000  0.000000000  0.000000000     0.266666667  0.000000000  0.000000000
     0.000000000  4.250000000  0.000000000     0.000000000  0.235294118  0.000000000
     0.000000000  0.000000000 11.142221000     0.000000000  0.000000000  0.089748713

  length of vectors
     3.750000000  4.250000000 11.142221000     0.266666667  0.235294118  0.089748713


 
 k-points in units of 2pi/SCALE and weight: KPOINTS created by Atomic Simulation Env
   0.00000000  0.00000000  0.00000000       0.014
   0.04444444  0.00000000  0.00000000       0.028
   0.08888889  0.00000000  0.00000000       0.028
   0.13333333  0.00000000  0.00000000       0.014
   0.00000000  0.03921569  0.00000000       0.028
   0.04444444  0.03921569  0.00000000       0.028
   0.04444444 -0.03921569  0.00000000       0.028
   0.08888889  0.03921569  0.00000000       0.028
   0.08888889 -0.03921569  0.00000000       0.028
   0.13333333  0.03921569  0.00000000       0.028
   0.00000000  0.07843137  0.00000000       0.028
   0.04444444  0.07843137  0.00000000       0.028
   0.04444444 -0.07843137  0.00000000       0.028
   0.08888889  0.07843137  0.00000000       0.028
   0.08888889 -0.07843137  0.00000000       0.028
   0.13333333  0.07843137  0.00000000       0.028
   0.00000000  0.11764706  0.00000000       0.014
   0.04444444  0.11764706  0.00000000       0.028
   0.08888889  0.11764706  0.00000000       0.028
   0.13333333  0.11764706  0.00000000       0.014
   0.00000000  0.00000000  0.04487436       0.014
   0.04444444  0.00000000  0.04487436       0.028
   0.08888889  0.00000000  0.04487436       0.028
   0.13333333  0.00000000  0.04487436       0.014
   0.00000000  0.03921569  0.04487436       0.028
   0.04444444  0.03921569  0.04487436       0.028
   0.04444444 -0.03921569  0.04487436       0.028
   0.08888889  0.03921569  0.04487436       0.028
   0.08888889 -0.03921569  0.04487436       0.028
   0.13333333  0.03921569  0.04487436       0.028
   0.00000000  0.07843137  0.04487436       0.028
   0.04444444  0.07843137  0.04487436       0.028
   0.04444444 -0.07843137  0.04487436       0.028
   0.08888889  0.07843137  0.04487436       0.028
   0.08888889 -0.07843137  0.04487436       0.028
   0.13333333  0.07843137  0.04487436       0.028
   0.00000000  0.11764706  0.04487436       0.014
   0.04444444  0.11764706  0.04487436       0.028
   0.08888889  0.11764706  0.04487436       0.028
   0.13333333  0.11764706  0.04487436       0.014
 
 k-points in reciprocal lattice and weights: KPOINTS created by Atomic Simulation Env
   0.00000000  0.00000000  0.00000000       0.014
   0.16666667  0.00000000  0.00000000       0.028
   0.33333333  0.00000000  0.00000000       0.028
   0.50000000  0.00000000  0.00000000       0.014
   0.00000000  0.16666667  0.00000000       0.028
   0.16666667  0.16666667  0.00000000       0.028
   0.16666667 -0.16666667  0.00000000       0.028
   0.33333333  0.16666667  0.00000000       0.028
   0.33333333 -0.16666667  0.00000000       0.028
   0.50000000  0.16666667  0.00000000       0.028
   0.00000000  0.33333333  0.00000000       0.028
   0.16666667  0.33333333  0.00000000       0.028
   0.16666667 -0.33333333  0.00000000       0.028
   0.33333333  0.33333333  0.00000000       0.028
   0.33333333 -0.33333333  0.00000000       0.028
   0.50000000  0.33333333  0.00000000       0.028
   0.00000000  0.50000000  0.00000000       0.014
   0.16666667  0.50000000  0.00000000       0.028
   0.33333333  0.50000000  0.00000000       0.028
   0.50000000  0.50000000  0.00000000       0.014
   0.00000000  0.00000000  0.50000000       0.014
   0.16666667  0.00000000  0.50000000       0.028
   0.33333333  0.00000000  0.50000000       0.028
   0.50000000  0.00000000  0.50000000       0.014
   0.00000000  0.16666667  0.50000000       0.028
   0.16666667  0.16666667  0.50000000       0.028
   0.16666667 -0.16666667  0.50000000       0.028
   0.33333333  0.16666667  0.50000000       0.028
   0.33333333 -0.16666667  0.50000000       0.028
   0.50000000  0.16666667  0.50000000       0.028
   0.00000000  0.33333333  0.50000000       0.028
   0.16666667  0.33333333  0.50000000       0.028
   0.16666667 -0.33333333  0.50000000       0.028
   0.33333333  0.33333333  0.50000000       0.028
   0.33333333 -0.33333333  0.50000000       0.028
   0.50000000  0.33333333  0.50000000       0.028
   0.00000000  0.50000000  0.50000000       0.014
   0.16666667  0.50000000  0.50000000       0.028
   0.33333333  0.50000000  0.50000000       0.028
   0.50000000  0.50000000  0.50000000       0.014
 
 position of ions in fractional coordinates (direct lattice) 
   0.25000000  0.10446967  0.12261849
   0.75000000  0.60446967  0.37738151
   0.75000000  0.89553033  0.87738151
   0.25000000  0.39553033  0.62261849
   0.25000000  0.01132224  0.35417051
   0.75000000  0.51132224  0.14582949
   0.75000000  0.98867776  0.64582949
   0.25000000  0.48867776  0.85417051
 
 position of ions in cartesian coordinates  (Angst):
   0.93750000  0.44399612  1.36624235
   2.81250000  2.56899612  4.20486815
   2.81250000  3.80600388  9.77597865
   0.93750000  1.68100388  6.93735285
   0.93750000  0.04811952  3.94624610
   2.81250000  2.17311952  1.62486440
   2.81250000  4.20188048  7.19597490
   0.93750000  2.07688048  9.51735660
 


--------------------------------------------------------------------------------------------------------


 k-point   1 :   0.0000 0.0000 0.0000  plane waves:    2765
 k-point   2 :   0.1667 0.0000 0.0000  plane waves:    2755
 k-point   3 :   0.3333 0.0000 0.0000  plane waves:    2772
 k-point   4 :   0.5000 0.0000 0.0000  plane waves:    2756
 k-point   5 :   0.0000 0.1667 0.0000  plane waves:    2755
 k-point   6 :   0.1667 0.1667 0.0000  plane waves:    2750
 k-point   7 :   0.1667-0.1667 0.0000  plane waves:    2750
 k-point   8 :   0.3333 0.1667 0.0000  plane waves:    2762
 k-point   9 :   0.3333-0.1667 0.0000  plane waves:    2762
 k-point  10 :   0.5000 0.1667 0.0000  plane waves:    2758
 k-point  11 :   0.0000 0.3333 0.0000  plane waves:    2737
 k-point  12 :   0.1667 0.3333 0.0000  plane waves:    2736
 k-point  13 :   0.1667-0.3333 0.0000  plane waves:    2736
 k-point  14 :   0.3333 0.3333 0.0000  plane waves:    2761
 k-point  15 :   0.3333-0.3333 0.0000  plane waves:    2761
 k-point  16 :   0.5000 0.3333 0.0000  plane waves:    2760
 k-point  17 :   0.0000 0.5000 0.0000  plane waves:    2738
 k-point  18 :   0.1667 0.5000 0.0000  plane waves:    2734
 k-point  19 :   0.3333 0.5000 0.0000  plane waves:    2744
 k-point  20 :   0.5000 0.5000 0.0000  plane waves:    2768
 k-point  21 :   0.0000 0.0000 0.5000  plane waves:    2750
 k-point  22 :   0.1667 0.0000 0.5000  plane waves:    2746
 k-point  23 :   0.3333 0.0000 0.5000  plane waves:    2768
 k-point  24 :   0.5000 0.0000 0.5000  plane waves:    2768
 k-point  25 :   0.0000 0.1667 0.5000  plane waves:    2754
 k-point  26 :   0.1667 0.1667 0.5000  plane waves:    2760
 k-point  27 :   0.1667-0.1667 0.5000  plane waves:    2760
 k-point  28 :   0.3333 0.1667 0.5000  plane waves:    2762
 k-point  29 :   0.3333-0.1667 0.5000  plane waves:    2762
 k-point  30 :   0.5000 0.1667 0.5000  plane waves:    2772
 k-point  31 :   0.0000 0.3333 0.5000  plane waves:    2752
 k-point  32 :   0.1667 0.3333 0.5000  plane waves:    2748
 k-point  33 :   0.1667-0.3333 0.5000  plane waves:    2748
 k-point  34 :   0.3333 0.3333 0.5000  plane waves:    2750
 k-point  35 :   0.3333-0.3333 0.5000  plane waves:    2750
 k-point  36 :   0.5000 0.3333 0.5000  plane waves:    2756
 k-point  37 :   0.0000 0.5000 0.5000  plane waves:    2752
 k-point  38 :   0.1667 0.5000 0.5000  plane waves:    2748
 k-point  39 :   0.3333 0.5000 0.5000  plane waves:    2744
 k-point  40 :   0.5000 0.5000 0.5000  plane waves:    2752

 maximum and minimum number of plane-waves per node :       708      670

 maximum number of plane-waves:      2772
 maximum index in each direction: 
   IXMAX=    5   IYMAX=    6   IZMAX=   17
   IXMIN=   -6   IYMIN=   -7   IZMIN=  -17


 parallel 3D FFT for wavefunctions:
    minimum data exchange during FFTs selected (reduces bandwidth)
 parallel 3D FFT for charge:
    minimum data exchange during FFTs selected (reduces bandwidth)


 total amount of memory used by VASP MPI-rank0    37684. kBytes
=======================================================================

   base      :      30000. kBytes
   nonl-proj :       5947. kBytes
   fftplans  :        317. kBytes
   grid      :        462. kBytes
   one-center:         16. kBytes
   wavefun   :        942. kBytes
 
     INWAV:  cpu time      0.0000: real time      0.0001
 Broyden mixing: mesh for mixing (old mesh)
   NGX = 11   NGY = 13   NGZ = 35
  (NGX  = 36   NGY  = 40   NGZ  =108)
  gives a total of   5005 points

 initial charge density was supplied:
 charge density of overlapping atoms calculated
 number of electron      40.0000000 magnetization 
 keeping initial charge density in first step


--------------------------------------------------------------------------------------------------------


 Maximum index for augmentation-charges           137 (set IRDMAX)


--------------------------------------------------------------------------------------------------------


 First call to EWALD:  gamma=   0.315
 Maximum number of real-space cells 4x 3x 2
 Maximum number of reciprocal cells 2x 2x 5

    FEWALD:  cpu time      0.0010: real time      0.0010


--------------------------------------- Ionic step        1  -------------------------------------------




--------------------------------------- Iteration      1(   1)  ---------------------------------------


    POTLOK:  cpu time      0.0061: real time      0.0068
    SETDIJ:  cpu time      0.1392: real time      0.1397
     EDDAV:  cpu time      0.2641: real time      0.2665
       DOS:  cpu time      0.0018: real time      0.0019
    --------------------------------------------
      LOOP:  cpu time      0.4112: real time      0.4149

 eigenvalue-minimisations  :  2560
 total energy-change (2. order) : 0.1280678E+03  (-0.1304313E+04)
 number of electron      40.0000000 magnetization 
 augmentation part       40.0000000 magnetization 

 Free energy of the ion-electron system (eV)
  ---------------------------------------------------
  alpha Z        PSCENC =        95.41911710
  Ewald energy   TEWEN  =     -1471.50625681
  -Hartree energ DENC   =      -109.60309765
  -exchange      EXHF   =         0.00000000
  -V(xc)+E(xc)   XCENC  =       -32.32640292
  PAW double counting   =      1193.78262552    -1080.73714043
  entropy T*S    EENTRO =        -0.00253009
  eigenvalues    EBANDS =        84.55690408
  atomic energy  EATOM  =      1448.48460880
  Solvation  Ediel_sol  =         0.00000000
  ---------------------------------------------------
  free energy    TOTEN  =       128.06782760 eV

  energy without entropy =      128.07035769  energy(sigma->0) =      128.06909265


--------------------------------------------------------------------------------------------------------




--------------------------------------- Iteration      1(   2)  ---------------------------------------


     EDDAV:  cpu time      0.3131: real time      0.3160
       DOS:  cpu time      0.0011: real time      0.0011
    --------------------------------------------
      LOOP:  cpu time      0.3142: real time      0.3171

 eigenvalue-minimisations  :  3664
 total energy-change (2. order) :-0.1540242E+03  (-0.1497585E+03)
 number of electron      40.0000000 magnetization 
 augmentation part       40.0000000 magnetization 

 Free energy of the ion-electron system (eV)
  ---------------------------------------------------
  alpha Z        PSCENC =        95.41911710
  Ewald energy   TEWEN  =     -1471.50625681
  -Hartree energ DENC   =      -109.60309765
  -exchange      EXHF   =         0.00000000
  -V(xc)+E(xc)   XCENC  =       -32.32640292
  PAW double counting   =      1193.78262552    -1080.73714043
  entropy T*S    EENTRO =        -0.00030464
  eigenvalues    EBANDS =       -69.46953858
  atomic energy  EATOM  =      1448.48460880
  Solvation  Ediel_sol  =         0.00000000
  ---------------------------------------------------
  free energy    TOTEN  =       -25.95638961 eV

  energy without entropy =      -25.95608496  energy(sigma->0) =      -25.95623729


--------------------------------------------------------------------------------------------------------




--------------------------------------- Iteration      1(   3)  ---------------------------------------


     EDDAV:  cpu time      0.2991: real time      0.3021
       DOS:  cpu time      0.0008: real time      0.0008
    --------------------------------------------
      LOOP:  cpu time      0.2999: real time      0.3029

 eigenvalue-minimisations  :  3200
 total energy-change (2. order) :-0.7907754E+01  (-0.7890255E+01)
 number of electron      40.0000000 magnetization 
 augmentation part       40.0000000 magnetization 

 Free energy of the ion-electron system (eV)
  ---------------------------------------------------
  alpha Z        PSCENC =        95.41911710
  Ewald energy   TEWEN  =     -1471.50625681
  -Hartree energ DENC   =      -109.60309765
  -exchange      EXHF   =         0.00000000
  -V(xc)+E(xc)   XCENC  =       -32.32640292
  PAW double counting   =      1193.78262552    -1080.73714043
  entropy T*S    EENTRO =        -0.00000007
  eigenvalues    EBANDS =       -77.37759674
  atomic energy  EATOM  =      1448.48460880
  Solvation  Ediel_sol  =         0.00000000
  ---------------------------------------------------
  free energy    TOTEN  =       -33.86414320 eV

  energy without entropy =      -33.86414313  energy(sigma->0) =      -33.86414316


--------------------------------------------------------------------------------------------------------




--------------------------------------- Iteration      1(   4)  ---------------------------------------


     EDDAV:  cpu time      0.2931: real time      0.2962
       DOS:  cpu time      0.0008: real time      0.0008
    --------------------------------------------
      LOOP:  cpu time      0.2939: real time      0.2971

 eigenvalue-minimisations  :  3248
 total energy-change (2. order) :-0.4719580E-01  (-0.4718894E-01)
 number of electron      40.0000000 magnetization 
 augmentation part       40.0000000 magnetization 

 Free energy of the ion-electron system (eV)
  ---------------------------------------------------
  alpha Z        PSCENC =        95.41911710
  Ewald energy   TEWEN  =     -1471.50625681
  -Hartree energ DENC   =      -109.60309765
  -exchange      EXHF   =         0.00000000
  -V(xc)+E(xc)   XCENC  =       -32.32640292
  PAW double counting   =      1193.78262552    -1080.73714043
  entropy T*S    EENTRO =        -0.00000007
  eigenvalues    EBANDS =       -77.42479255
  atomic energy  EATOM  =      1448.48460880
  Solvation  Ediel_sol  =         0.00000000
  ---------------------------------------------------
  free energy    TOTEN  =       -33.91133900 eV

  energy without entropy =      -33.91133893  energy(sigma->0) =      -33.91133897


--------------------------------------------------------------------------------------------------------




--------------------------------------- Iteration      1(   5)  ---------------------------------------


     EDDAV:  cpu time      0.2952: real time      0.2980
       DOS:  cpu time      0.0007: real time      0.0007
    CHARGE:  cpu time      0.0044: real time      0.0044
    MIXING:  cpu time      0.0007: real time      0.0007
    --------------------------------------------
      LOOP:  cpu time      0.3010: real time      0.3038

 eigenvalue-minimisations  :  3152
 total energy-change (2. order) :-0.2749528E-03  (-0.2749466E-03)
 number of electron      39.9999998 magnetization 
 augmentation part       -7.4057391 magnetization 

 Broyden mixing:
  rms(total) = 0.68531E+00    rms(broyden)= 0.68530E+00
  rms(prec ) = 0.75310E+00
  weight for this iteration     100.00

 Free energy of the ion-electron system (eV)
  ---------------------------------------------------
  alpha Z        PSCENC =        95.41911710
  Ewald energy   TEWEN  =     -1471.50625681
  -Hartree energ DENC   =      -109.60309765
  -exchange      EXHF   =         0.00000000
  -V(xc)+E(xc)   XCENC  =       -32.32640292
  PAW double counting   =      1193.78262552    -1080.73714043
  entropy T*S    EENTRO =        -0.00000007
  eigenvalues    EBANDS =       -77.42506750
  atomic energy  EATOM  =      1448.48460880
  Solvation  Ediel_sol  =         0.00000000
  ---------------------------------------------------
  free energy    TOTEN  =       -33.91161396 eV

  energy without entropy =      -33.91161389  energy(sigma->0) =      -33.91161392


--------------------------------------------------------------------------------------------------------




--------------------------------------- Iteration      1(   6)  ---------------------------------------


    POTLOK:  cpu time      0.0052: real time      0.0054
    SETDIJ:  cpu time      0.1373: real time      0.1381
     EDDAV:  cpu time      0.3064: real time      0.3092
       DOS:  cpu time      0.0014: real time      0.0014
    CHARGE:  cpu time      0.0044: real time      0.0044
    MIXING:  cpu time      0.0005: real time      0.0005
    --------------------------------------------
      LOOP:  cpu time      0.4552: real time      0.4590

 eigenvalue-minimisations  :  3200
 total energy-change (2. order) : 0.3266557E+00  (-0.6212571E-01)
 number of electron      39.9999998 magnetization 
 augmentation part       -7.3565491 magnetization 

 Broyden mixing:
  rms(total) = 0.43068E+00    rms(broyden)= 0.43068E+00
  rms(prec ) = 0.44918E+00
  weight for this iteration     100.00

 eigenvalues of (default mixing * dielectric matrix)
  average eigenvalue GAMMA=   2.3287
  2.3287

 Free energy of the ion-electron system (eV)
  ---------------------------------------------------
  alpha Z        PSCENC =        95.41911710
  Ewald energy   TEWEN  =     -1471.50625681
  -Hartree energ DENC   =      -114.70574678
  -exchange      EXHF   =         0.00000000
  -V(xc)+E(xc)   XCENC  =       -31.76302496
  PAW double counting   =      1481.71970217    -1369.02231069
  entropy T*S    EENTRO =        -0.00064412
  eigenvalues    EBANDS =       -72.21040298
  atomic energy  EATOM  =      1448.48460880
  Solvation  Ediel_sol  =         0.00000000
  ---------------------------------------------------
  free energy    TOTEN  =       -33.58495827 eV

  energy without entropy =      -33.58431415  energy(sigma->0) =      -33.58463621


--------------------------------------------------------------------------------------------------------




--------------------------------------- Iteration      1(   7)  ---------------------------------------


    POTLOK:  cpu time      0.0105: real time      0.0562
    SETDIJ:  cpu time      0.1354: real time      0.1362
     EDDAV:  cpu time      0.2962: real time      0.2993
       DOS:  cpu time      0.0010: real time      0.0010
    CHARGE:  cpu time      0.0041: real time      0.0042
    MIXING:  cpu time      0.0005: real time      0.0005
    --------------------------------------------
      LOOP:  cpu time      0.4479: real time      0.4975

 eigenvalue-minimisations  :  3168
 total energy-change (2. order) : 0.1099992E-01  (-0.2288264E-01)
 number of electron      39.9999998 magnetization 
 augmentation part       -7.3393114 magnetization 

 Broyden mixing:
  rms(total) = 0.11274E+00    rms(broyden)= 0.11274E+00
  rms(prec ) = 0.12129E+00
  weight for this iteration     100.00

 eigenvalues of (default mixing * dielectric matrix)
  average eigenvalue GAMMA=   1.8274
  1.2581  2.3966

 Free energy of the ion-electron system (eV)
  ---------------------------------------------------
  alpha Z        PSCENC =        95.41911710
  Ewald energy   TEWEN  =     -1471.50625681
  -Hartree energ DENC   =      -117.38470245
  -exchange      EXHF   =         0.00000000
  -V(xc)+E(xc)   XCENC  =       -31.25902031
  PAW double counting   =      1878.13969660    -1765.75393554
  entropy T*S    EENTRO =        -0.00177875
  eigenvalues    EBANDS =       -69.71168698
  atomic energy  EATOM  =      1448.48460880
  Solvation  Ediel_sol  =         0.00000000
  ---------------------------------------------------
  free energy    TOTEN  =       -33.57395834 eV

  energy without entropy =      -33.57217959  energy(sigma->0) =      -33.57306897


--------------------------------------------------------------------------------------------------------




--------------------------------------- Iteration      1(   8)  ---------------------------------------


    POTLOK:  cpu time      0.0050: real time      0.0052
    SETDIJ:  cpu time      0.1370: real time      0.1381
     EDDAV:  cpu time      0.2789: real time      0.2819
       DOS:  cpu time      0.0010: real time      0.0010
    CHARGE:  cpu time      0.0041: real time      0.0042
    MIXING:  cpu time      0.0005: real time      0.0005
    --------------------------------------------
      LOOP:  cpu time      0.4266: real time      0.4309

 eigenvalue-minimisations  :  3040
 total energy-change (2. order) : 0.3575126E-02  (-0.2966708E-02)
 number of electron      39.9999998 magnetization 
 augmentation part       -7.3505357 magnetization 

 Broyden mixing:
  rms(total) = 0.17686E-01    rms(broyden)= 0.17686E-01
  rms(prec ) = 0.21326E-01
  weight for this iteration     100.00

 eigenvalues of (default mixing * dielectric matrix)
  average eigenvalue GAMMA=   1.7462
  2.5557  1.3414  1.3414

 Free energy of the ion-electron system (eV)
  ---------------------------------------------------
  alpha Z        PSCENC =        95.41911710
  Ewald energy   TEWEN  =     -1471.50625681
  -Hartree energ DENC   =      -117.04776346
  -exchange      EXHF   =         0.00000000
  -V(xc)+E(xc)   XCENC  =       -31.17592352
  PAW double counting   =      1997.83872415    -1885.50420034
  entropy T*S    EENTRO =        -0.00128250
  eigenvalues    EBANDS =       -70.07740663
  atomic energy  EATOM  =      1448.48460880
  Solvation  Ediel_sol  =         0.00000000
  ---------------------------------------------------
  free energy    TOTEN  =       -33.57038322 eV

  energy without entropy =      -33.56910072  energy(sigma->0) =      -33.56974197


--------------------------------------------------------------------------------------------------------




--------------------------------------- Iteration      1(   9)  ---------------------------------------


    POTLOK:  cpu time      0.0051: real time      0.0053
    SETDIJ:  cpu time      0.1370: real time      0.1381
     EDDAV:  cpu time      0.2874: real time      0.2907
       DOS:  cpu time      0.0010: real time      0.0011
    CHARGE:  cpu time      0.0040: real time      0.0041
    MIXING:  cpu time      0.0005: real time      0.0005
    --------------------------------------------
      LOOP:  cpu time      0.4350: real time      0.4397

 eigenvalue-minimisations  :  3152
 total energy-change (2. order) :-0.1825950E-03  (-0.3895253E-03)
 number of electron      39.9999998 magnetization 
 augmentation part       -7.3482159 magnetization 

 Broyden mixing:
  rms(total) = 0.63723E-02    rms(broyden)= 0.63723E-02
  rms(prec ) = 0.71214E-02
  weight for this iteration     100.00

 eigenvalues of (default mixing * dielectric matrix)
  average eigenvalue GAMMA=   1.6791
  2.1869  2.1869  1.1712  1.1712

 Free energy of the ion-electron system (eV)
  ---------------------------------------------------
  alpha Z        PSCENC =        95.41911710
  Ewald energy   TEWEN  =     -1471.50625681
  -Hartree energ DENC   =      -117.41889015
  -exchange      EXHF   =         0.00000000
  -V(xc)+E(xc)   XCENC  =       -31.13407040
  PAW double counting   =      2014.46485436    -1902.14453354
  entropy T*S    EENTRO =        -0.00142229
  eigenvalues    EBANDS =       -69.73397289
  atomic energy  EATOM  =      1448.48460880
  Solvation  Ediel_sol  =         0.00000000
  ---------------------------------------------------
  free energy    TOTEN  =       -33.57056581 eV

  energy without entropy =      -33.56914352  energy(sigma->0) =      -33.56985467


--------------------------------------------------------------------------------------------------------




--------------------------------------- Iteration      1(  10)  ---------------------------------------


    POTLOK:  cpu time      0.0047: real time      0.0049
    SETDIJ:  cpu time      0.1378: real time      0.1383
     EDDAV:  cpu time      0.2860: real time      0.2875
       DOS:  cpu time      0.0008: real time      0.0008
    CHARGE:  cpu time      0.0039: real time      0.0039
    MIXING:  cpu time      0.0005: real time      0.0005
    --------------------------------------------
      LOOP:  cpu time      0.4337: real time      0.4360

 eigenvalue-minimisations  :  3088
 total energy-change (2. order) :-0.8254945E-05  (-0.2135020E-04)
 number of electron      39.9999998 magnetization 
 augmentation part       -7.3486128 magnetization 

 Broyden mixing:
  rms(total) = 0.23869E-02    rms(broyden)= 0.23869E-02
  rms(prec ) = 0.28041E-02
  weight for this iteration     100.00

 eigenvalues of (default mixing * dielectric matrix)
  average eigenvalue GAMMA=   1.7267
  2.5593  2.5593  1.0829  1.2160  1.2160

 Free energy of the ion-electron system (eV)
  ---------------------------------------------------
  alpha Z        PSCENC =        95.41911710
  Ewald energy   TEWEN  =     -1471.50625681
  -Hartree energ DENC   =      -117.38828386
  -exchange      EXHF   =         0.00000000
  -V(xc)+E(xc)   XCENC  =       -31.13693407
  PAW double counting   =      2007.14123627    -1894.81458420
  entropy T*S    EENTRO =        -0.00137479
  eigenvalues    EBANDS =       -69.76810251
  atomic energy  EATOM  =      1448.48460880
  Solvation  Ediel_sol  =         0.00000000
  ---------------------------------------------------
  free energy    TOTEN  =       -33.57057407 eV

  energy without entropy =      -33.56919928  energy(sigma->0) =      -33.56988667


--------------------------------------------------------------------------------------------------------




--------------------------------------- Iteration      1(  11)  ---------------------------------------


    POTLOK:  cpu time      0.0035: real time      0.0036
    SETDIJ:  cpu time      0.1387: real time      0.1391
     EDDAV:  cpu time      0.2060: real time      0.2071
       DOS:  cpu time      0.0006: real time      0.0006
    CHARGE:  cpu time      0.0035: real time      0.0036
    MIXING:  cpu time      0.0003: real time      0.0003
    --------------------------------------------
      LOOP:  cpu time      0.3527: real time      0.3544

 eigenvalue-minimisations  :  3152
 total energy-change (2. order) :-0.2558453E-04  (-0.4364649E-05)
 number of electron      39.9999998 magnetization 
 augmentation part       -7.3487883 magnetization 

 Broyden mixing:
  rms(total) = 0.10781E-02    rms(broyden)= 0.10781E-02
  rms(prec ) = 0.13015E-02
  weight for this iteration     100.00

 eigenvalues of (default mixing * dielectric matrix)
  average eigenvalue GAMMA=   1.7161
  2.4991  2.2863  2.2863  1.1652  1.1652  0.8948

 Free energy of the ion-electron system (eV)
  ---------------------------------------------------
  alpha Z        PSCENC =        95.41911710
  Ewald energy   TEWEN  =     -1471.50625681
  -Hartree energ DENC   =      -117.41141521
  -exchange      EXHF   =         0.00000000
  -V(xc)+E(xc)   XCENC  =       -31.13151662
  PAW double counting   =      2007.66890841    -1895.34196414
  entropy T*S    EENTRO =        -0.00136492
  eigenvalues    EBANDS =       -69.75071626
  atomic energy  EATOM  =      1448.48460880
  Solvation  Ediel_sol  =         0.00000000
  ---------------------------------------------------
  free energy    TOTEN  =       -33.57059965 eV

  energy without entropy =      -33.56923473  energy(sigma->0) =      -33.56991719


--------------------------------------------------------------------------------------------------------




--------------------------------------- Iteration      1(  12)  ---------------------------------------


    POTLOK:  cpu time      0.0034: real time      0.0036
    SETDIJ:  cpu time      0.1085: real time      0.1088
     EDDAV:  cpu time      0.2241: real time      0.2252
       DOS:  cpu time      0.0006: real time      0.0006
    --------------------------------------------
      LOOP:  cpu time      0.3366: real time      0.3381

 eigenvalue-minimisations  :  3312
 total energy-change (2. order) :-0.5682068E-07  (-0.8975802E-06)
 number of electron      39.9999998 magnetization 
 augmentation part       -7.3487883 magnetization 

 Free energy of the ion-electron system (eV)
  ---------------------------------------------------
  alpha Z        PSCENC =        95.41911710
  Ewald energy   TEWEN  =     -1471.50625681
  -Hartree energ DENC   =      -117.42943258
  -exchange      EXHF   =         0.00000000
  -V(xc)+E(xc)   XCENC  =       -31.12980903
  PAW double counting   =      2007.62495362    -1895.29835388
  entropy T*S    EENTRO =        -0.00137658
  eigenvalues    EBANDS =       -69.73405036
  atomic energy  EATOM  =      1448.48460880
  Solvation  Ediel_sol  =         0.00000000
  ---------------------------------------------------
  free energy    TOTEN  =       -33.57059971 eV

  energy without entropy =      -33.56922312  energy(sigma->0) =      -33.56991142


--------------------------------------------------------------------------------------------------------




 average (electrostatic) potential at core
  the test charge radii are     1.1631  1.0808
  (the norm of the test charge is              1.0000)
       1 -32.7147       2 -32.7147       3 -32.7147       4 -32.7147       5 -54.2840
       6 -54.2840       7 -54.2840       8 -54.2840
 
 
 
 E-fermi :   4.2678     XC(G=0):  -9.7085     alpha+bet : -9.5059

 Fermi energy:         4.2678058629

 k-point     1 :       0.0000    0.0000    0.0000
  band No.  band energies     occupation 
      1     -10.6290      2.00000
      2     -10.2625      2.00000
      3      -9.2776      2.00000
      4      -8.6783      2.00000
      5      -3.7601      2.00000
      6      -3.1468      2.00000
      7      -1.8600      2.00000
      8      -1.3079      2.00000
      9      -1.2526      2.00000
     10       0.1318      2.00000
     11       0.2397      2.00000
     12       0.4500      2.00000
     13       0.7736      2.00000
     14       1.1929      2.00000
     15       1.8861      2.00000
     16       2.0040      2.00000
     17       2.4370      2.00000
     18       2.6386      2.00000
     19       3.2383      2.00000
     20       4.0175      2.00000
     21       4.3151      0.18100
     22       6.8720      0.00000
     23       7.0810      0.00000
     24       7.2533      0.00000
     25       7.4582      0.00000
     26       7.5038      0.00000
     27       8.1021      0.00000
     28       8.7847      0.00000
     29       9.3563      0.00000
     30       9.6103      0.00000
     31       9.6182      0.00000
     32      10.3269      0.00000

 k-point     2 :       0.1667    0.0000    0.0000
  band No.  band energies     occupation 
      1     -10.4131      2.00000
      2     -10.0622      2.00000
      3      -9.1290      2.00000
      4      -8.5974      2.00000
      5      -4.0762      2.00000
      6      -3.5738      2.00000
      7      -2.0955      2.00000
      8      -2.0400      2.00000
      9      -1.3308      2.00000
     10       0.2432      2.00000
     11       0.3837      2.00000
     12       0.6569      2.00000
     13       0.8793      2.00000
     14       0.9035      2.00000
     15       1.9676      2.00000
     16       2.0427      2.00000
     17       2.3255      2.00000
     18       2.9900      2.00000
     19       3.3123      2.00000
     20       3.7056      2.00000
     21       4.5053      0.00000
     22       6.4394      0.00000
     23       7.0134      0.00000
     24       7.2398      0.00000
     25       7.5205      0.00000
     26       7.8208      0.00000
     27       8.0420      0.00000
     28       8.1703      0.00000
     29       8.3135      0.00000
     30       9.0479      0.00000
     31       9.3238      0.00000
     32       9.5263      0.00000

 k-point     3 :       0.3333    0.0000    0.0000
  band No.  band energies     occupation 
      1      -9.8138      2.00000
      2      -9.5269      2.00000
      3      -8.8445      2.00000
      4      -8.5689      2.00000
      5      -4.7379      2.00000
      6      -4.2810      2.00000
      7      -3.6396      2.00000
      8      -3.1077      2.00000
      9      -0.7000      2.00000
     10       0.5792      2.00000
     11       0.9354      2.00000
     12       1.1562      2.00000
     13       1.1897      2.00000
     14       1.1957      2.00000
     15       2.0782      2.00000
     16       2.2573      2.00000
     17       2.5491      2.00000
     18       2.8969      2.00000
     19       3.2411      2.00000
     20       3.5244      2.00000
     21       4.8046      0.00000
     22       4.9934      0.00000
     23       5.6073      0.00000
     24       6.0529      0.00000
     25       6.1376      0.00000
     26       6.5326      0.00000
     27       6.6541      0.00000
     28       7.4849      0.00000
     29       7.7741      0.00000
     30       8.0113      0.00000
     31       8.3201      0.00000
     32       9.3696      0.00000

 k-point     4 :       0.5000    0.0000    0.0000
  band No.  band energies     occupation 
      1      -9.0389      2.00000
      2      -9.0389      2.00000
      3      -8.9430      2.00000
      4      -8.9430      2.00000
      5      -4.7393      2.00000
      6      -4.7393      2.00000
      7      -4.1381      2.00000
      8      -4.1381      2.00000
      9       0.2970      2.00000
     10       0.2970      2.00000
     11       1.4460      2.00000
     12       1.4460      2.00000
     13       1.5965      2.00000
     14       1.5965      2.00000
     15       2.1710      2.00000
     16       2.1710      2.00000
     17       2.8586      2.00000
     18       2.8586      2.00000
     19       2.8719      2.00000
     20       2.8719      2.00000
     21       5.0921      0.00000
     22       5.0921      0.00000
     23       5.2243      0.00000
     24       5.2243      0.00000
     25       5.6464      0.00000
     26       5.6464      0.00000
     27       6.2443      0.00000
     28       6.2443      0.00000
     29       6.8836      0.00000
     30       6.8836      0.00000
     31       8.9281      0.00000
     32       8.9281      0.00000

 k-point     5 :       0.0000    0.1667    0.0000
  band No.  band energies     occupation 
      1     -10.4808      2.00000
      2     -10.1215      2.00000
      3      -9.2397      2.00000
      4      -8.6941      2.00000
      5      -4.3415      2.00000
      6      -3.4937      2.00000
      7      -2.6327      2.00000
      8      -1.9548      2.00000
      9      -1.3307      2.00000
     10       0.5109      2.00000
     11       0.9529      2.00000
     12       1.0357      2.00000
     13       1.1635      2.00000
     14       1.3605      2.00000
     15       2.1072      2.00000
     16       2.4318      2.00000
     17       2.6906      2.00000
     18       2.9005      2.00000
     19       3.1445      2.00000
     20       3.8851      2.00000
     21       4.2955      0.43364
     22       6.5086      0.00000
     23       7.1025      0.00000
     24       7.1674      0.00000
     25       7.3137      0.00000
     26       7.3283      0.00000
     27       7.9490      0.00000
     28       8.1497      0.00000
     29       8.5255      0.00000
     30       8.9776      0.00000
     31       9.5047      0.00000
     32       9.5586      0.00000

 k-point     6 :       0.1667    0.1667    0.0000
  band No.  band energies     occupation 
      1     -10.2703      2.00000
      2      -9.9275      2.00000
      3      -9.0958      2.00000
      4      -8.6115      2.00000
      5      -4.4146      2.00000
      6      -3.6710      2.00000
      7      -2.7389      2.00000
      8      -2.3074      2.00000
      9      -1.1766      2.00000
     10      -0.3183      2.00000
     11      -0.1076      2.00000
     12       0.8652      2.00000
     13       1.2442      2.00000
     14       1.7862      2.00000
     15       1.9403      2.00000
     16       2.0036      2.00000
     17       3.0201      2.00000
     18       3.0617      2.00000
     19       3.4906      2.00000
     20       3.7343      2.00000
     21       4.5652      0.00000
     22       5.9220      0.00000
     23       6.3138      0.00000
     24       6.4697      0.00000
     25       7.3159      0.00000
     26       7.8304      0.00000
     27       8.1242      0.00000
     28       8.1602      0.00000
     29       8.8154      0.00000
     30       8.9687      0.00000
     31       9.0373      0.00000
     32       9.8192      0.00000

 k-point     7 :       0.1667   -0.1667    0.0000
  band No.  band energies     occupation 
      1     -10.2703      2.00000
      2      -9.9275      2.00000
      3      -9.0958      2.00000
      4      -8.6115      2.00000
      5      -4.4146      2.00000
      6      -3.6710      2.00000
      7      -2.7389      2.00000
      8      -2.3074      2.00000
      9      -1.1766      2.00000
     10      -0.3183      2.00000
     11      -0.1076      2.00000
     12       0.8652      2.00000
     13       1.2442      2.00000
     14       1.7862      2.00000
     15       1.9403      2.00000
     16       2.0036      2.00000
     17       3.0201      2.00000
     18       3.0617      2.00000
     19       3.4906      2.00000
     20       3.7343      2.00000
     21       4.5652      0.00000
     22       5.9220      0.00000
     23       6.3138      0.00000
     24       6.4697      0.00000
     25       7.3159      0.00000
     26       7.8304      0.00000
     27       8.1242      0.00000
     28       8.1602      0.00000
     29       8.8154      0.00000
     30       8.9687      0.00000
     31       9.0373      0.00000
     32       9.8192      0.00000

 k-point     8 :       0.3333    0.1667    0.0000
  band No.  band energies     occupation 
      1      -9.6922      2.00000
      2      -9.4165      2.00000
      3      -8.8172      2.00000
      4      -8.5606      2.00000
      5      -4.6891      2.00000
      6      -4.1452      2.00000
      7      -3.6036      2.00000
      8      -3.2052      2.00000
      9      -0.6144      2.00000
     10      -0.5510      2.00000
     11      -0.2777      2.00000
     12       0.5413      2.00000
     13       1.2007      2.00000
     14       1.7553      2.00000
     15       1.7889      2.00000
     16       2.2797      2.00000
     17       2.3380      2.00000
     18       2.7798      2.00000
     19       3.0084      2.00000
     20       3.2420      2.00000
     21       4.7795      0.00000
     22       5.5206      0.00000
     23       5.9375      0.00000
     24       6.0818      0.00000
     25       6.3839      0.00000
     26       7.3366      0.00000
     27       7.8127      0.00000
     28       8.1650      0.00000
     29       8.3182      0.00000
     30       8.5090      0.00000
     31       9.0844      0.00000
     32       9.6659      0.00000

 k-point     9 :       0.3333   -0.1667    0.0000
  band No.  band energies     occupation 
      1      -9.6922      2.00000
      2      -9.4165      2.00000
      3      -8.8172      2.00000
      4      -8.5606      2.00000
      5      -4.6891      2.00000
      6      -4.1452      2.00000
      7      -3.6036      2.00000
      8      -3.2052      2.00000
      9      -0.6144      2.00000
     10      -0.5510      2.00000
     11      -0.2777      2.00000
     12       0.5413      2.00000
     13       1.2007      2.00000
     14       1.7553      2.00000
     15       1.7889      2.00000
     16       2.2797      2.00000
     17       2.3380      2.00000
     18       2.7798      2.00000
     19       3.0084      2.00000
     20       3.2420      2.00000
     21       4.7795      0.00000
     22       5.5206      0.00000
     23       5.9375      0.00000
     24       6.0818      0.00000
     25       6.3839      0.00000
     26       7.3366      0.00000
     27       7.8127      0.00000
     28       8.1650      0.00000
     29       8.3182      0.00000
     30       8.5090      0.00000
     31       9.0844      0.00000
     32       9.6659      0.00000

 k-point    10 :       0.5000    0.1667    0.0000
  band No.  band energies     occupation 
      1      -8.9675      2.00000
      2      -8.9675      2.00000
      3      -8.8820      2.00000
      4      -8.8820      2.00000
      5      -4.5839      2.00000
      6      -4.5839      2.00000
      7      -4.0420      2.00000
      8      -4.0420      2.00000
      9       0.0136      2.00000
     10       0.0136      2.00000
     11       0.3587      2.00000
     12       0.3587      2.00000
     13       0.9666      2.00000
     14       0.9666      2.00000
     15       1.6866      2.00000
     16       1.6866      2.00000
     17       2.2655      2.00000
     18       2.2655      2.00000
     19       3.0779      2.00000
     20       3.0779      2.00000
     21       5.0116      0.00000
     22       5.0116      0.00000
     23       6.2126      0.00000
     24       6.2126      0.00000
     25       7.0822      0.00000
     26       7.0822      0.00000
     27       7.1945      0.00000
     28       7.1945      0.00000
     29       8.1636      0.00000
     30       8.1636      0.00000
     31       8.6238      0.00000
     32       8.6238      0.00000

 k-point    11 :       0.0000    0.3333    0.0000
  band No.  band energies     occupation 
      1     -10.0758      2.00000
      2      -9.7352      2.00000
      3      -9.2560      2.00000
      4      -8.8401      2.00000
      5      -5.0220      2.00000
      6      -4.0173      2.00000
      7      -3.9692      2.00000
      8      -3.0078      2.00000
      9      -0.8418      2.00000
     10       0.9259      2.00000
     11       1.4440      2.00000
     12       1.8130      2.00000
     13       1.8422      2.00000
     14       2.1012      2.00000
     15       2.2646      2.00000
     16       2.6610      2.00000
     17       2.6893      2.00000
     18       3.4365      2.00000
     19       3.7607      2.00000
     20       4.2453      1.47586
     21       4.9608      0.00000
     22       5.3054      0.00000
     23       5.8774      0.00000
     24       6.2896      0.00000
     25       6.7564      0.00000
     26       7.1245      0.00000
     27       7.2750      0.00000
     28       7.4407      0.00000
     29       7.5583      0.00000
     30       8.2228      0.00000
     31       8.9009      0.00000
     32       9.9963      0.00000

 k-point    12 :       0.1667    0.3333    0.0000
  band No.  band energies     occupation 
      1      -9.8835      2.00000
      2      -9.5621      2.00000
      3      -9.1157      2.00000
      4      -8.7412      2.00000
      5      -4.8757      2.00000
      6      -3.8945      2.00000
      7      -3.8688      2.00000
      8      -3.0223      2.00000
      9      -0.6422      2.00000
     10      -0.2642      2.00000
     11      -0.0340      2.00000
     12       0.9436      2.00000
     13       1.1004      2.00000
     14       1.5700      2.00000
     15       1.9502      2.00000
     16       2.6964      2.00000
     17       2.9688      2.00000
     18       3.2935      2.00000
     19       3.3164      2.00000
     20       3.6271      2.00000
     21       4.9526      0.00000
     22       5.8117      0.00000
     23       6.4755      0.00000
     24       6.6400      0.00000
     25       6.6797      0.00000
     26       7.1619      0.00000
     27       7.9531      0.00000
     28       8.7512      0.00000
     29       8.8069      0.00000
     30       8.8878      0.00000
     31       9.3878      0.00000
     32       9.7472      0.00000

 k-point    13 :       0.1667   -0.3333    0.0000
  band No.  band energies     occupation 
      1      -9.8835      2.00000
      2      -9.5621      2.00000
      3      -9.1157      2.00000
      4      -8.7412      2.00000
      5      -4.8757      2.00000
      6      -3.8945      2.00000
      7      -3.8688      2.00000
      8      -3.0223      2.00000
      9      -0.6422      2.00000
     10      -0.2642      2.00000
     11      -0.0340      2.00000
     12       0.9436      2.00000
     13       1.1004      2.00000
     14       1.5700      2.00000
     15       1.9502      2.00000
     16       2.6964      2.00000
     17       2.9688      2.00000
     18       3.2935      2.00000
     19       3.3164      2.00000
     20       3.6271      2.00000
     21       4.9526      0.00000
     22       5.8117      0.00000
     23       6.4755      0.00000
     24       6.6400      0.00000
     25       6.6797      0.00000
     26       7.1619      0.00000
     27       7.9531      0.00000
     28       8.7512      0.00000
     29       8.8069      0.00000
     30       8.8878      0.00000
     31       9.3878      0.00000
     32       9.7472      0.00000

 k-point    14 :       0.3333    0.3333    0.0000
  band No.  band energies     occupation 
      1      -9.3747      2.00000
      2      -9.1300      2.00000
      3      -8.8206      2.00000
      4      -8.6015      2.00000
      5      -4.5656      2.00000
      6      -3.8275      2.00000
      7      -3.7875      2.00000
      8      -3.3831      2.00000
      9      -1.3496      2.00000
     10      -0.9904      2.00000
     11      -0.4191      2.00000
     12      -0.1014      2.00000
     13       0.1990      2.00000
     14       0.8599      2.00000
     15       1.2888      2.00000
     16       1.5233      2.00000
     17       2.0903      2.00000
     18       2.2958      2.00000
     19       2.6145      2.00000
     20       3.0364      2.00000
     21       4.9457      0.00000
     22       6.9985      0.00000
     23       7.0779      0.00000
     24       7.4504      0.00000
     25       7.6120      0.00000
     26       8.1231      0.00000
     27       8.3218      0.00000
     28       9.0367      0.00000
     29       9.0891      0.00000
     30       9.5041      0.00000
     31       9.7534      0.00000
     32      10.1800      0.00000

 k-point    15 :       0.3333   -0.3333    0.0000
  band No.  band energies     occupation 
      1      -9.3747      2.00000
      2      -9.1300      2.00000
      3      -8.8206      2.00000
      4      -8.6015      2.00000
      5      -4.5656      2.00000
      6      -3.8275      2.00000
      7      -3.7875      2.00000
      8      -3.3831      2.00000
      9      -1.3496      2.00000
     10      -0.9904      2.00000
     11      -0.4191      2.00000
     12      -0.1014      2.00000
     13       0.1990      2.00000
     14       0.8599      2.00000
     15       1.2888      2.00000
     16       1.5233      2.00000
     17       2.0903      2.00000
     18       2.2958      2.00000
     19       2.6145      2.00000
     20       3.0364      2.00000
     21       4.9457      0.00000
     22       6.9985      0.00000
     23       7.0779      0.00000
     24       7.4504      0.00000
     25       7.6120      0.00000
     26       8.1231      0.00000
     27       8.3218      0.00000
     28       9.0367      0.00000
     29       9.0891      0.00000
     30       9.5041      0.00000
     31       9.7534      0.00000
     32      10.1800      0.00000

 k-point    16 :       0.5000    0.3333    0.0000
  band No.  band energies     occupation 
      1      -8.8108      2.00000
      2      -8.8108      2.00000
      3      -8.7557      2.00000
      4      -8.7557      2.00000
      5      -4.1938      2.00000
      6      -4.1938      2.00000
      7      -3.8477      2.00000
      8      -3.8477      2.00000
      9      -1.0260      2.00000
     10      -1.0260      2.00000
     11      -0.5250      2.00000
     12      -0.5250      2.00000
     13       0.1451      2.00000
     14       0.1451      2.00000
     15       0.9394      2.00000
     16       0.9394      2.00000
     17       1.5246      2.00000
     18       1.5246      2.00000
     19       2.6697      2.00000
     20       2.6697      2.00000
     21       6.0811      0.00000
     22       6.0811      0.00000
     23       7.6603      0.00000
     24       7.6603      0.00000
     25       8.4124      0.00000
     26       8.4124      0.00000
     27       8.6296      0.00000
     28       8.6296      0.00000
     29       8.9553      0.00000
     30       8.9553      0.00000
     31      10.2897      0.00000
     32      10.2897      0.00000

 k-point    17 :       0.0000    0.5000    0.0000
  band No.  band energies     occupation 
      1      -9.5688      2.00000
      2      -9.5688      2.00000
      3      -9.2330      2.00000
      4      -9.2330      2.00000
      5      -4.9290      2.00000
      6      -4.9290      2.00000
      7      -3.8166      2.00000
      8      -3.8166      2.00000
      9       0.0396      2.00000
     10       0.0396      2.00000
     11       2.0382      2.00000
     12       2.0382      2.00000
     13       2.3595      2.00000
     14       2.3595      2.00000
     15       2.4936      2.00000
     16       2.4936      2.00000
     17       3.3670      2.00000
     18       3.3670      2.00000
     19       3.9620      2.00000
     20       3.9620      2.00000
     21       5.5867      0.00000
     22       5.5867      0.00000
     23       5.9841      0.00000
     24       5.9841      0.00000
     25       6.1915      0.00000
     26       6.1915      0.00000
     27       6.4520      0.00000
     28       6.4520      0.00000
     29       7.2832      0.00000
     30       7.2832      0.00000
     31       9.7855      0.00000
     32       9.7855      0.00000

 k-point    18 :       0.1667    0.5000    0.0000
  band No.  band energies     occupation 
      1      -9.4071      2.00000
      2      -9.4071      2.00000
      3      -9.0961      2.00000
      4      -9.0961      2.00000
      5      -4.7359      2.00000
      6      -4.7359      2.00000
      7      -3.6834      2.00000
      8      -3.6834      2.00000
      9       0.0298      2.00000
     10       0.0298      2.00000
     11       0.4553      2.00000
     12       0.4553      2.00000
     13       0.9064      2.00000
     14       0.9064      2.00000
     15       2.2890      2.00000
     16       2.2890      2.00000
     17       3.0193      2.00000
     18       3.0193      2.00000
     19       3.5290      2.00000
     20       3.5290      2.00000
     21       5.3353      0.00000
     22       5.3353      0.00000
     23       6.7264      0.00000
     24       6.7264      0.00000
     25       7.4504      0.00000
     26       7.4504      0.00000
     27       8.1206      0.00000
     28       8.1206      0.00000
     29       8.6827      0.00000
     30       8.6827      0.00000
     31       9.5064      0.00000
     32       9.5064      0.00000

 k-point    19 :       0.3333    0.5000    0.0000
  band No.  band energies     occupation 
      1      -9.0152      2.00000
      2      -9.0152      2.00000
      3      -8.8026      2.00000
      4      -8.8026      2.00000
      5      -4.2764      2.00000
      6      -4.2764      2.00000
      7      -3.5403      2.00000
      8      -3.5403      2.00000
      9      -1.1687      2.00000
     10      -1.1687      2.00000
     11      -0.7061      2.00000
     12      -0.7061      2.00000
     13       0.3838      2.00000
     14       0.3838      2.00000
     15       1.1808      2.00000
     16       1.1808      2.00000
     17       1.6568      2.00000
     18       1.6568      2.00000
     19       2.7458      2.00000
     20       2.7458      2.00000
     21       5.9383      0.00000
     22       5.9383      0.00000
     23       8.1471      0.00000
     24       8.1471      0.00000
     25       8.7338      0.00000
     26       8.7338      0.00000
     27       9.0785      0.00000
     28       9.0785      0.00000
     29       9.4404      0.00000
     30       9.4404      0.00000
     31      10.5625      0.00000
     32      10.5633      0.00000

 k-point    20 :       0.5000    0.5000    0.0000
  band No.  band energies     occupation 
      1      -8.7197      2.00000
      2      -8.7197      2.00000
      3      -8.6947      2.00000
      4      -8.6947      2.00000
      5      -3.9152      2.00000
      6      -3.9152      2.00000
      7      -3.7720      2.00000
      8      -3.7720      2.00000
      9      -1.4379      2.00000
     10      -1.4379      2.00000
     11      -0.9754      2.00000
     12      -0.9754      2.00000
     13      -0.1868      2.00000
     14      -0.1868      2.00000
     15       0.3370      2.00000
     16       0.3370      2.00000
     17       1.6806      2.00000
     18       1.6806      2.00000
[...]
     32       8.8455      0.00000

 k-point    32 :       0.1667    0.3333    0.5000
  band No.  band energies     occupation 
      1      -9.7586      2.00000
      2      -9.7586      2.00000
      3      -8.8933      2.00000
      4      -8.8933      2.00000
      5      -4.5423      2.00000
      6      -4.5423      2.00000
      7      -3.3502      2.00000
      8      -3.3502      2.00000
      9      -0.2102      2.00000
     10      -0.2102      2.00000
     11       0.4973      2.00000
     12       0.4973      2.00000
     13       0.9808      2.00000
     14       0.9808      2.00000
     15       2.2845      2.00000
     16       2.2845      2.00000
     17       3.0036      2.00000
     18       3.0036      2.00000
     19       3.4959      2.00000
     20       3.4959      2.00000
     21       6.0577      0.00000
     22       6.0577      0.00000
     23       6.5229      0.00000
     24       6.5229      0.00000
     25       6.9812      0.00000
     26       6.9812      0.00000
     27       7.9477      0.00000
     28       7.9477      0.00000
     29       8.5101      0.00000
     30       8.5101      0.00000
     31       9.4213      0.00000
     32       9.4213      0.00000

 k-point    33 :       0.1667   -0.3333    0.5000
  band No.  band energies     occupation 
      1      -9.7586      2.00000
      2      -9.7586      2.00000
      3      -8.8933      2.00000
      4      -8.8933      2.00000
      5      -4.5423      2.00000
      6      -4.5423      2.00000
      7      -3.3502      2.00000
      8      -3.3502      2.00000
      9      -0.2102      2.00000
     10      -0.2102      2.00000
     11       0.4973      2.00000
     12       0.4973      2.00000
     13       0.9808      2.00000
     14       0.9808      2.00000
     15       2.2845      2.00000
     16       2.2845      2.00000
     17       3.0036      2.00000
     18       3.0036      2.00000
     19       3.4959      2.00000
     20       3.4959      2.00000
     21       6.0577      0.00000
     22       6.0577      0.00000
     23       6.5229      0.00000
     24       6.5229      0.00000
     25       6.9812      0.00000
     26       6.9812      0.00000
     27       7.9477      0.00000
     28       7.9477      0.00000
     29       8.5101      0.00000
     30       8.5101      0.00000
     31       9.4213      0.00000
     32       9.4213      0.00000

 k-point    34 :       0.3333    0.3333    0.5000
  band No.  band energies     occupation 
      1      -9.2772      2.00000
      2      -9.2772      2.00000
      3      -8.6863      2.00000
      4      -8.6863      2.00000
      5      -4.2922      2.00000
      6      -4.2922      2.00000
      7      -3.5198      2.00000
      8      -3.5198      2.00000
      9      -1.1594      2.00000
     10      -1.1594      2.00000
     11      -0.2080      2.00000
     12      -0.2080      2.00000
     13       0.5897      2.00000
     14       0.5897      2.00000
     15       1.3262      2.00000
     16       1.3262      2.00000
     17       2.0189      2.00000
     18       2.0189      2.00000
     19       2.8648      2.00000
     20       2.8648      2.00000
     21       6.3481      0.00000
     22       6.3481      0.00000
     23       7.0758      0.00000
     24       7.0758      0.00000
     25       7.3128      0.00000
     26       7.3128      0.00000
     27       8.6974      0.00000
     28       8.6974      0.00000
     29       9.2829      0.00000
     30       9.2829      0.00000
     31      10.7460      0.00000
     32      10.7460      0.00000

 k-point    35 :       0.3333   -0.3333    0.5000
  band No.  band energies     occupation 
      1      -9.2772      2.00000
      2      -9.2772      2.00000
      3      -8.6863      2.00000
      4      -8.6863      2.00000
      5      -4.2922      2.00000
      6      -4.2922      2.00000
      7      -3.5198      2.00000
      8      -3.5198      2.00000
      9      -1.1594      2.00000
     10      -1.1594      2.00000
     11      -0.2080      2.00000
     12      -0.2080      2.00000
     13       0.5897      2.00000
     14       0.5897      2.00000
     15       1.3262      2.00000
     16       1.3262      2.00000
     17       2.0189      2.00000
     18       2.0189      2.00000
     19       2.8648      2.00000
     20       2.8648      2.00000
     21       6.3481      0.00000
     22       6.3481      0.00000
     23       7.0758      0.00000
     24       7.0758      0.00000
     25       7.3128      0.00000
     26       7.3128      0.00000
     27       8.6974      0.00000
     28       8.6974      0.00000
     29       9.2829      0.00000
     30       9.2829      0.00000
     31      10.7460      0.00000
     32      10.7460      0.00000

 k-point    36 :       0.5000    0.3333    0.5000
  band No.  band energies     occupation 
      1      -8.7837      2.00000
      2      -8.7837      2.00000
      3      -8.7837      2.00000
      4      -8.7837      2.00000
      5      -4.0300      2.00000
      6      -4.0300      2.00000
      7      -4.0300      2.00000
      8      -4.0300      2.00000
      9      -0.7653      2.00000
     10      -0.7653      2.00000
     11      -0.7653      2.00000
     12      -0.7653      2.00000
     13       0.3916      2.00000
     14       0.3916      2.00000
     15       0.3916      2.00000
     16       0.3916      2.00000
     17       2.2553      2.00000
     18       2.2553      2.00000
     19       2.2553      2.00000
     20       2.2553      2.00000
     21       6.6687      0.00000
     22       6.6687      0.00000
     23       6.6687      0.00000
     24       6.6687      0.00000
     25       8.2588      0.00000
     26       8.2588      0.00000
     27       8.2588      0.00000
     28       8.2588      0.00000
     29      10.0679      0.00000
     30      10.0679      0.00000
     31      10.0679      0.00000
     32      10.0679      0.00000

 k-point    37 :       0.0000    0.5000    0.5000
  band No.  band energies     occupation 
      1      -9.5631      2.00000
      2      -9.5631      2.00000
      3      -9.2413      2.00000
      4      -9.2413      2.00000
      5      -4.8252      2.00000
      6      -4.8252      2.00000
      7      -3.9957      2.00000
      8      -3.9957      2.00000
      9       0.8542      2.00000
     10       0.8542      2.00000
     11       1.2261      2.00000
     12       1.2261      2.00000
     13       2.0461      2.00000
     14       2.0461      2.00000
     15       2.3485      2.00000
     16       2.3485      2.00000
     17       3.7548      2.00000
     18       3.7548      2.00000
     19       3.9016      2.00000
     20       3.9016      2.00000
     21       5.5298      0.00000
     22       5.5298      0.00000
     23       6.2021      0.00000
     24       6.2021      0.00000
     25       6.2475      0.00000
     26       6.2475      0.00000
     27       7.2028      0.00000
     28       7.2028      0.00000
     29       7.2626      0.00000
     30       7.2626      0.00000
     31       8.5834      0.00000
     32       8.5834      0.00000

 k-point    38 :       0.1667    0.5000    0.5000
  band No.  band energies     occupation 
      1      -9.4018      2.00000
      2      -9.4018      2.00000
      3      -9.1036      2.00000
      4      -9.1036      2.00000
      5      -4.6438      2.00000
      6      -4.6438      2.00000
      7      -3.8385      2.00000
      8      -3.8385      2.00000
      9       0.3053      2.00000
     10       0.3053      2.00000
     11       0.4572      2.00000
     12       0.4572      2.00000
     13       1.3386      2.00000
     14       1.3386      2.00000
     15       1.4723      2.00000
     16       1.4723      2.00000
     17       2.9644      2.00000
     18       2.9644      2.00000
     19       3.3132      2.00000
     20       3.3132      2.00000
     21       6.4975      0.00000
     22       6.4975      0.00000
     23       6.8347      0.00000
     24       6.8347      0.00000
     25       6.9734      0.00000
     26       6.9734      0.00000
     27       8.0068      0.00000
     28       8.0068      0.00000
     29       8.7123      0.00000
     30       8.7123      0.00000
     31       8.7580      0.00000
     32       8.7580      0.00000

 k-point    39 :       0.3333    0.5000    0.5000
  band No.  band energies     occupation 
      1      -9.0112      2.00000
      2      -9.0112      2.00000
      3      -8.8076      2.00000
      4      -8.8076      2.00000
      5      -4.2262      2.00000
      6      -4.2262      2.00000
      7      -3.6125      2.00000
      8      -3.6125      2.00000
      9      -0.9715      2.00000
     10      -0.9715      2.00000
     11      -0.9522      2.00000
     12      -0.9522      2.00000
     13       0.6928      2.00000
     14       0.6928      2.00000
     15       0.8412      2.00000
     16       0.8412      2.00000
     17       2.0340      2.00000
     18       2.0340      2.00000
     19       2.3942      2.00000
     20       2.3942      2.00000
     21       6.4050      0.00000
     22       6.4050      0.00000
     23       7.2573      0.00000
     24       7.2573      0.00000
     25       8.7172      0.00000
     26       8.7172      0.00000
     27       8.8980      0.00000
     28       8.8980      0.00000
     29      10.3329      0.00000
     30      10.3329      0.00000
     31      10.5115      0.00000
     32      10.5115      0.00000

 k-point    40 :       0.5000    0.5000    0.5000
  band No.  band energies     occupation 
      1      -8.7073      2.00000
      2      -8.7073      2.00000
      3      -8.7073      2.00000
      4      -8.7073      2.00000
      5      -3.8512      2.00000
      6      -3.8512      2.00000
      7      -3.8512      2.00000
      8      -3.8512      2.00000
      9      -1.1113      2.00000
     10      -1.1113      2.00000
     11      -1.1113      2.00000
     12      -1.1113      2.00000
     13      -0.1815      2.00000
     14      -0.1815      2.00000
     15      -0.1815      2.00000
     16      -0.1815      2.00000
     17       2.3232      2.00000
     18       2.3232      2.00000
     19       2.3232      2.00000
     20       2.3232      2.00000
     21       6.4614      0.00000
     22       6.4614      0.00000
     23       6.4614      0.00000
     24       6.4614      0.00000
     25       9.4383      0.00000
     26       9.4383      0.00000
     27       9.4383      0.00000
     28       9.4383      0.00000
     29      10.8460      0.00000
     30      10.8460      0.00000
     31      10.8460      0.00000
     32      10.8460      0.00000


--------------------------------------------------------------------------------------------------------


 soft charge-density along one line, spin component            1
         0         1         2         3         4         5         6         7         8         9
 total charge-density along one line
 
 pseudopotential strength for first ion, spin component:            1
 14.294  17.827   0.039   0.043  -0.000   0.070   0.078  -0.000
 17.827  22.247   0.049   0.055  -0.000   0.089   0.099  -0.000
  0.039   0.049   3.188  -0.003   0.000   5.424  -0.005   0.000
  0.043   0.055  -0.003   3.187  -0.000  -0.005   5.422  -0.000
 -0.000  -0.000   0.000  -0.000   3.189   0.000  -0.000   5.426
  0.070   0.089   5.424  -0.005   0.000   9.284  -0.009   0.000
  0.078   0.099  -0.005   5.422  -0.000  -0.009   9.282  -0.000
 -0.000  -0.000   0.000  -0.000   5.426   0.000  -0.000   9.289
  0.000   0.000   0.000  -0.000   0.007   0.000  -0.000   0.013
 -0.006  -0.008   0.011   0.012  -0.000   0.021   0.021  -0.000
 -0.002  -0.002  -0.004   0.011   0.000  -0.007   0.020   0.000
 -0.000  -0.000  -0.000   0.000   0.011  -0.000   0.000   0.021
  0.002   0.002  -0.011   0.000  -0.000  -0.021   0.000  -0.000
 total augmentation occupancy for first ion, spin component:            1
  2.842  -0.790   0.356   0.350   0.000  -0.072  -0.065  -0.000   0.000  -0.002  -0.017  -0.000   0.008
 -0.790   0.732  -0.431  -0.456  -0.000   0.071   0.072  -0.000  -0.000   0.001   0.017   0.000  -0.003
  0.356  -0.431   1.337   0.097  -0.000  -0.228  -0.007   0.000   0.000   0.041  -0.092  -0.000  -0.004
  0.350  -0.456   0.097   1.285  -0.000  -0.007  -0.215   0.000  -0.000  -0.006   0.096   0.000  -0.003
  0.000  -0.000  -0.000  -0.000   1.334   0.000   0.000  -0.237   0.144   0.000   0.000   0.037   0.000
 -0.072   0.071  -0.228  -0.007   0.000   0.044   0.000  -0.000   0.000  -0.007   0.015   0.000   0.001
 -0.065   0.072  -0.007  -0.215   0.000   0.000   0.041  -0.000   0.000   0.001  -0.017   0.000   0.001
 -0.000  -0.000   0.000   0.000  -0.237  -0.000  -0.000   0.047  -0.025  -0.000  -0.000  -0.006  -0.000
  0.000  -0.000   0.000  -0.000   0.144   0.000   0.000  -0.025   0.038   0.000  -0.000   0.004  -0.000
 -0.002   0.001   0.041  -0.006   0.000  -0.007   0.001  -0.000   0.000   0.012  -0.007  -0.000   0.001
 -0.017   0.017  -0.092   0.096   0.000   0.015  -0.017  -0.000  -0.000  -0.007   0.035   0.000  -0.001
 -0.000   0.000  -0.000   0.000   0.037   0.000   0.000  -0.006   0.004  -0.000   0.000   0.012   0.000
  0.008  -0.003  -0.004  -0.003   0.000   0.001   0.001  -0.000  -0.000   0.001  -0.001   0.000   0.010


------------------------ aborting loop because EDIFF is reached ----------------------------------------


    CHARGE:  cpu time      0.0036: real time      0.0036
    FORLOC:  cpu time      0.0002: real time      0.0002
    FORNL :  cpu time      0.0202: real time      0.0202
    STRESS:  cpu time      0.1939: real time      0.1946
    FORCOR:  cpu time      0.0032: real time      0.0032
    FORHAR:  cpu time      0.0008: real time      0.0008
    MIXING:  cpu time      0.0004: real time      0.0004
    OFIELD:  cpu time      0.0000: real time      0.0000

  FORCE on cell =-STRESS in cart. coord.  units (eV):
  Direction    XX          YY          ZZ          XY          YZ          ZX
  --------------------------------------------------------------------------------------
  Alpha Z    95.41912    95.41912    95.41912
  Ewald    -454.32627  -480.49605  -536.68583     0.00000     0.00000    -0.00000
  Hartree    55.30018    41.77953    20.34746     0.00000     0.00000    -0.00000
  E(xc)    -142.14767  -142.06868  -142.36965    -0.00000     0.00000    -0.00000
  Local    -175.50392  -139.53726   -67.81105    -0.00000     0.00000     0.00000
  n-local   242.73497   242.32387   242.61457    -0.00000    -0.00000    -0.00000
  augment   -11.42183   -11.63225   -12.06697     0.00000     0.00000     0.00000
  Kinetic   396.91085   399.15052   401.68611    -0.00000     0.00000     0.00000
  Fock        0.00000     0.00000     0.00000     0.00000     0.00000     0.00000
  -------------------------------------------------------------------------------------
  Total       6.96543     4.93881     1.13377    -0.00000     0.00000     0.00000
  in kB      62.84438    44.55953    10.22927    -0.00002     0.00000     0.00001
  external pressure =       39.21 kB  Pullay stress =        0.00 kB


 VOLUME and BASIS-vectors are now :
 -----------------------------------------------------------------------------
  energy-cutoff  :      360.00
  volume of cell :      177.58
      direct lattice vectors                 reciprocal lattice vectors
     3.750000000  0.000000000  0.000000000     0.266666667  0.000000000  0.000000000
     0.000000000  4.250000000  0.000000000     0.000000000  0.235294118  0.000000000
     0.000000000  0.000000000 11.142221000     0.000000000  0.000000000  0.089748713

  length of vectors
     3.750000000  4.250000000 11.142221000     0.266666667  0.235294118  0.089748713


 FORCES acting on ions
    electron-ion (+dipol)            ewald-force                    non-local-force                 convergence-correction
 -----------------------------------------------------------------------------------------------
   0.555E-06 0.136E+02 0.256E+02   -.222E-14 -.159E+02 -.283E+02   -.468E-06 0.218E+01 0.272E+01   0.262E-06 0.273E-03 -.909E-03
   0.404E-05 0.136E+02 -.256E+02   0.934E-14 -.159E+02 0.283E+02   -.193E-05 0.218E+01 -.272E+01   -.211E-05 0.274E-03 0.907E-03
   -.112E-05 -.136E+02 -.256E+02   -.229E-14 0.159E+02 0.283E+02   0.622E-06 -.218E+01 -.272E+01   0.718E-07 -.273E-03 0.904E-03
   -.334E-05 -.136E+02 0.256E+02   -.440E-14 0.159E+02 -.283E+02   0.161E-05 -.218E+01 0.272E+01   0.163E-05 -.275E-03 -.902E-03
   -.757E-05 -.128E+02 -.252E+02   -.105E-13 0.142E+02 0.266E+02   0.266E-05 -.124E+01 -.137E+01   0.495E-05 0.270E-03 0.252E-02
   0.200E-05 -.128E+02 0.252E+02   0.343E-16 0.142E+02 -.266E+02   -.387E-06 -.124E+01 0.137E+01   -.875E-06 0.269E-03 -.253E-02
   0.442E-05 0.128E+02 0.252E+02   0.141E-14 -.142E+02 -.266E+02   -.143E-05 0.124E+01 0.137E+01   -.334E-05 -.268E-03 -.252E-02
   -.108E-05 0.128E+02 -.252E+02   0.274E-14 -.142E+02 0.266E+02   0.379E-06 0.124E+01 -.137E+01   0.119E-06 -.273E-03 0.252E-02
 -----------------------------------------------------------------------------------------------
   -.209E-05 0.354E-05 0.243E-05   -.584E-14 0.178E-14 -.107E-13   0.105E-05 -.102E-05 -.972E-06   0.709E-06 -.232E-05 -.518E-06
 
 
 POSITION                                       TOTAL-FORCE (eV/Angst)
 -----------------------------------------------------------------------------------
      0.93750      0.44400      1.36624         0.000000     -0.079181      0.007504
      2.81250      2.56900      4.20487         0.000000     -0.079181     -0.007507
      2.81250      3.80600      9.77598        -0.000000      0.079181     -0.007505
      0.93750      1.68100      6.93735        -0.000000      0.079181      0.007507
      0.93750      0.04812      3.94625         0.000000      0.089602     -0.015187
      2.81250      2.17312      1.62486         0.000001      0.089602      0.015189
      2.81250      4.20188      7.19597        -0.000000     -0.089602      0.015188
      0.93750      2.07688      9.51736        -0.000001     -0.089602     -0.015189
 -----------------------------------------------------------------------------------
    total drift:                               -0.000000      0.000000      0.000001


--------------------------------------------------------------------------------------------------------



  FREE ENERGIE OF THE ION-ELECTRON SYSTEM (eV)
  ---------------------------------------------------
  free  energy   TOTEN  =       -33.57059971 eV

  energy  without entropy=      -33.56922312  energy(sigma->0) =      -33.56991142
 


--------------------------------------------------------------------------------------------------------


    POTLOK:  cpu time      0.1136: real time      0.1139


--------------------------------------------------------------------------------------------------------


     LOOP+:  cpu time      4.9550: real time      5.0684
    4ORBIT:  cpu time      0.0000: real time      0.0000

 total amount of memory used by VASP MPI-rank0    37684. kBytes
=======================================================================

   base      :      30000. kBytes
   nonl-proj :       5947. kBytes
   fftplans  :        317. kBytes
   grid      :        462. kBytes
   one-center:         16. kBytes
   wavefun   :        942. kBytes
 
  
  
 General timing and accounting informations for this job:
 ========================================================
  
                  Total CPU time used (sec):        5.992
                            User time (sec):        5.551
                          System time (sec):        0.441
                         Elapsed time (sec):        7.476
  
                   Maximum memory used (kb):      188444.
                   Average memory used (kb):          N/A
  
                          Minor page faults:        21024
                          Major page faults:           36
                 Voluntary context switches:         3723
