 vasp.6.4.2 20Jul23 (build Oct 12 2023 10:31:02) complex                         
 executed on              LinuxNV date 2024.11.01  21:21:38
 running  128 mpi-ranks, with    1 threads/rank, on    2 nodes
 distrk:  each k-point on   64 cores,    2 groups
 distr:  one band on NCORE=   8 cores,    8 groups


--------------------------------------------------------------------------------------------------------


 INCAR:
   ENCUT = 520.000000
   SIGMA = 0.050000
   EDIFF = 1.00e-06
   ALGO = N
   GGA = PE
   PREC = Accurate
   SYSTEM = 01_AOPT
   ICHARG = 0
   ISMEAR = 0
   ISPIN = 2
   ISTART = 1
   ISYM = -1
   KPAR = 2
   LORBIT = 11
   NBANDS = 220
   NELM = 100
   NELMIN = 5
   NPAR = 8
   LASPH = .TRUE.
   LCHARG = .FALSE.
   LWAVE = .FALSE.
   LREAL = .FALSE.

 POTCAR:    PAW_PBE Ge 05Jan2001                  
 POTCAR:    PAW_PBE Se 06Sep2000                  
 -----------------------------------------------------------------------------
|                                                                             |
|           W    W    AA    RRRRR   N    N  II  N    N   GGGG   !!!           |
|           W    W   A  A   R    R  NN   N  II  NN   N  G    G  !!!           |
|           W    W  A    A  R    R  N N  N  II  N N  N  G       !!!           |
|           W WW W  AAAAAA  RRRRR   N  N N  II  N  N N  G  GGG   !            |
|           WW  WW  A    A  R   R   N   NN  II  N   NN  G    G                |
|           W    W  A    A  R    R  N    N  II  N    N   GGGG   !!!           |
|                                                                             |
|     You use a magnetic or noncollinear calculation, but did not specify     |
|     the initial magnetic moment with the MAGMOM tag. Note that a            |
|     default of 1 will be used for all atoms. This ferromagnetic setup       |
|     may break the symmetry of the crystal, in particular it may rule        |
|     out finding an antiferromagnetic solution. Thence, we recommend         |
|     setting the initial magnetic moment manually or verifying carefully     |
|     that this magnetic setup is desired.                                    |
|                                                                             |
 -----------------------------------------------------------------------------

 POTCAR:    PAW_PBE Ge 05Jan2001                  
   VRHFIN =Ge: s2p2                                                                                 
   LEXCH  = PE                                                                                      
   EATOM  =   104.9960 eV,    7.7170 Ry                                                             
                                                                                                    
   TITEL  = PAW_PBE Ge 05Jan2001                                                                    
   LULTRA =        F    use ultrasoft PP ?                                                          
   IUNSCR =        1    unscreen: 0-lin 1-nonlin 2-no                                               
   RPACOR =    2.170    partial core radius                                                         
   POMASS =   72.610; ZVAL   =    4.000    mass and valenz                                          
   RCORE  =    2.300    outmost cutoff radius                                                       
   RWIGS  =    2.300; RWIGS  =    1.217    wigner-seitz radius (au A)                               
   ENMAX  =  173.807; ENMIN  =  130.355 eV                                                          
   ICORE  =        3    local potential                                                             
   LCOR   =        T    correct aug charges                                                         
   LPAW   =        T    paw PP                                                                      
   EAUG   =  385.843                                                                                
   DEXC   =    0.000                                                                                
   RMAX   =    2.342    core radius for proj-oper                                                   
   RAUG   =    1.300    factor for augmentation sphere                                              
   RDEP   =    2.318    radius for radial grids                                                     
   RDEPT  =    2.103    core radius for aug-charge                                                  
                                                                                                    
   Atomic configuration                                                                             
   10 entries                                                                                       
     n  l   j            E        occ.                                                              
     1  0  0.50    -10959.8463   2.0000                                                             
     2  0  0.50     -1371.6056   2.0000                                                             
     2  1  1.50     -1198.4791   6.0000                                                             
     3  0  0.50      -168.4733   2.0000                                                             
     3  1  1.50      -115.6019   6.0000                                                             
     3  2  2.50       -29.3106  10.0000                                                             
     4  0  0.50       -11.7309   2.0000                                                             
     4  1  0.50        -3.8952   2.0000                                                             
     4  2  1.50        -4.0817   0.0000                                                             
     4  3  2.50        -4.0817   0.0000                                                             
   Description                                                                                      
     l       E           TYP  RCUT    TYP  RCUT                                                     
     0    -11.7309493     23  2.300                                                                 
     0     -7.4578696     23  2.300                                                                 
     1     -3.8952261     23  2.300                                                                 
     1      6.1178114     23  2.300                                                                 
     2     -4.0817478     23  2.300                                                                 
     3     -1.3605826      7  2.300                                                                 
  local pseudopotential read in
  partial core-charges read in
  partial kinetic energy density read in
  atomic valenz-charges read in
  non local Contribution for L=            0  read in
    real space projection operators read in
  non local Contribution for L=            0  read in
    real space projection operators read in
  non local Contribution for L=            1  read in
    real space projection operators read in
  non local Contribution for L=            1  read in
    real space projection operators read in
  non local Contribution for L=            2  read in
    real space projection operators read in
    PAW grid and wavefunctions read in
 
   number of l-projection  operators is LMAX  =            5
   number of lm-projection operators is LMMAX =           13
 
 POTCAR:    PAW_PBE Se 06Sep2000                  
   VRHFIN =Se: s2p4                                                                                 
   LEXCH  = PE                                                                                      
   EATOM  =   257.1286 eV,   18.8984 Ry                                                             
                                                                                                    
   TITEL  = PAW_PBE Se 06Sep2000                                                                    
   LULTRA =        F    use ultrasoft PP ?                                                          
   IUNSCR =        1    unscreen: 0-lin 1-nonlin 2-no                                               
   RPACOR =    1.900    partial core radius                                                         
   POMASS =   78.960; ZVAL   =    6.000    mass and valenz                                          
   RCORE  =    2.100    outmost cutoff radius                                                       
   RWIGS  =    2.200; RWIGS  =    1.164    wigner-seitz radius (au A)                               
   ENMAX  =  211.555; ENMIN  =  158.666 eV                                                          
   ICORE  =        3    local potential                                                             
   LCOR   =        T    correct aug charges                                                         
   LPAW   =        T    paw PP                                                                      
   EAUG   =  446.842                                                                                
   DEXC   =    0.000                                                                                
   RMAX   =    2.147    core radius for proj-oper                                                   
   RAUG   =    1.300    factor for augmentation sphere                                              
   RDEP   =    2.177    radius for radial grids                                                     
   RDEPT  =    1.928    core radius for aug-charge                                                  
                                                                                                    
   Atomic configuration                                                                             
   10 entries                                                                                       
     n  l   j            E        occ.                                                              
     1  0  0.50    -12503.4787   2.0000                                                             
     2  0  0.50     -1606.9547   2.0000                                                             
     2  1  1.50     -1413.3140   6.0000                                                             
     3  0  0.50      -213.4885   2.0000                                                             
     3  1  1.50      -152.9538   6.0000                                                             
     3  2  2.50       -53.1221  10.0000                                                             
     4  0  0.50       -17.2865   2.0000                                                             
     4  1  0.50        -6.5110   4.0000                                                             
     4  2  2.50        -6.8029   0.0000                                                             
     4  3  2.50        -6.8029   0.0000                                                             
   Description                                                                                      
     l       E           TYP  RCUT    TYP  RCUT                                                     
     0    -17.2865377     23  2.100                                                                 
     0    -15.3094411     23  2.100                                                                 
     1     -6.5110275     23  2.100                                                                 
     1     -0.0695192     23  2.100                                                                 
     2     -6.8029130     23  2.100                                                                 
     3     -1.3605826      7  2.100                                                                 
  local pseudopotential read in
  partial core-charges read in
  partial kinetic energy density read in
  atomic valenz-charges read in
  non local Contribution for L=            0  read in
    real space projection operators read in
  non local Contribution for L=            0  read in
    real space projection operators read in
  non local Contribution for L=            1  read in
    real space projection operators read in
  non local Contribution for L=            1  read in
    real space projection operators read in
  non local Contribution for L=            2  read in
    real space projection operators read in
    PAW grid and wavefunctions read in
 
   number of l-projection  operators is LMAX  =            5
   number of lm-projection operators is LMMAX =           13
 
 -----------------------------------------------------------------------------
|                                                                             |
|               ----> ADVICE to this user running VASP <----                  |
|                                                                             |
|     You have a (more or less) 'large supercell' and for larger cells it     |
|     might be more efficient to use real-space projection operators.         |
|     Therefore, try LREAL= Auto in the INCAR file.                           |
|     Mind: For very accurate calculation, you might also keep the            |
|     reciprocal projection scheme (i.e. LREAL=.FALSE.).                      |
|                                                                             |
 -----------------------------------------------------------------------------

  PAW_PBE Ge 05Jan2001                  :
 energy of atom  1       EATOM= -104.9960
 kinetic energy error for atom=    0.0002 (will be added to EATOM!!)
  PAW_PBE Se 06Sep2000                  :
 energy of atom  2       EATOM= -257.1286
 kinetic energy error for atom=    0.0007 (will be added to EATOM!!)
 
 
 POSCAR: Ge Se
  positions in cartesian coordinates
  No initial velocities read in
 exchange correlation table for  LEXCH =        8
   RHO(1)=    0.500       N(1)  =     2000
   RHO(2)=  100.500       N(2)  =     4000
 


--------------------------------------------------------------------------------------------------------


 ion  position               nearest neighbor table
   1  0.063  0.022  0.125-  45 2.57  55 2.61  54 2.65
   2  0.208  0.851  0.378-  67 2.47  45 2.59  47 2.73
   3  0.554  0.190  0.375-  68 2.58  49 2.62  48 2.65
   4  0.560  0.549  0.407-  69 2.63  50 2.67  72 2.76
   5  0.572  0.881  0.375-  48 2.55  70 2.78
   6  0.899  0.224  0.366-  55 2.47  56 2.56  46 2.61
   7  0.891  0.525  0.374-  71 2.58  72 2.64  56 2.70
   8  0.878  0.875  0.366-  44 2.46  53 2.53  45 2.79
   9  0.067  0.152  0.624-  37 2.47  51 2.57  57 2.64
  10  0.062  0.502  0.632-  58 2.50  43 2.65  38 2.74
  11  0.055  0.839  0.632-  59 2.58  52 2.67  37 2.81
  12  0.386  0.140  0.639-  51 2.45  60 2.57  40 2.74
  13  0.391  0.503  0.608-  38 2.54  61 2.77
  14  0.407  0.819  0.618-  39 2.52  62 2.65  42 2.85
  15  0.729  0.167  0.621-  63 2.46  40 2.59
  16  0.717  0.483  0.617-  41 2.57  64 2.73  43 2.79
  17  0.222  0.540  0.367-  66 2.49  47 2.56
  18  0.228  0.189  0.371-  54 2.54  46 2.65  49 2.66
  19  0.728  0.827  0.608-  65 2.58  52 2.62  42 2.70
  20  0.906  0.644  0.862-  52 2.54  58 2.55  64 2.82
  21  0.889  0.989  0.875-  37 2.54  65 2.64  59 2.67
  22  0.084  0.370  0.125-  66 2.56  46 2.69  71 2.74
  23  0.042  0.690  0.129-  47 2.57  53 2.61  71 2.68
  24  0.374  0.006  0.125-  48 2.64  67 2.68  54 2.70
  25  0.402  0.368  0.123-  69 2.58  49 2.59  66 2.67
  26  0.739  0.052  0.143-  44 2.56  68 2.61  55 2.68
  27  0.710  0.363  0.141-  56 2.52  68 2.60  69 2.60
  28  0.415  0.716  0.137-  70 2.60  50 2.60  67 2.77
  29  0.249  0.311  0.853-  60 2.52  38 2.59  57 2.60
  30  0.252  0.659  0.880-  39 2.62  58 2.72  61 2.75
  31  0.230  0.996  0.861-  51 2.45  59 2.72  62 2.85
  32  0.558  0.336  0.857-  41 2.56  63 2.67  60 2.82
  33  0.574  0.651  0.883-  42 2.47  61 2.52  64 2.72
  34  0.559  0.984  0.851-  62 2.45  40 2.53  65 2.64
  35  0.894  0.327  0.871-  43 2.63  63 2.81
  36  0.739  0.697  0.116-  53 2.49  72 2.57  70 2.73
  37  0.921  0.019  0.651-   9 2.47  21 2.54  11 2.81
  38  0.238  0.369  0.629-  13 2.54  29 2.59  10 2.74
  39  0.246  0.699  0.648-  14 2.52  30 2.62
  40  0.575  0.028  0.629-  34 2.53  15 2.59  12 2.74
  41  0.561  0.348  0.625-  32 2.56  16 2.57
  42  0.581  0.675  0.661-  33 2.47  19 2.70  14 2.85
  43  0.903  0.360  0.636-  35 2.63  10 2.65  16 2.79
  44  0.750  0.025  0.372-   8 2.46  26 2.56
  45  0.064  0.000  0.356-   1 2.57   2 2.59   8 2.79
  46  0.075  0.337  0.365-   6 2.61  18 2.65  22 2.69
  47  0.072  0.680  0.358-  17 2.56  23 2.57   2 2.73
  48  0.425  0.022  0.355-   5 2.55  24 2.64   3 2.65
  49  0.393  0.323  0.351-  25 2.59   3 2.62  18 2.66
  50  0.400  0.687  0.370-  28 2.60   4 2.67
  51  0.228  0.023  0.642-  12 2.45  31 2.45   9 2.57
  52  0.893  0.700  0.642-  20 2.54  19 2.62  11 2.67
  53  0.886  0.830  0.144-  36 2.49   8 2.53  23 2.61
  54  0.223  0.160  0.144-  18 2.54   1 2.65  24 2.70
  55  0.917  0.171  0.152-   6 2.47   1 2.61  26 2.68
  56  0.748  0.363  0.365-  27 2.52   6 2.56   7 2.70
  57  0.081  0.187  0.860-  29 2.60   9 2.64
  58  0.076  0.531  0.855-  10 2.50  20 2.55  30 2.72
  59  0.059  0.860  0.864-  11 2.58  21 2.67  31 2.72
  60  0.399  0.175  0.868-  29 2.52  12 2.57  32 2.82
  61  0.422  0.520  0.854-  33 2.52  30 2.75  13 2.77
  62  0.410  0.856  0.854-  34 2.45  14 2.65  31 2.85
  63  0.716  0.192  0.841-  15 2.46  32 2.67  35 2.81
  64  0.730  0.500  0.863-  33 2.72  16 2.73  20 2.82
  65  0.728  0.855  0.839-  19 2.58  21 2.64  34 2.64
  66  0.239  0.504  0.146-  17 2.49  22 2.56  25 2.67
  67  0.234  0.845  0.157-   2 2.47  24 2.68  28 2.77
  68  0.586  0.195  0.144-   3 2.58  27 2.60  26 2.61
  69  0.555  0.499  0.176-  25 2.58  27 2.60   4 2.63
  70  0.579  0.845  0.126-  28 2.60  36 2.73   5 2.78
  71  0.919  0.515  0.143-   7 2.58  23 2.68  22 2.74
  72  0.738  0.670  0.346-  36 2.57   7 2.64   4 2.76
 

IMPORTANT INFORMATION: All symmetrisations will be switched off!
NOSYMM: (Re-)initialisation of all symmetry stuff for point group C_1.


----------------------------------------------------------------------------------------

                                     Primitive cell                                     

  volume of cell :    1718.2278

  direct lattice vectors                    reciprocal lattice vectors
    12.421972202 -0.000004383 -0.000004301     0.080502515  0.000000028  0.000000036
    -0.000004413 12.506898336  0.000000263     0.000000028  0.079955875 -0.000000002
    -0.000004930  0.000000299 11.059628976     0.000000031 -0.000000002  0.090418946

  length of vectors
    12.421972202 12.506898336 11.059628976     0.080502515  0.079955875  0.090418946

  position of ions in fractional coordinates (direct lattice)
     0.062776990  0.022064112  0.124747848
     0.207512734  0.850632330  0.378077463
     0.554448221  0.189621414  0.375121539
     0.560442153  0.549106088  0.406922946
     0.571620190  0.880610295  0.374615230
     0.898793780  0.223631218  0.366104931
     0.891254958  0.525312381  0.373990954
     0.878423783  0.874851383  0.366320772
     0.067133778  0.151624295  0.624341447
     0.062329351  0.501566884  0.631671423
     0.055084282  0.839403668  0.631801891
     0.386236990  0.140445610  0.638921398
     0.390752607  0.503100993  0.607528034
     0.407034812  0.819238902  0.617955218
     0.729199357  0.167001301  0.621099211
     0.716772967  0.482932851  0.616844520
     0.222297452  0.540447249  0.366551700
     0.227744967  0.189390767  0.371100164
     0.727703661  0.827125664  0.608058523
     0.905695279  0.643590453  0.862358136
     0.888848857  0.989129567  0.875385639
     0.083664272  0.370305631  0.125413229
     0.041737421  0.690210545  0.128944110
     0.374022825  0.005647548  0.124686381
     0.402443356  0.368008898  0.123247002
     0.738559154  0.051709591  0.142560777
     0.710347065  0.363063868  0.140665554
     0.415092019  0.715973565  0.137230346
     0.248603305  0.310524211  0.853401627
     0.251585304  0.659113835  0.880056617
     0.229814281  0.996431436  0.861239291
     0.557574600  0.335625565  0.856577794
     0.574172513  0.651152630  0.882772612
     0.559299658  0.983704483  0.851368254
     0.894408040  0.326951605  0.871276384
     0.739443852  0.696829748  0.115832945
     0.920877441  0.019424637  0.650840166
     0.238427426  0.369325791  0.629454855
     0.246487472  0.698830781  0.647885269
     0.575402280  0.027877725  0.629143809
     0.560535898  0.348321905  0.625465689
     0.580949808  0.675327950  0.660992417
     0.903235716  0.360183703  0.636441705
     0.750466951  0.025025815  0.372005392
     0.064344070  0.000278111  0.356074761
     0.074928960  0.336877510  0.365216716
     0.071726614  0.680248993  0.358276972
     0.425128751  0.021850406  0.355365880
     0.393239041  0.323011322  0.351367198
     0.399747331  0.687326553  0.369546482
     0.228377555  0.023348600  0.641786592
     0.892786378  0.699694088  0.641822054
     0.885833759  0.830105812  0.143570443
     0.223325982  0.160432852  0.143867167
     0.917434721  0.171393938  0.151695235
     0.748085882  0.363200991  0.364769305
     0.080704187  0.186953419  0.859583541
     0.076454991  0.530574268  0.854717876
     0.059287505  0.859944725  0.864118740
     0.398525534  0.175360561  0.867612268
     0.421500523  0.520489701  0.854455707
     0.410482216  0.855551789  0.853557027
     0.715720051  0.191764218  0.841201313
     0.730490308  0.500244755  0.862578630
     0.727828556  0.855455079  0.839134127
     0.238566950  0.504321573  0.146089210
     0.234209114  0.844738883  0.156636881
     0.586177558  0.195438942  0.144471549
     0.554992556  0.499360565  0.176062005
     0.578763527  0.845213744  0.126363368
     0.918542572  0.515188178  0.143320309
     0.738114097  0.670118493  0.346183620

  ion indices of the primitive-cell ions
   primitive index   ion index
                 1           1
                 2           2
                 3           3
                 4           4
                 5           5
                 6           6
                 7           7
                 8           8
                 9           9
                10          10
                11          11
                12          12
                13          13
                14          14
                15          15
                16          16
                17          17
                18          18
                19          19
                20          20
                21          21
                22          22
                23          23
                24          24
                25          25
                26          26
                27          27
                28          28
                29          29
                30          30
                31          31
                32          32
                33          33
                34          34
                35          35
                36          36
                37          37
                38          38
                39          39
                40          40
                41          41
                42          42
                43          43
                44          44
                45          45
                46          46
                47          47
                48          48
                49          49
                50          50
                51          51
                52          52
                53          53
                54          54
                55          55
                56          56
                57          57
                58          58
                59          59
                60          60
                61          61
                62          62
                63          63
                64          64
                65          65
                66          66
                67          67
                68          68
                69          69
                70          70
                71          71
                72          72

----------------------------------------------------------------------------------------

 
 
 KPOINTS: KPOINTS created by Atomic Simulation Env

Automatic generation of k-mesh.
 Grid dimensions read from file:
 generate k-points for:    2    2    2

 Generating k-lattice:

  Cartesian coordinates                     Fractional coordinates (reciprocal lattice)
     0.040251257  0.000000014  0.000000018     0.500000000  0.000000000  0.000000000
     0.000000014  0.039977938 -0.000000001     0.000000000  0.500000000 -0.000000000
     0.000000016 -0.000000001  0.045209473    -0.000000000  0.000000000  0.500000000

  Length of vectors
     0.040251257  0.039977938  0.045209473

  Shift w.r.t. Gamma in fractional coordinates (k-lattice)
     0.000000000  0.000000000  0.000000000

 
 Subroutine IBZKPT returns following result:
 ===========================================
 
 Found      8 irreducible k-points:
 
 Following reciprocal coordinates:
            Coordinates               Weight
  0.000000  0.000000  0.000000      1.000000
  0.500000  0.000000  0.000000      1.000000
  0.000000  0.500000  0.000000      1.000000
  0.500000  0.500000  0.000000      1.000000
  0.000000  0.000000  0.500000      1.000000
  0.500000  0.000000  0.500000      1.000000
  0.000000  0.500000  0.500000      1.000000
  0.500000  0.500000  0.500000      1.000000
 
 Following cartesian coordinates:
            Coordinates               Weight
  0.000000  0.000000  0.000000      1.000000
  0.040251  0.000000  0.000000      1.000000
  0.000000  0.039978 -0.000000      1.000000
  0.040251  0.039978  0.000000      1.000000
  0.000000 -0.000000  0.045209      1.000000
  0.040251  0.000000  0.045209      1.000000
  0.000000  0.039978  0.045209      1.000000
  0.040251  0.039978  0.045209      1.000000
 
 -----------------------------------------------------------------------------
|                                                                             |
|           W    W    AA    RRRRR   N    N  II  N    N   GGGG   !!!           |
|           W    W   A  A   R    R  NN   N  II  NN   N  G    G  !!!           |
|           W    W  A    A  R    R  N N  N  II  N N  N  G       !!!           |
|           W WW W  AAAAAA  RRRRR   N  N N  II  N  N N  G  GGG   !            |
|           WW  WW  A    A  R   R   N   NN  II  N   NN  G    G                |
|           W    W  A    A  R    R  N    N  II  N    N   GGGG   !!!           |
|                                                                             |
|     The number of bands has been changed from the values supplied in        |
|     the INCAR file. This is a result of running the parallel version.       |
|     The orbitals not found in the WAVECAR file will be initialized with     |
|     random numbers, which is usually adequate. For correlated               |
|     calculations, however, you should redo the groundstate calculation.     |
|     I found NBANDS = 220. Now, NBANDS = 224.                                |
|                                                                             |
 -----------------------------------------------------------------------------



--------------------------------------------------------------------------------------------------------




 Dimension of arrays:
   k-points           NKPTS =      8   k-points in BZ     NKDIM =      8   number of bands    NBANDS=    224
   number of dos      NEDOS =    301   number of ions     NIONS =     72
   non local maximal  LDIM  =      5   non local SUM 2l+1 LMDIM =     13
   total plane-waves  NPLWV = 774144
   max r-space proj   IRMAX =      1   max aug-charges    IRDMAX=  24684
   dimension x,y,z NGX =    96 NGY =   96 NGZ =   84
   dimension x,y,z NGXF=   192 NGYF=  192 NGZF=  168
   support grid    NGXF=   192 NGYF=  192 NGZF=  168
   ions per type =              36  36
   NGX,Y,Z   is equivalent  to a cutoff of  12.85, 12.76, 12.63 a.u.
   NGXF,Y,Z  is equivalent  to a cutoff of  25.70, 25.52, 25.25 a.u.

 SYSTEM =  01_AOPT                                 
 POSCAR =  Ge Se                                   

 Startparameter for this run:
   NWRITE =      2    write-flag & timer
   PREC   = accura    normal or accurate (medium, high low for compatibility)
   ISTART =      0    job   : 0-new  1-cont  2-samecut
   ICHARG =      2    charge: 1-file 2-atom 10-const
   ISPIN  =      2    spin polarized calculation?
   LNONCOLLINEAR =      F non collinear calculations
   LSORBIT =      F    spin-orbit coupling
   INIWAV =      1    electr: 0-lowe 1-rand  2-diag
   LASPH  =      T    aspherical Exc in radial PAW
 Electronic Relaxation 1
   ENCUT  =  520.0 eV  38.22 Ry    6.18 a.u.  23.10 23.25 20.56*2*pi/ulx,y,z
   ENINI  =  520.0     initial cutoff
   ENAUG  =  446.8 eV  augmentation charge cutoff
   NELM   =    100;   NELMIN=  5; NELMDL=  0     # of ELM steps 
   EDIFF  = 0.1E-05   stopping-criterion for ELM
   LREAL  =      F    real-space projection
   NLSPLINE    = F    spline interpolate recip. space projectors
   LCOMPAT=      F    compatible to vasp.4.4
   GGA_COMPAT  = T    GGA compatible to vasp.4.4-vasp.4.6
   LMAXPAW     = -100 max onsite density
   LMAXMIX     =    2 max onsite mixed and CHGCAR
   VOSKOWN=      0    Vosko Wilk Nusair interpolation
   ROPT   =    0.00000   0.00000
 Ionic relaxation
   EDIFFG = 0.1E-04   stopping-criterion for IOM
   NSW    =      0    number of steps for IOM
   NBLOCK =      1;   KBLOCK =      1    inner block; outer block 
   IBRION =     -1    ionic relax: 0-MD 1-quasi-New 2-CG
   NFREE  =      0    steps in history (QN), initial steepest desc. (CG)
   ISIF   =      2    stress and relaxation
   IWAVPR =     10    prediction:  0-non 1-charg 2-wave 3-comb
   ISYM   =     -1    0-nonsym 1-usesym 2-fastsym
   LCORR  =      T    Harris-Foulkes like correction to forces

   POTIM  = 0.5000    time-step for ionic-motion
   TEIN   =    0.0    initial temperature
   TEBEG  =    0.0;   TEEND  =   0.0 temperature during run
   SMASS  =  -3.00    Nose mass-parameter (am)
   estimated Nose-frequenzy (Omega)   =  0.10E-29 period in steps = 0.13E+47 mass=  -0.353E-26a.u.
   SCALEE = 1.0000    scale energy and forces
   NPACO  =    256;   APACO  = 10.0  distance and # of slots for P.C.
   PSTRESS=    0.0 pullay stress

  Mass of Ions in am
   POMASS =  72.61 78.96
  Ionic Valenz
   ZVAL   =   4.00  6.00
  Atomic Wigner-Seitz radii
   RWIGS  =  -1.00 -1.00
  virtual crystal weights 
   VCA    =   1.00  1.00
   NELECT =     360.0000    total number of electrons
   NUPDOWN=      -1.0000    fix difference up-down

 DOS related values:
   EMIN   =  10.00;   EMAX   =-10.00  energy-range for DOS
   EFERMI =   0.00;   METHOD = LEGACY      
   ISMEAR =     0;   SIGMA  =   0.05  broadening in eV -4-tet -1-fermi 0-gaus

 Electronic relaxation 2 (details)
   IALGO  =     38    algorithm
   LDIAG  =      T    sub-space diagonalisation (order eigenvalues)
   LSUBROT=      F    optimize rotation matrix (better conditioning)
   TURBO    =      0    0=normal 1=particle mesh
   IRESTART =      0    0=no restart 2=restart with 2 vectors
   NREBOOT  =      0    no. of reboots
   NMIN     =      0    reboot dimension
   EREF     =   0.00    reference energy to select bands
   IMIX   =      4    mixing-type and parameters
     AMIX     =   0.40;   BMIX     =  1.00
     AMIX_MAG =   1.60;   BMIX_MAG =  1.00
     AMIN     =   0.10
     WC   =   100.;   INIMIX=   1;  MIXPRE=   1;  MAXMIX= -45

 Intra band minimization:
   WEIMIN = 0.0000     energy-eigenvalue tresh-hold
   EBREAK =  0.11E-08  absolut break condition
   DEPER  =   0.30     relativ break condition  

   TIME   =   0.40     timestep for ELM

  volume/ion in A,a.u.               =      23.86       161.04
  Fermi-wavevector in a.u.,A,eV,Ry     =   0.972334  1.837445 12.863399  0.945433
  Thomas-Fermi vector in A             =   2.102624
 
 Write flags
   LWAVE        =      F    write WAVECAR
   LDOWNSAMPLE  =      F    k-point downsampling of WAVECAR
   LCHARG       =      F    write CHGCAR
   LVTOT        =      F    write LOCPOT, total local potential
   LVHAR        =      F    write LOCPOT, Hartree potential only
   LELF         =      F    write electronic localiz. function (ELF)
   LORBIT       =     11    0 simple, 1 ext, 2 COOP (PROOUT), +10 PAW based schemes


 Dipole corrections
   LMONO  =      F    monopole corrections only (constant potential shift)
   LDIPOL =      F    correct potential (dipole corrections)
   IDIPOL =      0    1-x, 2-y, 3-z, 4-all directions 
   EPSILON=  1.0000000 bulk dielectric constant

 Exchange correlation treatment:
   GGA     =    PE    GGA type
   LEXCH   =     8    internal setting for exchange type
   LIBXC   =     F    Libxc                    
   VOSKOWN =     0    Vosko Wilk Nusair interpolation
   LHFCALC =     F    Hartree Fock is set to
   LHFONE  =     F    Hartree Fock one center treatment
   AEXX    =    0.0000 exact exchange contribution

 Linear response parameters
   LEPSILON=     F    determine dielectric tensor
   LRPA    =     F    only Hartree local field effects (RPA)
   LNABLA  =     F    use nabla operator in PAW spheres
   LVEL    =     F    velocity operator in full k-point grid
   CSHIFT  =0.1000    complex shift for real part using Kramers Kronig
   OMEGAMAX=  -1.0    maximum frequency
   DEG_THRESHOLD= 0.2000000E-02 threshold for treating states as degnerate
   RTIME   =   -0.100 relaxation time in fs
  (WPLASMAI=    0.000 imaginary part of plasma frequency in eV, 0.658/RTIME)
   DFIELD  = 0.0000000 0.0000000 0.0000000 field for delta impulse in time
 
  Optional k-point grid parameters
   LKPOINTS_OPT  =     F    use optional k-point grid
   KPOINTS_OPT_MODE=     1    mode for optional k-point grid
 
 Orbital magnetization related:
   ORBITALMAG=     F  switch on orbital magnetization
   LCHIMAG   =     F  perturbation theory with respect to B field
   DQ        =  0.001000  dq finite difference perturbation B field
   LLRAUG    =     F  two centre corrections for induced B field
   LBONE     =     F  B-component reconstruction in AE one-centre
   LVGVCALC  =     T  calculate vGv susceptibility
   LVGVAPPL  =     F  apply vGv susceptibility instead of pGv for G=0

 Random number generation:
   RANDOM_GENERATOR = DEFAULT
   PCG_SEED         = not used


--------------------------------------------------------------------------------------------------------


 Static calculation
 charge density and potential will be updated during run
 spin polarized calculation
 Variant of blocked Davidson
 Davidson routine will perform the subspace rotation
 perform sub-space diagonalisation
    after iterative eigenvector-optimisation
 modified Broyden-mixing scheme, WC =      100.0
 initial mixing is a Kerker type mixing with AMIX =  0.4000 and BMIX =      1.0000
 Hartree-type preconditioning will be used
 using additional bands            44
 reciprocal scheme for non local part
 use partial core corrections
 calculate Harris-corrections to forces 
   (improved forces if not selfconsistent)
 use gradient corrections 
 use of overlap-Matrix (Vanderbilt PP)
 Gauss-broadening in eV      SIGMA  =   0.05


--------------------------------------------------------------------------------------------------------


  energy-cutoff  :      520.00
  volume of cell :     1718.23
      direct lattice vectors                 reciprocal lattice vectors
    12.421972202 -0.000004383 -0.000004301     0.080502515  0.000000028  0.000000036
    -0.000004413 12.506898336  0.000000263     0.000000028  0.079955875 -0.000000002
    -0.000004930  0.000000299 11.059628976     0.000000031 -0.000000002  0.090418946

  length of vectors
    12.421972202 12.506898336 11.059628976     0.080502515  0.079955875  0.090418946


 
 k-points in units of 2pi/SCALE and weight: KPOINTS created by Atomic Simulation Env
   0.00000000  0.00000000  0.00000000       0.125
   0.04025126  0.00000001  0.00000002       0.125
   0.00000001  0.03997794 -0.00000000       0.125
   0.04025127  0.03997795  0.00000002       0.125
   0.00000002 -0.00000000  0.04520947       0.125
   0.04025127  0.00000001  0.04520949       0.125
   0.00000003  0.03997794  0.04520947       0.125
   0.04025129  0.03997795  0.04520949       0.125
 
 k-points in reciprocal lattice and weights: KPOINTS created by Atomic Simulation Env
   0.00000000  0.00000000  0.00000000       0.125
   0.50000000  0.00000000  0.00000000       0.125
   0.00000000  0.50000000  0.00000000       0.125
   0.50000000  0.50000000  0.00000000       0.125
   0.00000000  0.00000000  0.50000000       0.125
   0.50000000  0.00000000  0.50000000       0.125
   0.00000000  0.50000000  0.50000000       0.125
   0.50000000  0.50000000  0.50000000       0.125
 
 position of ions in fractional coordinates (direct lattice) 
   0.06277699  0.02206411  0.12474785
   0.20751273  0.85063233  0.37807746
   0.55444822  0.18962141  0.37512154
   0.56044215  0.54910609  0.40692295
   0.57162019  0.88061030  0.37461523
   0.89879378  0.22363122  0.36610493
   0.89125496  0.52531238  0.37399095
   0.87842378  0.87485138  0.36632077
   0.06713378  0.15162430  0.62434145
   0.06232935  0.50156688  0.63167142
   0.05508428  0.83940367  0.63180189
   0.38623699  0.14044561  0.63892140
   0.39075261  0.50310099  0.60752803
   0.40703481  0.81923890  0.61795522
   0.72919936  0.16700130  0.62109921
   0.71677297  0.48293285  0.61684452
   0.22229745  0.54044725  0.36655170
   0.22774497  0.18939077  0.37110016
   0.72770366  0.82712566  0.60805852
   0.90569528  0.64359045  0.86235814
   0.88884886  0.98912957  0.87538564
   0.08366427  0.37030563  0.12541323
   0.04173742  0.69021055  0.12894411
   0.37402282  0.00564755  0.12468638
   0.40244336  0.36800890  0.12324700
   0.73855915  0.05170959  0.14256078
   0.71034706  0.36306387  0.14066555
   0.41509202  0.71597357  0.13723035
   0.24860331  0.31052421  0.85340163
   0.25158530  0.65911383  0.88005662
   0.22981428  0.99643144  0.86123929
   0.55757460  0.33562557  0.85657779
   0.57417251  0.65115263  0.88277261
   0.55929966  0.98370448  0.85136825
   0.89440804  0.32695160  0.87127638
   0.73944385  0.69682975  0.11583294
   0.92087744  0.01942464  0.65084017
   0.23842743  0.36932579  0.62945486
   0.24648747  0.69883078  0.64788527
   0.57540228  0.02787772  0.62914381
   0.56053590  0.34832190  0.62546569
   0.58094981  0.67532795  0.66099242
   0.90323572  0.36018370  0.63644170
   0.75046695  0.02502582  0.37200539
   0.06434407  0.00027811  0.35607476
   0.07492896  0.33687751  0.36521672
   0.07172661  0.68024899  0.35827697
   0.42512875  0.02185041  0.35536588
   0.39323904  0.32301132  0.35136720
   0.39974733  0.68732655  0.36954648
   0.22837755  0.02334860  0.64178659
   0.89278638  0.69969409  0.64182205
   0.88583376  0.83010581  0.14357044
   0.22332598  0.16043285  0.14386717
   0.91743472  0.17139394  0.15169523
   0.74808588  0.36320099  0.36476930
   0.08070419  0.18695342  0.85958354
   0.07645499  0.53057427  0.85471788
   0.05928750  0.85994472  0.86411874
   0.39852553  0.17536056  0.86761227
   0.42150052  0.52048970  0.85445571
   0.41048222  0.85555179  0.85355703
   0.71572005  0.19176422  0.84120131
   0.73049031  0.50024476  0.86257863
   0.72782856  0.85545508  0.83913413
   0.23856695  0.50432157  0.14608921
   0.23420911  0.84473888  0.15663688
   0.58617756  0.19543894  0.14447155
   0.55499256  0.49936057  0.17606201
   0.57876353  0.84521374  0.12636337
   0.91854257  0.51518818  0.14332031
   0.73811410  0.67011849  0.34618362
 
 position of ions in cartesian coordinates  (Angst):
   0.77981331  0.27595337  1.37966465
   2.57771180 10.63877128  4.18139580
   6.88733770  2.37157343  4.14870271
   6.96179242  6.86761169  4.50041454
   7.10064438 11.01370104  4.14310322
  11.16478856  2.79692908  4.04898089
  11.07114015  6.57002475  4.13619750
  10.91175014 10.94167357  4.05136827
   0.83393018  1.89634954  6.90498451
   0.77424814  6.27304594  6.98605143
   0.68424860 10.49833629  6.98749448
   4.79782138  1.75653746  7.06623198
   4.85391281  6.29223144  6.71903310
   5.05616846 10.24613606  6.83435389
   9.05809034  2.08866529  6.86912374
   8.90372871  6.03998911  6.82206857
   2.76136858  6.75931794  4.05392499
   2.82903898  2.36869018  4.10422919
   9.03950800 10.34477358  6.72489875
  11.25051449  8.04931665  9.53735730
  11.04124711 12.37093930  9.68143682
   1.03927301  4.63137455  1.38702352
   0.51845741  8.63239298  1.42607402
   4.64610049  0.07063170  1.37898350
   4.99913795  4.60264815  1.36306448
   9.17436035  0.64672340  1.57666614
   8.82390920  4.54079982  1.55570588
   5.15625769  8.95460682  1.51771511
   3.08813777  3.88369390  9.43830437
   3.12517840  8.24346889  9.73309875
   2.85473796 12.46226592  9.52498629
   6.92617047  4.19763263  9.47343028
   7.13234778  8.14389749  9.76313526
   6.94759626 12.30308977  9.41581486
  11.11030608  4.08914682  9.63598978
   9.18534733  8.71517561  1.28106639
  11.43911068  0.24293812  7.19804680
   2.96173412  4.61911927  6.96153623
   3.06185424  8.74020465  7.16536982
   7.14762790  0.34866154  6.95809463
   6.96295673  4.35642438  6.91741614
   7.21653613  8.44625567  7.31032857
  11.21996423  4.50477719  7.03880533
   9.32227766  0.31299215  4.11423839
   0.79927849  0.00347814  3.93805447
   0.93076217  4.21329255  4.03916114
   0.89098123  8.50780479  3.96241025
   5.28093568  0.27327905  3.93021296
   4.88480127  4.03986815  3.88598924
   4.96564538  8.59632168  4.08704544
   2.83689637  0.29201776  7.09792062
  11.09016132  8.75099910  7.09831012
  11.00379796 10.38204516  1.58783224
   2.77414772  2.00651644  1.59111657
  11.39634710  2.14360258  1.67768911
   9.29269863  4.54251470  4.03421005
   1.00250010  2.33820731  9.50667473
   0.94971522  6.63583835  9.45286240
   0.73645968 10.75524125  9.55683262
   4.95046806  2.19321522  9.59546811
   5.23586127  6.50971018  9.44996141
   5.09899070 10.70029771  9.44002249
   8.89064958  2.39837269  9.30337139
   9.07412384  6.25650735  9.53979660
   9.04105818 10.69908677  9.28050919
   2.96346907  6.30749764  1.61569157
   2.90933461 10.56506235  1.73234500
   7.28147976  2.44433245  1.59779926
   6.89409904  6.24544944  1.94717820
   7.18938009 10.57099987  1.39752970
  11.41010732  6.44340218  1.58506562
   9.16882813  8.38110073  3.82865939
 


--------------------------------------------------------------------------------------------------------


 k-point   1 :   0.0000 0.0000 0.0000  plane waves:   46237
 k-point   2 :   0.5000 0.0000 0.0000  plane waves:   46310
 k-point   3 :   0.0000 0.5000 0.0000  plane waves:   46238
 k-point   4 :   0.5000 0.5000 0.0000  plane waves:   46364
 k-point   5 :   0.0000 0.0000 0.5000  plane waves:   46258
 k-point   6 :   0.5000 0.0000 0.5000  plane waves:   46240
 k-point   7 :   0.0000 0.5000 0.5000  plane waves:   46240
 k-point   8 :   0.5000 0.5000 0.5000  plane waves:   46240

 maximum and minimum number of plane-waves per node :      5840     5737

 maximum number of plane-waves:     46364
 maximum index in each direction: 
   IXMAX=   23   IYMAX=   23   IZMAX=   20
   IXMIN=  -23   IYMIN=  -23   IZMIN=  -21


 parallel 3D FFT for wavefunctions:
    minimum data exchange during FFTs selected (reduces bandwidth)
 parallel 3D FFT for charge:
    minimum data exchange during FFTs selected (reduces bandwidth)


 total amount of memory used by VASP MPI-rank0   110524. kBytes
=======================================================================

   base      :      30000. kBytes
   nonl-proj :      16287. kBytes
   fftplans  :       6179. kBytes
   grid      :      15593. kBytes
   one-center:        146. kBytes
   wavefun   :      42319. kBytes
 
     INWAV:  cpu time      0.0000: real time      0.0002
 Broyden mixing: mesh for mixing (old mesh)
   NGX = 47   NGY = 47   NGZ = 41
  (NGX  =192   NGY  =192   NGZ  =168)
  gives a total of  90569 points

 initial charge density was supplied:
 charge density of overlapping atoms calculated
 number of electron     360.0000000 magnetization      72.0000000
 keeping initial charge density in first step


--------------------------------------------------------------------------------------------------------


 Maximum index for augmentation-charges           801 (set IRDMAX)


--------------------------------------------------------------------------------------------------------


 First call to EWALD:  gamma=   0.148
 Maximum number of real-space cells 3x 3x 3
 Maximum number of reciprocal cells 3x 3x 3

    FEWALD:  cpu time      0.0097: real time      0.0097


--------------------------------------- Ionic step        1  -------------------------------------------




--------------------------------------- Iteration      1(   1)  ---------------------------------------


    POTLOK:  cpu time      0.1394: real time      0.1405
    SETDIJ:  cpu time      0.5946: real time      0.5961
     EDDAV:  cpu time      8.5820: real time      8.6278
       DOS:  cpu time      0.0015: real time      0.0016
    --------------------------------------------
      LOOP:  cpu time      9.3175: real time      9.3660

 eigenvalue-minimisations  :  7168
 total energy-change (2. order) : 0.1816722E+04  (-0.1417659E+05)
 number of electron     360.0000000 magnetization      72.0000000
 augmentation part      360.0000000 magnetization      72.0000000

 Free energy of the ion-electron system (eV)
  ---------------------------------------------------
  alpha Z        PSCENC =       798.78821400
  Ewald energy   TEWEN  =    -12862.47744222
  -Hartree energ DENC   =     -1118.48216633
  -exchange      EXHF   =         0.00000000
  -V(xc)+E(xc)   XCENC  =      -293.33474446
  PAW double counting   =     10738.42099860    -9719.93139476
  entropy T*S    EENTRO =        -0.01957661
  eigenvalues    EBANDS =      1237.30684583
  atomic energy  EATOM  =     13036.45147835
  Solvation  Ediel_sol  =         0.00000000
  ---------------------------------------------------
  free energy    TOTEN  =      1816.72221241 eV

  energy without entropy =     1816.74178902  energy(sigma->0) =     1816.73200071


--------------------------------------------------------------------------------------------------------




--------------------------------------- Iteration      1(   2)  ---------------------------------------


     EDDAV:  cpu time      9.6806: real time      9.7290
       DOS:  cpu time      0.0013: real time      0.0013
    --------------------------------------------
      LOOP:  cpu time      9.6818: real time      9.7303

 eigenvalue-minimisations  :  8472
 total energy-change (2. order) :-0.1881067E+04  (-0.1806726E+04)
 number of electron     360.0000000 magnetization      72.0000000
 augmentation part      360.0000000 magnetization      72.0000000

 Free energy of the ion-electron system (eV)
  ---------------------------------------------------
  alpha Z        PSCENC =       798.78821400
  Ewald energy   TEWEN  =    -12862.47744222
  -Hartree energ DENC   =     -1118.48216633
  -exchange      EXHF   =         0.00000000
  -V(xc)+E(xc)   XCENC  =      -293.33474446
  PAW double counting   =     10738.42099860    -9719.93139476
  entropy T*S    EENTRO =        -0.01591919
  eigenvalues    EBANDS =      -643.76382876
  atomic energy  EATOM  =     13036.45147835
  Solvation  Ediel_sol  =         0.00000000
  ---------------------------------------------------
  free energy    TOTEN  =       -64.34480476 eV

  energy without entropy =      -64.32888557  energy(sigma->0) =      -64.33684516


--------------------------------------------------------------------------------------------------------




--------------------------------------- Iteration      1(   3)  ---------------------------------------


     EDDAV:  cpu time      9.7191: real time      9.7694
       DOS:  cpu time      0.0012: real time      0.0012
    --------------------------------------------
      LOOP:  cpu time      9.7202: real time      9.7706

 eigenvalue-minimisations  :  8560
 total energy-change (2. order) :-0.2170382E+03  (-0.2110663E+03)
 number of electron     360.0000000 magnetization      72.0000000
 augmentation part      360.0000000 magnetization      72.0000000

 Free energy of the ion-electron system (eV)
  ---------------------------------------------------
  alpha Z        PSCENC =       798.78821400
  Ewald energy   TEWEN  =    -12862.47744222
  -Hartree energ DENC   =     -1118.48216633
  -exchange      EXHF   =         0.00000000
  -V(xc)+E(xc)   XCENC  =      -293.33474446
  PAW double counting   =     10738.42099860    -9719.93139476
  entropy T*S    EENTRO =        -0.00011797
  eigenvalues    EBANDS =      -860.81786944
  atomic energy  EATOM  =     13036.45147835
  Solvation  Ediel_sol  =         0.00000000
  ---------------------------------------------------
  free energy    TOTEN  =      -281.38304422 eV

  energy without entropy =     -281.38292625  energy(sigma->0) =     -281.38298523


--------------------------------------------------------------------------------------------------------




--------------------------------------- Iteration      1(   4)  ---------------------------------------


     EDDAV:  cpu time      9.9609: real time     10.0186
       DOS:  cpu time      0.0011: real time      0.0011
    --------------------------------------------
      LOOP:  cpu time      9.9620: real time     10.0197

 eigenvalue-minimisations  :  8800
 total energy-change (2. order) :-0.7968746E+01  (-0.7879275E+01)
 number of electron     360.0000000 magnetization      72.0000000
 augmentation part      360.0000000 magnetization      72.0000000

 Free energy of the ion-electron system (eV)
  ---------------------------------------------------
  alpha Z        PSCENC =       798.78821400
  Ewald energy   TEWEN  =    -12862.47744222
  -Hartree energ DENC   =     -1118.48216633
  -exchange      EXHF   =         0.00000000
  -V(xc)+E(xc)   XCENC  =      -293.33474446
  PAW double counting   =     10738.42099860    -9719.93139476
  entropy T*S    EENTRO =        -0.00001390
  eigenvalues    EBANDS =      -868.78671984
  atomic energy  EATOM  =     13036.45147835
  Solvation  Ediel_sol  =         0.00000000
  ---------------------------------------------------
  free energy    TOTEN  =      -289.35179055 eV

  energy without entropy =     -289.35177665  energy(sigma->0) =     -289.35178360


--------------------------------------------------------------------------------------------------------




--------------------------------------- Iteration      1(   5)  ---------------------------------------


     EDDAV:  cpu time     10.1702: real time     10.2202
       DOS:  cpu time      0.0012: real time      0.0012
    CHARGE:  cpu time      0.4247: real time      0.4262
    MIXING:  cpu time      0.0071: real time      0.0072
    --------------------------------------------
      LOOP:  cpu time     10.6032: real time     10.6548

 eigenvalue-minimisations  :  9096
 total energy-change (2. order) :-0.2846016E+00  (-0.2838203E+00)
 number of electron     359.9999995 magnetization      48.7846591
 augmentation part      -66.8136023 magnetization      48.9986894

 Broyden mixing:
  rms(total) = 0.29240E+01    rms(broyden)= 0.29240E+01
  rms(prec ) = 0.30776E+01
  weight for this iteration     100.00

 Free energy of the ion-electron system (eV)
  ---------------------------------------------------
  alpha Z        PSCENC =       798.78821400
  Ewald energy   TEWEN  =    -12862.47744222
  -Hartree energ DENC   =     -1118.48216633
  -exchange      EXHF   =         0.00000000
  -V(xc)+E(xc)   XCENC  =      -293.33474446
  PAW double counting   =     10738.42099860    -9719.93139476
  entropy T*S    EENTRO =        -0.00001401
  eigenvalues    EBANDS =      -869.07132128
  atomic energy  EATOM  =     13036.45147835
  Solvation  Ediel_sol  =         0.00000000
  ---------------------------------------------------
  free energy    TOTEN  =      -289.63639210 eV

  energy without entropy =     -289.63637809  energy(sigma->0) =     -289.63638510


--------------------------------------------------------------------------------------------------------




--------------------------------------- Iteration      1(   6)  ---------------------------------------


    POTLOK:  cpu time      0.1348: real time      0.1377
    SETDIJ:  cpu time      0.6045: real time      0.6069
     EDDAV:  cpu time      9.2483: real time      9.2940
       DOS:  cpu time      0.0011: real time      0.0011
    CHARGE:  cpu time      0.4204: real time      0.4220
    MIXING:  cpu time      0.0073: real time      0.0074
    --------------------------------------------
      LOOP:  cpu time     10.4165: real time     10.4690

 eigenvalue-minimisations  :  7936
 total energy-change (2. order) : 0.2948582E+00  (-0.2649469E+01)
 number of electron     359.9999995 magnetization      27.8598168
 augmentation part      -66.2004860 magnetization      29.0434628

 Broyden mixing:
  rms(total) = 0.17315E+01    rms(broyden)= 0.17315E+01
  rms(prec ) = 0.17681E+01
  weight for this iteration     100.00

 eigenvalues of (default mixing * dielectric matrix)
  average eigenvalue GAMMA=   1.0094
  1.0094

 Free energy of the ion-electron system (eV)
  ---------------------------------------------------
  alpha Z        PSCENC =       798.78821400
  Ewald energy   TEWEN  =    -12862.47744222
  -Hartree energ DENC   =     -1171.91180710
  -exchange      EXHF   =         0.00000000
  -V(xc)+E(xc)   XCENC  =      -286.83581509
  PAW double counting   =     13044.49231266   -12029.54975263
  entropy T*S    EENTRO =        -0.00002648
  eigenvalues    EBANDS =      -818.29869536
  atomic energy  EATOM  =     13036.45147835
  Solvation  Ediel_sol  =         0.00000000
  ---------------------------------------------------
  free energy    TOTEN  =      -289.34153387 eV

  energy without entropy =     -289.34150738  energy(sigma->0) =     -289.34152062


--------------------------------------------------------------------------------------------------------




--------------------------------------- Iteration      1(   7)  ---------------------------------------


    POTLOK:  cpu time      0.1309: real time      0.1321
    SETDIJ:  cpu time      0.6053: real time      0.6069
     EDDAV:  cpu time      9.3078: real time      9.3546
       DOS:  cpu time      0.0009: real time      0.0009
    CHARGE:  cpu time      0.4181: real time      0.4196
    MIXING:  cpu time      0.0073: real time      0.0073
    --------------------------------------------
      LOOP:  cpu time     10.4703: real time     10.5215

 eigenvalue-minimisations  :  7984
 total energy-change (2. order) :-0.7301540E+01  (-0.8545943E+00)
 number of electron     359.9999995 magnetization       9.0265642
 augmentation part      -66.1884974 magnetization       9.7016403

 Broyden mixing:
  rms(total) = 0.91016E+00    rms(broyden)= 0.91016E+00
  rms(prec ) = 0.92635E+00
  weight for this iteration     100.00

 eigenvalues of (default mixing * dielectric matrix)
  average eigenvalue GAMMA=   1.4608
  0.8618  2.0598

 Free energy of the ion-electron system (eV)
  ---------------------------------------------------
  alpha Z        PSCENC =       798.78821400
  Ewald energy   TEWEN  =    -12862.47744222
  -Hartree energ DENC   =     -1188.85556141
  -exchange      EXHF   =         0.00000000
  -V(xc)+E(xc)   XCENC  =      -289.73209031
  PAW double counting   =     15162.39482997   -14149.10933732
  entropy T*S    EENTRO =        -0.00000001
  eigenvalues    EBANDS =      -804.10316459
  atomic energy  EATOM  =     13036.45147835
  Solvation  Ediel_sol  =         0.00000000
  ---------------------------------------------------
  free energy    TOTEN  =      -296.64307354 eV

  energy without entropy =     -296.64307354  energy(sigma->0) =     -296.64307354


--------------------------------------------------------------------------------------------------------




--------------------------------------- Iteration      1(   8)  ---------------------------------------


    POTLOK:  cpu time      0.1321: real time      0.1328
    SETDIJ:  cpu time      0.6057: real time      0.6075
     EDDAV:  cpu time      9.4885: real time      9.5396
       DOS:  cpu time      0.0013: real time      0.0013
    CHARGE:  cpu time      0.4222: real time      0.4242
    MIXING:  cpu time      0.0076: real time      0.0076
    --------------------------------------------
      LOOP:  cpu time     10.6575: real time     10.7130

 eigenvalue-minimisations  :  8160
 total energy-change (2. order) :-0.3229605E+01  (-0.1764921E+00)
 number of electron     359.9999995 magnetization       4.2927491
 augmentation part      -66.1944905 magnetization       4.5963746

 Broyden mixing:
  rms(total) = 0.32446E+00    rms(broyden)= 0.32446E+00
  rms(prec ) = 0.32972E+00
  weight for this iteration     100.00

 eigenvalues of (default mixing * dielectric matrix)
  average eigenvalue GAMMA=   1.3633
  2.5075  0.9264  0.6561

 Free energy of the ion-electron system (eV)
  ---------------------------------------------------
  alpha Z        PSCENC =       798.78821400
  Ewald energy   TEWEN  =    -12862.47744222
  -Hartree energ DENC   =     -1193.80747531
  -exchange      EXHF   =         0.00000000
  -V(xc)+E(xc)   XCENC  =      -289.37407108
  PAW double counting   =     16971.72337845   -15959.40915988
  entropy T*S    EENTRO =        -0.00000000
  eigenvalues    EBANDS =      -801.76760090
  atomic energy  EATOM  =     13036.45147835
  Solvation  Ediel_sol  =         0.00000000
  ---------------------------------------------------
  free energy    TOTEN  =      -299.87267859 eV

  energy without entropy =     -299.87267859  energy(sigma->0) =     -299.87267859


--------------------------------------------------------------------------------------------------------




--------------------------------------- Iteration      1(   9)  ---------------------------------------


    POTLOK:  cpu time      0.1307: real time      0.1313
    SETDIJ:  cpu time      0.6061: real time      0.6076
     EDDAV:  cpu time     10.2055: real time     10.2750
       DOS:  cpu time      0.0007: real time      0.0007
    CHARGE:  cpu time      0.4240: real time      0.4257
    MIXING:  cpu time      0.0082: real time      0.0083
    --------------------------------------------
      LOOP:  cpu time     11.3752: real time     11.4485

 eigenvalue-minimisations  :  9048
 total energy-change (2. order) :-0.3631769E+00  (-0.4152616E-01)
 number of electron     359.9999995 magnetization       2.2710974
 augmentation part      -66.2321612 magnetization       2.4213774

 Broyden mixing:
  rms(total) = 0.14576E+00    rms(broyden)= 0.14576E+00
  rms(prec ) = 0.14738E+00
  weight for this iteration     100.00

 eigenvalues of (default mixing * dielectric matrix)
  average eigenvalue GAMMA=   1.3293
  2.6339  1.2313  0.8311  0.6210

 Free energy of the ion-electron system (eV)
  ---------------------------------------------------
  alpha Z        PSCENC =       798.78821400
  Ewald energy   TEWEN  =    -12862.47744222
  -Hartree energ DENC   =     -1192.79643702
  -exchange      EXHF   =         0.00000000
  -V(xc)+E(xc)   XCENC  =      -289.41224709
  PAW double counting   =     17253.35083072   -16241.37417853
  entropy T*S    EENTRO =        -0.00000000
  eigenvalues    EBANDS =      -802.76607370
  atomic energy  EATOM  =     13036.45147835
  Solvation  Ediel_sol  =         0.00000000
  ---------------------------------------------------
  free energy    TOTEN  =      -300.23585549 eV

  energy without entropy =     -300.23585549  energy(sigma->0) =     -300.23585549


--------------------------------------------------------------------------------------------------------




--------------------------------------- Iteration      1(  10)  ---------------------------------------


    POTLOK:  cpu time      0.1306: real time      0.1312
    SETDIJ:  cpu time      0.6051: real time      0.6074
     EDDAV:  cpu time      9.4870: real time      9.5439
       DOS:  cpu time      0.0012: real time      0.0012
    CHARGE:  cpu time      0.4159: real time      0.4177
    MIXING:  cpu time      0.0075: real time      0.0076
    --------------------------------------------
      LOOP:  cpu time     10.6473: real time     10.7090

 eigenvalue-minimisations  :  8160
 total energy-change (2. order) :-0.9983097E-01  (-0.9077465E-02)
 number of electron     359.9999995 magnetization       0.7421895
 augmentation part      -66.2338888 magnetization       0.8096038

 Broyden mixing:
  rms(total) = 0.72550E-01    rms(broyden)= 0.72550E-01
  rms(prec ) = 0.73621E-01
  weight for this iteration     100.00

 eigenvalues of (default mixing * dielectric matrix)
  average eigenvalue GAMMA=   1.3743
  2.6993  1.7595  0.9671  0.8188  0.6268

 Free energy of the ion-electron system (eV)
  ---------------------------------------------------
  alpha Z        PSCENC =       798.78821400
  Ewald energy   TEWEN  =    -12862.47744222
  -Hartree energ DENC   =     -1192.97586293
  -exchange      EXHF   =         0.00000000
  -V(xc)+E(xc)   XCENC  =      -289.41164348
  PAW double counting   =     17257.75845994   -16245.79183147
  entropy T*S    EENTRO =        -0.00000000
  eigenvalues    EBANDS =      -802.67705865
  atomic energy  EATOM  =     13036.45147835
  Solvation  Ediel_sol  =         0.00000000
  ---------------------------------------------------
  free energy    TOTEN  =      -300.33568646 eV

  energy without entropy =     -300.33568646  energy(sigma->0) =     -300.33568646


--------------------------------------------------------------------------------------------------------




--------------------------------------- Iteration      1(  11)  ---------------------------------------


    POTLOK:  cpu time      0.1303: real time      0.1310
    SETDIJ:  cpu time      0.6069: real time      0.6094
     EDDAV:  cpu time     10.1678: real time     10.2263
       DOS:  cpu time      0.0007: real time      0.0007
    CHARGE:  cpu time      0.4260: real time      0.4275
    MIXING:  cpu time      0.0078: real time      0.0078
    --------------------------------------------
      LOOP:  cpu time     11.3395: real time     11.4026

 eigenvalue-minimisations  :  8912
 total energy-change (2. order) :-0.3083079E-01  (-0.3460004E-02)
 number of electron     359.9999995 magnetization       0.1736535
 augmentation part      -66.2198863 magnetization       0.1926471

 Broyden mixing:
  rms(total) = 0.28584E-01    rms(broyden)= 0.28584E-01
  rms(prec ) = 0.29015E-01
  weight for this iteration     100.00

 eigenvalues of (default mixing * dielectric matrix)
  average eigenvalue GAMMA=   1.4064
  2.9050  2.1872  1.1701  0.8552  0.6965  0.6246

 Free energy of the ion-electron system (eV)
  ---------------------------------------------------
  alpha Z        PSCENC =       798.78821400
  Ewald energy   TEWEN  =    -12862.47744222
  -Hartree energ DENC   =     -1194.05290703
  -exchange      EXHF   =         0.00000000
  -V(xc)+E(xc)   XCENC  =      -289.37243503
  PAW double counting   =     17181.14305013   -16169.14782489
  entropy T*S    EENTRO =        -0.00000000
  eigenvalues    EBANDS =      -801.69865055
  atomic energy  EATOM  =     13036.45147835
  Solvation  Ediel_sol  =         0.00000000
  ---------------------------------------------------
  free energy    TOTEN  =      -300.36651724 eV

  energy without entropy =     -300.36651724  energy(sigma->0) =     -300.36651724


--------------------------------------------------------------------------------------------------------




--------------------------------------- Iteration      1(  12)  ---------------------------------------


    POTLOK:  cpu time      0.1302: real time      0.1331
    SETDIJ:  cpu time      0.6065: real time      0.6085
     EDDAV:  cpu time      9.7635: real time      9.8192
       DOS:  cpu time      0.0010: real time      0.0010
    CHARGE:  cpu time      0.4254: real time      0.4271
    MIXING:  cpu time      0.0084: real time      0.0085
    --------------------------------------------
      LOOP:  cpu time     10.9351: real time     10.9974

 eigenvalue-minimisations  :  8496
 total energy-change (2. order) :-0.3349900E-02  (-0.4568558E-03)
 number of electron     359.9999995 magnetization       0.0565824
 augmentation part      -66.2193346 magnetization       0.0607892

 Broyden mixing:
  rms(total) = 0.10332E-01    rms(broyden)= 0.10332E-01
  rms(prec ) = 0.10972E-01
  weight for this iteration     100.00

 eigenvalues of (default mixing * dielectric matrix)
  average eigenvalue GAMMA=   1.3689
  3.0108  2.3420  1.2088  0.8787  0.8787  0.6081  0.6550

 Free energy of the ion-electron system (eV)
  ---------------------------------------------------
  alpha Z        PSCENC =       798.78821400
  Ewald energy   TEWEN  =    -12862.47744222
  -Hartree energ DENC   =     -1194.15459025
  -exchange      EXHF   =         0.00000000
  -V(xc)+E(xc)   XCENC  =      -289.37451605
  PAW double counting   =     17144.75952706   -16132.74116629
  entropy T*S    EENTRO =        -0.00000000
  eigenvalues    EBANDS =      -801.62137174
  atomic energy  EATOM  =     13036.45147835
  Solvation  Ediel_sol  =         0.00000000
  ---------------------------------------------------
  free energy    TOTEN  =      -300.36986714 eV

  energy without entropy =     -300.36986714  energy(sigma->0) =     -300.36986714


--------------------------------------------------------------------------------------------------------




--------------------------------------- Iteration      1(  13)  ---------------------------------------


    POTLOK:  cpu time      0.1302: real time      0.1309
    SETDIJ:  cpu time      0.6082: real time      0.6102
     EDDAV:  cpu time     10.8654: real time     10.9286
       DOS:  cpu time      0.0007: real time      0.0007
    CHARGE:  cpu time      0.4230: real time      0.4245
    MIXING:  cpu time      0.0079: real time      0.0079
    --------------------------------------------
      LOOP:  cpu time     12.0353: real time     12.1028

 eigenvalue-minimisations  :  9824
 total energy-change (2. order) :-0.1076432E-03  (-0.5615981E-04)
 number of electron     359.9999995 magnetization       0.0152117
 augmentation part      -66.2208639 magnetization       0.0160012

 Broyden mixing:
  rms(total) = 0.43126E-02    rms(broyden)= 0.43126E-02
  rms(prec ) = 0.45286E-02
  weight for this iteration     100.00

 eigenvalues of (default mixing * dielectric matrix)
  average eigenvalue GAMMA=   1.3440
  3.0547  2.4313  1.1233  1.0161  1.0161  0.8511  0.6497  0.6099

 Free energy of the ion-electron system (eV)
  ---------------------------------------------------
  alpha Z        PSCENC =       798.78821400
  Ewald energy   TEWEN  =    -12862.47744222
  -Hartree energ DENC   =     -1194.04925347
  -exchange      EXHF   =         0.00000000
  -V(xc)+E(xc)   XCENC  =      -289.38482228
  PAW double counting   =     17131.64828601   -16119.61895445
  entropy T*S    EENTRO =        -0.00000000
  eigenvalues    EBANDS =      -801.72748074
  atomic energy  EATOM  =     13036.45147835
  Solvation  Ediel_sol  =         0.00000000
  ---------------------------------------------------
  free energy    TOTEN  =      -300.36997479 eV

  energy without entropy =     -300.36997479  energy(sigma->0) =     -300.36997479


--------------------------------------------------------------------------------------------------------




--------------------------------------- Iteration      1(  14)  ---------------------------------------


    POTLOK:  cpu time      0.1307: real time      0.1314
    SETDIJ:  cpu time      0.6045: real time      0.6087
     EDDAV:  cpu time      9.5759: real time      9.6266
       DOS:  cpu time      0.0007: real time      0.0007
    CHARGE:  cpu time      0.4219: real time      0.4236
    MIXING:  cpu time      0.0081: real time      0.0082
    --------------------------------------------
      LOOP:  cpu time     10.7419: real time     10.7993

 eigenvalue-minimisations  :  8304
 total energy-change (2. order) :-0.1434279E-04  (-0.9274352E-05)
 number of electron     359.9999995 magnetization       0.0048038
 augmentation part      -66.2205225 magnetization       0.0051164

 Broyden mixing:
  rms(total) = 0.16548E-02    rms(broyden)= 0.16548E-02
  rms(prec ) = 0.17651E-02
  weight for this iteration     100.00

 eigenvalues of (default mixing * dielectric matrix)
  average eigenvalue GAMMA=   1.3339
  3.0797  2.4618  1.4625  1.1935  0.8895  0.8895  0.7734  0.6132  0.6417

 Free energy of the ion-electron system (eV)
  ---------------------------------------------------
  alpha Z        PSCENC =       798.78821400
  Ewald energy   TEWEN  =    -12862.47744222
  -Hartree energ DENC   =     -1194.05124238
  -exchange      EXHF   =         0.00000000
  -V(xc)+E(xc)   XCENC  =      -289.38553217
  PAW double counting   =     17127.40733929   -16115.37518502
  entropy T*S    EENTRO =        -0.00000000
  eigenvalues    EBANDS =      -801.72761900
  atomic energy  EATOM  =     13036.45147835
  Solvation  Ediel_sol  =         0.00000000
  ---------------------------------------------------
  free energy    TOTEN  =      -300.36998913 eV

  energy without entropy =     -300.36998913  energy(sigma->0) =     -300.36998913


--------------------------------------------------------------------------------------------------------




--------------------------------------- Iteration      1(  15)  ---------------------------------------


    POTLOK:  cpu time      0.1301: real time      0.1308
    SETDIJ:  cpu time      0.6081: real time      0.6105
     EDDAV:  cpu time      9.9358: real time      9.9872
       DOS:  cpu time      0.0009: real time      0.0009
    CHARGE:  cpu time      0.4146: real time      0.4162
    MIXING:  cpu time      0.0082: real time      0.0082
    --------------------------------------------
      LOOP:  cpu time     11.0978: real time     11.1538

 eigenvalue-minimisations  :  8624
 total energy-change (2. order) :-0.2922470E-05  (-0.1584948E-05)
 number of electron     359.9999995 magnetization       0.0018290
 augmentation part      -66.2206944 magnetization       0.0020296

 Broyden mixing:
  rms(total) = 0.74377E-03    rms(broyden)= 0.74377E-03
  rms(prec ) = 0.79229E-03
  weight for this iteration     100.00

 eigenvalues of (default mixing * dielectric matrix)
  average eigenvalue GAMMA=   1.2987
  3.0895  2.4360  1.6586  1.1031  0.9643  0.9643  0.8239  0.7078  0.6199  0.6199

 Free energy of the ion-electron system (eV)
  ---------------------------------------------------
  alpha Z        PSCENC =       798.78821400
  Ewald energy   TEWEN  =    -12862.47744222
  -Hartree energ DENC   =     -1194.03826695
  -exchange      EXHF   =         0.00000000
  -V(xc)+E(xc)   XCENC  =      -289.38598214
  PAW double counting   =     17126.93582546   -16114.90287646
  entropy T*S    EENTRO =        -0.00000000
  eigenvalues    EBANDS =      -801.74094210
  atomic energy  EATOM  =     13036.45147835
  Solvation  Ediel_sol  =         0.00000000
  ---------------------------------------------------
  free energy    TOTEN  =      -300.36999205 eV

  energy without entropy =     -300.36999205  energy(sigma->0) =     -300.36999205


--------------------------------------------------------------------------------------------------------




--------------------------------------- Iteration      1(  16)  ---------------------------------------


    POTLOK:  cpu time      0.1328: real time      0.1335
    SETDIJ:  cpu time      0.6051: real time      0.6075
     EDDAV:  cpu time      6.5944: real time      6.6362
       DOS:  cpu time      0.0008: real time      0.0008
    --------------------------------------------
      LOOP:  cpu time      7.3330: real time      7.3779

 eigenvalue-minimisations  :  4872
 total energy-change (2. order) :-0.6063669E-06  (-0.1388819E-06)
 number of electron     359.9999995 magnetization       0.0018290
 augmentation part      -66.2206944 magnetization       0.0020296

 Free energy of the ion-electron system (eV)
  ---------------------------------------------------
  alpha Z        PSCENC =       798.78821400
  Ewald energy   TEWEN  =    -12862.47744222
  -Hartree energ DENC   =     -1194.03271863
  -exchange      EXHF   =         0.00000000
  -V(xc)+E(xc)   XCENC  =      -289.38624274
  PAW double counting   =     17126.89650861   -16114.86332149
  entropy T*S    EENTRO =        -0.00000000
  eigenvalues    EBANDS =      -801.74646855
  atomic energy  EATOM  =     13036.45147835
  Solvation  Ediel_sol  =         0.00000000
  ---------------------------------------------------
  free energy    TOTEN  =      -300.36999266 eV

  energy without entropy =     -300.36999266  energy(sigma->0) =     -300.36999266


--------------------------------------------------------------------------------------------------------




 average (electrostatic) potential at core
  the test charge radii are     1.1631  1.0808
  (the norm of the test charge is              1.0000)
       1 -33.4092       2 -33.3396       3 -33.4184       4 -33.6335       5 -33.6230
       6 -33.1484       7 -33.4193       8 -33.3537       9 -33.3819      10 -33.4443
      11 -33.5528      12 -33.4617      13 -33.6529      14 -33.5530      15 -33.4828
      16 -33.5203      17 -33.4501      18 -33.3199      19 -33.5226      20 -33.4503
      21 -33.3742      22 -33.4732      23 -33.4295      24 -33.5792      25 -33.3951
      26 -33.3928      27 -33.2982      28 -33.5094      29 -33.2142      30 -33.6827
      31 -33.5024      32 -33.4829      33 -33.3241      34 -33.1283      35 -33.6391
      36 -33.4053      37 -54.8972      38 -54.8040      39 -54.7613      40 -54.8632
      41 -54.8605      42 -54.9186      43 -54.7108      44 -54.9603      45 -54.7258
      46 -54.7635      47 -54.9282      48 -54.8526      49 -54.6832      50 -54.8537
      51 -55.1737      52 -54.8065      53 -55.0141      54 -54.7604      55 -54.7215
      56 -54.8781      57 -54.6751      58 -54.9257      59 -54.7269      60 -54.9610
      61 -54.8664      62 -54.7914      63 -54.6841      64 -54.7575      65 -54.7546
      66 -54.9008      67 -54.8986      68 -54.8049      69 -54.8099      70 -54.7689
      71 -54.7229      72 -54.8019
 
 
 
 E-fermi :   3.5052     XC(G=0):  -9.3825     alpha+bet : -8.8419

 Fermi energy:         3.5052450681

 spin component 1

 k-point     1 :       0.0000    0.0000    0.0000
  band No.  band energies     occupation 
      1     -10.9178      1.00000
      2     -10.6438      1.00000
      3     -10.4475      1.00000
      4     -10.3535      1.00000
      5     -10.3121      1.00000
      6     -10.2177      1.00000
      7     -10.1331      1.00000
      8     -10.0649      1.00000
      9     -10.0015      1.00000
     10      -9.9568      1.00000
     11      -9.9217      1.00000
     12      -9.8797      1.00000
     13      -9.8126      1.00000
     14      -9.7347      1.00000
     15      -9.6777      1.00000
     16      -9.6452      1.00000
     17      -9.6140      1.00000
     18      -9.5239      1.00000
     19      -9.4902      1.00000
     20      -9.4717      1.00000
     21      -9.4406      1.00000
     22      -9.3912      1.00000
     23      -9.3265      1.00000
     24      -9.2834      1.00000
     25      -9.2580      1.00000
     26      -9.2426      1.00000
     27      -9.2336      1.00000
     28      -9.1902      1.00000
     29      -9.1423      1.00000
     30      -9.1027      1.00000
     31      -9.0850      1.00000
     32      -9.0476      1.00000
     33      -9.0350      1.00000
     34      -9.0256      1.00000
     35      -9.0078      1.00000
     36      -8.9283      1.00000
     37      -5.4526      1.00000
     38      -5.3780      1.00000
     39      -5.2919      1.00000
     40      -5.2639      1.00000
     41      -5.1305      1.00000
     42      -5.0566      1.00000
     43      -5.0219      1.00000
     44      -5.0082      1.00000
     45      -4.7959      1.00000
     46      -4.7519      1.00000
     47      -4.5637      1.00000
     48      -4.5224      1.00000
     49      -4.4654      1.00000
     50      -4.4434      1.00000
     51      -4.4178      1.00000
     52      -4.3832      1.00000
     53      -4.3602      1.00000
     54      -4.3216      1.00000
     55      -4.2919      1.00000
     56      -4.2832      1.00000
     57      -4.2235      1.00000
     58      -4.1801      1.00000
     59      -4.1584      1.00000
     60      -4.1423      1.00000
     61      -4.0979      1.00000
     62      -4.0367      1.00000
     63      -4.0079      1.00000
     64      -3.9354      1.00000
     65      -3.8815      1.00000
     66      -3.8597      1.00000
     67      -3.6950      1.00000
     68      -3.6564      1.00000
     69      -3.4814      1.00000
     70      -3.3835      1.00000
     71      -2.4046      1.00000
     72      -2.3206      1.00000
     73      -1.8122      1.00000
     74      -1.6144      1.00000
     75      -1.5360      1.00000
     76      -1.4966      1.00000
     77      -1.4731      1.00000
     78      -1.4206      1.00000
     79      -1.3867      1.00000
     80      -1.2698      1.00000
     81      -1.1879      1.00000
     82      -1.1633      1.00000
     83      -1.0574      1.00000
     84      -1.0248      1.00000
     85      -1.0103      1.00000
     86      -0.8106      1.00000
     87      -0.7555      1.00000
     88      -0.7345      1.00000
     89      -0.6790      1.00000
     90      -0.6603      1.00000
     91      -0.6421      1.00000
     92      -0.5012      1.00000
     93      -0.4774      1.00000
     94      -0.3549      1.00000
     95      -0.1125      1.00000
     96      -0.0596      1.00000
     97      -0.0187      1.00000
     98      -0.0019      1.00000
     99       0.0126      1.00000
    100       0.0629      1.00000
    101       0.1152      1.00000
    102       0.1508      1.00000
    103       0.1630      1.00000
    104       0.2136      1.00000
    105       0.2538      1.00000
    106       0.2564      1.00000
    107       0.3032      1.00000
    108       0.3646      1.00000
    109       0.3742      1.00000
    110       0.4270      1.00000
    111       0.4408      1.00000
    112       0.5395      1.00000
    113       0.5877      1.00000
    114       0.6433      1.00000
    115       0.6636      1.00000
    116       0.6798      1.00000
    117       0.7100      1.00000
    118       0.7256      1.00000
    119       0.7824      1.00000
    120       0.7985      1.00000
    121       0.8189      1.00000
    122       0.8428      1.00000
    123       0.8739      1.00000
    124       0.9255      1.00000
    125       0.9896      1.00000
    126       1.0220      1.00000
    127       1.0542      1.00000
    128       1.0606      1.00000
    129       1.0791      1.00000
    130       1.1440      1.00000
    131       1.1820      1.00000
    132       1.2456      1.00000
    133       1.2606      1.00000
    134       1.3421      1.00000
    135       1.3593      1.00000
    136       1.3699      1.00000
    137       1.4325      1.00000
    138       1.4730      1.00000
    139       1.5214      1.00000
    140       1.5362      1.00000
    141       1.5450      1.00000
    142       1.5805      1.00000
    143       1.6270      1.00000
    144       1.6963      1.00000
    145       1.7388      1.00000
    146       1.7876      1.00000
    147       1.8176      1.00000
    148       1.8349      1.00000
    149       1.8509      1.00000
[...]
   -.863E+01 0.141E+01 -.295E+02   0.908E+01 -.358E+00 0.318E+02   -.774E+00 -.133E+01 -.283E+01   -.175E-05 0.228E-04 0.426E-04
   0.117E+02 0.163E+02 0.295E+02   -.123E+02 -.186E+02 -.323E+02   -.655E-01 0.201E+01 0.280E+01   -.223E-04 0.288E-03 0.311E-04
   0.192E+02 -.495E+01 0.173E+02   -.204E+02 0.436E+01 -.189E+02   0.359E+00 0.311E+00 0.138E+01   0.261E-06 0.961E-04 -.228E-04
   0.897E+01 0.865E+01 0.124E+02   -.950E+01 -.989E+01 -.146E+02   0.342E+00 0.838E+00 0.223E+01   0.627E-04 -.220E-03 0.149E-03
   0.207E+02 0.853E+01 0.124E+02   -.217E+02 -.922E+01 -.137E+02   0.791E+00 0.201E+00 0.152E+01   0.122E-03 -.112E-04 -.470E-03
   0.356E+01 0.960E+01 0.180E+02   -.383E+01 -.106E+02 -.200E+02   -.114E+00 0.588E+00 0.170E+01   -.151E-03 -.362E-03 0.137E-03
   0.146E+02 0.136E+02 0.212E+02   -.153E+02 -.144E+02 -.230E+02   0.587E+00 0.887E+00 0.190E+01   -.896E-04 0.415E-03 -.279E-03
   0.246E+01 -.183E+01 0.240E+02   -.272E+01 0.121E+01 -.254E+02   0.619E-01 0.122E+01 0.432E+00   0.125E-03 -.505E-04 -.285E-03
   -.103E+02 0.962E+01 0.537E+01   0.103E+02 -.106E+02 -.683E+01   0.136E+00 0.864E+00 0.201E+01   0.908E-04 0.103E-03 -.363E-03
   0.579E+01 -.973E+01 -.161E+02   -.612E+01 0.108E+02 0.179E+02   -.521E+00 -.106E+01 -.213E+01   0.135E-03 -.276E-03 -.364E-03
   0.161E+01 -.979E+01 -.238E+02   -.195E+01 0.109E+02 0.254E+02   -.107E-01 -.133E+01 -.157E+01   -.466E-04 -.116E-03 -.260E-04
   -.373E+01 -.128E+02 -.205E+02   0.393E+01 0.140E+02 0.221E+02   0.592E-01 -.695E+00 -.217E+01   -.162E-03 -.689E-04 0.223E-03
   0.932E+01 -.431E-01 -.296E+02   -.105E+02 0.159E+00 0.315E+02   0.131E+01 0.161E+00 -.180E+01   -.111E-04 -.585E-04 0.873E-05
   0.198E+02 0.782E+01 -.106E+02   -.211E+02 -.791E+01 0.121E+02   0.108E+01 -.276E-01 -.177E+01   0.864E-04 -.346E-03 -.304E-06
   0.493E+01 -.148E+02 -.192E+02   -.507E+01 0.164E+02 0.207E+02   0.671E-01 -.150E+01 -.164E+01   0.712E-04 0.252E-03 -.300E-04
   0.161E+01 -.739E+01 -.948E+01   -.196E+01 0.811E+01 0.109E+02   0.750E+00 -.863E+00 -.165E+01   0.304E-03 -.104E-03 -.103E-03
   -.393E+01 0.188E+02 0.339E+02   0.388E+01 -.204E+02 -.360E+02   -.829E-01 0.514E+00 0.157E+01   0.138E-03 0.159E-03 -.307E-04
   -.744E+01 0.178E+02 0.206E+02   0.773E+01 -.190E+02 -.226E+02   0.166E+00 0.843E+00 0.178E+01   -.147E-03 -.101E-03 -.123E-03
   -.387E+01 -.206E+02 0.353E+02   0.433E+01 0.222E+02 -.374E+02   0.491E-01 -.994E+00 0.171E+01   -.224E-03 0.168E-03 -.574E-04
   -.107E+02 -.167E+02 0.311E+02   0.110E+02 0.180E+02 -.328E+02   -.105E+00 -.137E+01 0.163E+01   0.121E-03 -.763E-04 -.130E-03
   0.631E+01 -.161E+02 0.476E+02   -.628E+01 0.174E+02 -.499E+02   -.499E+00 -.103E+01 0.135E+01   -.481E-03 -.743E-04 0.128E-03
   0.120E+02 0.373E+01 -.147E+02   -.130E+02 -.392E+01 0.162E+02   0.107E+01 0.904E-01 -.163E+01   0.445E-04 -.102E-03 -.209E-03
   0.214E+02 -.115E+02 -.298E+02   -.219E+02 0.109E+02 0.313E+02   0.466E+00 0.524E+00 -.197E+01   0.512E-03 0.333E-06 -.200E-03
   -.106E+02 0.155E+02 -.293E+02   0.108E+02 -.169E+02 0.311E+02   -.977E-01 0.107E+01 -.163E+01   -.199E-03 -.212E-03 -.274E-05
   -.808E+01 0.225E+02 -.357E+02   0.840E+01 -.237E+02 0.374E+02   -.341E-01 0.951E+00 -.191E+01   -.165E-03 0.252E-03 0.326E-03
   -.134E+02 0.293E+01 -.400E+02   0.140E+02 -.352E+01 0.421E+02   -.296E+00 0.525E+00 -.236E+01   -.340E-03 0.625E-04 0.127E-03
   0.228E+02 0.112E+02 -.319E+02   -.235E+02 -.122E+02 0.330E+02   -.215E+00 0.958E+00 -.148E+01   0.143E-03 -.114E-03 0.207E-03
   0.152E+02 0.140E+02 -.320E+02   -.160E+02 -.150E+02 0.333E+02   -.937E-02 0.462E+00 -.160E+01   0.187E-03 0.356E-03 0.193E-03
   -.151E+02 0.125E+02 -.459E+02   0.152E+02 -.136E+02 0.480E+02   0.801E+00 0.124E+01 -.130E+01   -.139E-04 -.304E-03 0.573E-03
   -.145E+02 0.445E+01 -.347E+02   0.149E+02 -.482E+01 0.360E+02   -.154E+00 0.665E+00 -.177E+01   -.521E-04 0.378E-03 0.216E-03
   -.776E+01 0.515E+01 -.366E+02   0.773E+01 -.661E+01 0.380E+02   0.303E+00 0.157E+01 -.137E+01   -.382E-04 0.158E-03 0.367E-03
   -.837E+01 -.163E+02 0.383E+02   0.869E+01 0.178E+02 -.403E+02   -.295E-01 -.115E+01 0.158E+01   0.215E-03 0.139E-03 0.104E-03
   0.217E+01 0.133E+02 0.390E+02   -.299E+01 -.139E+02 -.409E+02   0.152E+01 0.739E+00 0.130E+01   0.383E-04 -.164E-03 0.467E-04
   0.151E+02 0.152E+02 0.406E+02   -.165E+02 -.158E+02 -.423E+02   0.140E+01 0.282E+00 0.178E+01   0.192E-03 -.275E-03 -.206E-03
   0.194E+01 -.208E+02 0.287E+02   -.180E+01 0.224E+02 -.298E+02   -.120E+00 -.132E+01 0.920E+00   0.100E-03 0.145E-03 -.116E-04
   -.231E+01 -.167E+02 0.188E+02   0.263E+01 0.179E+02 -.202E+02   -.296E+00 -.116E+01 0.224E+01   0.156E-03 0.816E-04 0.107E-03
   0.984E+01 0.168E+02 0.384E+02   -.110E+02 -.175E+02 -.401E+02   0.140E+01 0.649E+00 0.176E+01   -.194E-03 0.103E-03 0.599E-04
   0.831E+01 -.112E+02 -.196E+02   -.832E+01 0.124E+02 0.210E+02   -.372E+00 -.130E+01 -.113E+01   -.176E-03 0.194E-03 0.201E-04
 -----------------------------------------------------------------------------------------------
   0.893E+01 0.412E+01 0.204E+01   0.853E-13 0.117E-12 -.249E-13   -.893E+01 -.412E+01 -.204E+01   -.309E-03 0.266E-03 -.596E-03
 
 
 POSITION                                       TOTAL-FORCE (eV/Angst)
 -----------------------------------------------------------------------------------
      0.77981      0.27595      1.37966         0.113519      0.302088      0.325740
      2.57771     10.63877      4.18140        -0.143610      0.011916      0.351690
      6.88734      2.37157      4.14870        -0.271442      0.092875     -0.335510
      6.96179      6.86761      4.50041         0.034963      0.292240     -0.569061
      7.10064     11.01370      4.14310         0.258679      0.057205     -0.551101
     11.16479      2.79693      4.04898         0.257811     -0.495115      0.822203
     11.07114      6.57002      4.13620        -0.165117      0.058083     -0.238144
     10.91175     10.94167      4.05137         0.726916     -0.390477      0.514658
      0.83393      1.89635      6.90498        -0.035263      0.892454      0.309818
      0.77425      6.27305      6.98605         0.096036     -0.225024     -0.349137
      0.68425     10.49834      6.98749        -0.186373     -0.200839      0.368978
      4.79782      1.75654      7.06623         0.880947      0.988527     -0.183125
      4.85391      6.29223      6.71903         0.133949     -0.090388      0.627610
      5.05617     10.24614      6.83435         0.233409     -0.155446      0.374231
      9.05809      2.08867      6.86912         0.085601      0.084162     -0.181178
      8.90373      6.03999      6.82207         0.258356      0.049273      0.615694
      2.76137      6.75932      4.05392         0.266540     -0.052773      0.390272
      2.82904      2.36869      4.10423        -0.014597      0.147507      0.042745
      9.03951     10.34477      6.72490        -0.131500     -0.329873      0.539208
     11.25051      8.04932      9.53736        -0.493406      0.437538      0.324184
     11.04125     12.37094      9.68144         0.019946      0.003997      0.124896
      1.03927      4.63137      1.38702        -0.413792     -0.030188      0.434637
      0.51846      8.63239      1.42607        -0.028240     -0.262105     -0.018560
      4.64610      0.07063      1.37898        -0.171297      0.209343      0.294440
      4.99914      4.60265      1.36306        -0.163475     -0.017003      0.293306
      9.17436      0.64672      1.57667         0.179281      0.029682     -0.190204
      8.82391      4.54080      1.55571         0.080515      0.134766     -0.202159
      5.15626      8.95461      1.51772        -0.148841     -0.114427      0.105644
      3.08814      3.88369      9.43830        -0.497318      0.618640      0.401871
      3.12518      8.24347      9.73310         0.033373      0.034617     -0.379633
      2.85474     12.46227      9.52499        -0.184599     -0.189904      0.712788
      6.92617      4.19763      9.47343         0.154791     -0.331100     -0.141100
      7.13235      8.14390      9.76314         0.277317      0.051542      0.444917
      6.94760     12.30309      9.41581         0.803440      0.719688      0.591149
     11.11031      4.08915      9.63599        -0.324359     -0.277758     -0.507538
      9.18535      8.71518      1.28107        -0.703631     -0.271930      0.009116
     11.43911      0.24294      7.19805        -0.906594     -0.273720     -0.252089
      2.96173      4.61912      6.96154        -0.183229     -0.405356      0.076627
      3.06185      8.74020      7.16537        -0.221348     -0.489122      0.225083
      7.14763      0.34866      6.95809        -0.384872     -0.383760     -0.309720
      6.96296      4.35642      6.91742        -0.157383      0.006541      0.165799
      7.21654      8.44626      7.31033        -0.203860      0.597434     -1.003274
     11.21996      4.50478      7.03881         0.093199     -0.084741      0.552609
      9.32228      0.31299      4.11424        -0.850297      0.008328     -0.310707
      0.79928      0.00348      3.93805        -0.347412     -0.247794      0.003076
      0.93076      4.21329      4.03916         0.264678      0.465528     -0.573356
      0.89098      8.50780      3.96241         0.125729      0.276636      0.034884
      5.28094      0.27328      3.93021        -0.267133     -0.112931     -0.220369
      4.88480      4.03987      3.88599        -0.079904      0.095103     -0.091750
      4.96565      8.59632      4.08705         0.398638     -0.138671     -0.253320
      2.83690      0.29202      7.09792        -0.130392     -1.151499     -0.525215
     11.09016      8.75100      7.09831         0.456871     -0.337693     -0.269170
     11.00380     10.38205      1.58783         0.509359      0.645106     -0.374929
      2.77415      2.00652      1.59112         0.196366     -0.127550     -0.121319
     11.39635      2.14360      1.67769        -0.474718      0.257766     -0.881576
      9.29270      4.54251      4.03421        -0.015773     -0.094220     -0.070278
      1.00250      2.33821      9.50667        -0.104538      0.010528     -0.427492
      0.94972      6.63584      9.45286         0.124378     -0.329620      0.234303
      0.73646     10.75524      9.55683         0.278960     -0.234580     -0.179431
      4.95047      2.19322      9.59547         0.354547     -0.055786     -0.318176
      5.23586      6.50971      9.44996        -0.866835     -0.052300     -0.350876
      5.09899     10.70030      9.44002        -0.795548     -0.527156     -0.326043
      8.89065      2.39837      9.30337         0.885969      0.152516      0.771887
      9.07412      6.25651      9.53980         0.290565      0.294160     -0.463674
      9.04106     10.69909      9.28051         0.272802      0.116794     -0.031732
      2.96347      6.30750      1.61569         0.294477      0.286009     -0.412651
      2.90933     10.56506      1.73234         0.702633      0.112162     -0.637359
      7.28148      2.44433      1.59780         0.037709     -0.311606      0.119263
      6.89410      6.24545      1.94718         0.018533      0.332004     -0.166515
      7.18938     10.57100      1.39753         0.032293      0.081233      0.860208
     11.41011      6.44340      1.58507         0.220733     -0.032658      0.031938
      9.16883      8.38110      3.82866        -0.387136     -0.128877      0.322000
 -----------------------------------------------------------------------------------
    total drift:                               -0.000440     -0.001189      0.000088


--------------------------------------------------------------------------------------------------------



  FREE ENERGIE OF THE ION-ELECTRON SYSTEM (eV)
  ---------------------------------------------------
  free  energy   TOTEN  =      -300.36999266 eV

  energy  without entropy=     -300.36999266  energy(sigma->0) =     -300.36999266
 


--------------------------------------------------------------------------------------------------------


    POTLOK:  cpu time      0.7468: real time      0.7499


--------------------------------------------------------------------------------------------------------


     LOOP+:  cpu time    180.5966: real time    181.5734
    4ORBIT:  cpu time      0.0000: real time      0.0000



 total charge

# of ion       s       p       d       tot
------------------------------------------
    1        1.321   0.766   0.059   2.146
    2        1.314   0.798   0.060   2.173
    3        1.321   0.766   0.057   2.145
    4        1.317   0.744   0.052   2.113
    5        1.329   0.722   0.048   2.098
    6        1.311   0.831   0.065   2.207
    7        1.327   0.754   0.057   2.138
    8        1.311   0.814   0.062   2.187
    9        1.316   0.799   0.062   2.177
   10        1.324   0.762   0.054   2.139
   11        1.326   0.738   0.053   2.118
   12        1.320   0.802   0.060   2.181
   13        1.326   0.724   0.052   2.103
   14        1.326   0.743   0.053   2.122
   15        1.327   0.758   0.059   2.144
   16        1.324   0.742   0.054   2.120
   17        1.317   0.783   0.056   2.156
   18        1.316   0.778   0.057   2.151
   19        1.314   0.763   0.056   2.134
   20        1.314   0.779   0.053   2.145
   21        1.317   0.772   0.053   2.142
   22        1.332   0.734   0.051   2.117
   23        1.324   0.770   0.056   2.149
   24        1.332   0.728   0.048   2.107
   25        1.315   0.775   0.056   2.146
   26        1.323   0.770   0.053   2.146
   27        1.319   0.795   0.059   2.173
   28        1.323   0.751   0.050   2.124
   29        1.304   0.824   0.057   2.185
   30        1.336   0.708   0.045   2.089
   31        1.324   0.766   0.059   2.149
   32        1.324   0.752   0.058   2.135
   33        1.311   0.810   0.064   2.185
   34        1.312   0.834   0.067   2.212
   35        1.340   0.683   0.041   2.065
   36        1.319   0.783   0.061   2.163
   37        1.473   2.322   0.034   3.829
   38        1.478   2.292   0.031   3.801
   39        1.475   2.297   0.029   3.801
   40        1.478   2.307   0.035   3.820
   41        1.479   2.290   0.032   3.801
   42        1.476   2.301   0.033   3.810
   43        1.478   2.279   0.027   3.784
   44        1.482   2.303   0.038   3.822
   45        1.477   2.298   0.030   3.804
   46        1.478   2.288   0.031   3.796
   47        1.477   2.303   0.034   3.814
   48        1.474   2.306   0.031   3.811
   49        1.476   2.299   0.029   3.805
   50        1.478   2.277   0.029   3.784
   51        1.476   2.354   0.045   3.874
   52        1.474   2.303   0.030   3.808
   53        1.474   2.332   0.038   3.844
   54        1.475   2.302   0.031   3.808
   55        1.472   2.323   0.033   3.828
   56        1.478   2.315   0.036   3.829
   57        1.478   2.281   0.027   3.785
   58        1.476   2.312   0.032   3.820
   59        1.477   2.286   0.028   3.791
   60        1.483   2.284   0.037   3.804
   61        1.477   2.294   0.031   3.801
   62        1.477   2.310   0.032   3.819
   63        1.476   2.304   0.030   3.810
   64        1.478   2.267   0.027   3.772
   65        1.478   2.297   0.031   3.805
   66        1.473   2.322   0.033   3.829
   67        1.478   2.304   0.033   3.815
   68        1.477   2.307   0.032   3.816
   69        1.473   2.310   0.031   3.814
   70        1.480   2.267   0.027   3.774
   71        1.477   2.291   0.029   3.797
   72        1.475   2.295   0.029   3.800
--------------------------------------------------
tot        100.716 110.442   3.152 214.310



 magnetization (x)

# of ion       s       p       d       tot
------------------------------------------
    1       -0.000   0.000   0.000   0.000
    2       -0.000   0.000   0.000   0.000
    3       -0.000  -0.000  -0.000  -0.000
    4       -0.000   0.000   0.000  -0.000
    5       -0.000   0.000   0.000   0.000
    6       -0.000  -0.000  -0.000  -0.000
    7       -0.000   0.000  -0.000  -0.000
    8       -0.000   0.000  -0.000   0.000
    9       -0.000  -0.000  -0.000  -0.000
   10       -0.000   0.000  -0.000   0.000
   11       -0.000   0.000   0.000   0.000
   12       -0.000   0.000  -0.000   0.000
   13       -0.000   0.000   0.000   0.000
   14       -0.000   0.000   0.000   0.000
   15       -0.000  -0.000  -0.000  -0.000
   16       -0.000   0.000  -0.000  -0.000
   17       -0.000   0.000   0.000   0.000
   18       -0.000   0.000  -0.000  -0.000
   19       -0.000   0.000   0.000  -0.000
   20       -0.000   0.000   0.000   0.000
   21       -0.000   0.000  -0.000  -0.000
   22       -0.000   0.000   0.000   0.000
   23       -0.000   0.000   0.000   0.000
   24       -0.000   0.000   0.000   0.000
   25       -0.000   0.000   0.000   0.000
   26       -0.000   0.000  -0.000   0.000
   27       -0.000   0.000  -0.000   0.000
   28       -0.000   0.000   0.000   0.000
   29       -0.000   0.000   0.000   0.000
   30       -0.000   0.000   0.000   0.000
   31       -0.000   0.000   0.000   0.000
   32       -0.000   0.000  -0.000   0.000
   33       -0.000   0.000   0.000   0.000
   34       -0.000   0.000   0.000   0.000
   35       -0.000  -0.000  -0.000  -0.000
   36       -0.000   0.000   0.000   0.000
   37       -0.000  -0.000  -0.000  -0.000
   38       -0.000  -0.000   0.000  -0.000
   39       -0.000  -0.000   0.000  -0.000
   40       -0.000  -0.000  -0.000  -0.000
   41       -0.000  -0.000  -0.000  -0.000
   42       -0.000  -0.000   0.000  -0.000
   43       -0.000  -0.000  -0.000  -0.000
   44       -0.000  -0.000  -0.000  -0.000
   45       -0.000  -0.000   0.000  -0.000
   46       -0.000  -0.000   0.000  -0.000
   47       -0.000  -0.000   0.000  -0.000
   48       -0.000  -0.000   0.000  -0.000
   49       -0.000  -0.000  -0.000  -0.000
   50       -0.000  -0.000   0.000  -0.000
   51       -0.000  -0.000   0.000  -0.000
   52       -0.000  -0.000   0.000  -0.000
   53       -0.000  -0.000   0.000  -0.000
   54       -0.000  -0.000   0.000  -0.000
   55       -0.000  -0.000  -0.000  -0.000
   56       -0.000  -0.000  -0.000  -0.000
   57       -0.000  -0.000  -0.000  -0.000
   58       -0.000  -0.000   0.000  -0.000
   59       -0.000  -0.000   0.000  -0.000
   60       -0.000  -0.000   0.000  -0.000
   61       -0.000  -0.000   0.000  -0.000
   62       -0.000  -0.000   0.000  -0.000
   63       -0.000  -0.000  -0.000  -0.000
   64       -0.000  -0.000   0.000  -0.000
   65       -0.000  -0.000   0.000  -0.000
   66       -0.000  -0.000   0.000  -0.000
   67       -0.000  -0.000   0.000  -0.000
   68       -0.000  -0.000  -0.000  -0.000
   69       -0.000  -0.000   0.000  -0.000
   70       -0.000  -0.000   0.000  -0.000
   71       -0.000  -0.000   0.000  -0.000
   72       -0.000  -0.000   0.000  -0.000
--------------------------------------------------
tot         -0.000  -0.000   0.000  -0.000
 

 total amount of memory used by VASP MPI-rank0   110524. kBytes
=======================================================================

   base      :      30000. kBytes
   nonl-proj :      16287. kBytes
   fftplans  :       6179. kBytes
   grid      :      15593. kBytes
   one-center:        146. kBytes
   wavefun   :      42319. kBytes
 
  
  
 General timing and accounting informations for this job:
 ========================================================
  
                  Total CPU time used (sec):      192.435
                            User time (sec):      186.548
                          System time (sec):        5.887
                         Elapsed time (sec):      195.107
  
                   Maximum memory used (kb):      316252.
                   Average memory used (kb):          N/A
  
                          Minor page faults:       105082
                          Major page faults:           31
                 Voluntary context switches:         8245
