 running  160 mpi-ranks, with    1 threads/rank, on   10 nodes
 distrk:  each k-point on   80 cores,    2 groups
 distr:  one band on    5 cores,   16 groups
 vasp.6.4.2 20Jul23 (build Oct 12 2023 10:31:02) complex                         
 POSCAR found type information on POSCAR GeSe
 POSCAR found :  2 types and       8 ions
 Reading from existing POTCAR
 scaLAPACK will be used
 Reading from existing POTCAR
 LDA part: xc-table for Pade appr. of Perdew
 POSCAR, INCAR and KPOINTS ok, starting setup
 FFT: planning ... GRIDC
 FFT: planning ... GRID_SOFT
 FFT: planning ... GRID
 WAVECAR not read
 entering main loop
       N       E                     dE             d eps       ncg     rms          rms(c)
DAV:   1     0.163097917503E+03    0.16310E+03   -0.15896E+04  2560   0.104E+03
DAV:   2    -0.225709487876E+02   -0.18567E+03   -0.18015E+03  3664   0.155E+02
DAV:   3    -0.338815834810E+02   -0.11311E+02   -0.11275E+02  3424   0.441E+01
DAV:   4    -0.339695811225E+02   -0.87998E-01   -0.87985E-01  3216   0.439E+00
DAV:   5    -0.339701673780E+02   -0.58626E-03   -0.58625E-03  3472   0.364E-01    0.645E+00
DAV:   6    -0.336378476310E+02    0.33232E+00   -0.65717E-01  3408   0.275E+00    0.408E+00
DAV:   7    -0.336221504332E+02    0.15697E-01   -0.20979E-01  2864   0.166E+00    0.116E+00
DAV:   8    -0.336212820359E+02    0.86840E-03   -0.17979E-02  3344   0.527E-01    0.183E-01
DAV:   9    -0.336217197423E+02   -0.43771E-03   -0.29575E-03  3408   0.240E-01    0.673E-02
DAV:  10    -0.336218269157E+02   -0.10717E-03   -0.22985E-04  3456   0.633E-02    0.247E-02
DAV:  11    -0.336218634947E+02   -0.36579E-04   -0.44725E-05  3072   0.301E-02    0.119E-02
DAV:  12    -0.336218652369E+02   -0.17422E-05   -0.53964E-06  3600   0.104E-02    0.336E-03
DAV:  13    -0.336218656575E+02   -0.42064E-06   -0.11572E-06  2224   0.489E-03
   1 F= -.33621866E+02 E0= -.33621866E+02  d E =-.489917E-07
