 vasp.6.4.2 20Jul23 (build Oct 12 2023 10:31:02) complex                         
 executed on              LinuxNV date 2024.11.01  22:45:15
 running  128 mpi-ranks, with    1 threads/rank, on    2 nodes
 distrk:  each k-point on   64 cores,    2 groups
 distr:  one band on NCORE=   8 cores,    8 groups


--------------------------------------------------------------------------------------------------------


 INCAR:
   ENCUT = 520.000000
   SIGMA = 0.050000
   EDIFF = 1.00e-06
   ALGO = N
   GGA = PE
   PREC = Accurate
   SYSTEM = 01_AOPT
   ICHARG = 0
   ISMEAR = 0
   ISPIN = 2
   ISTART = 1
   ISYM = -1
   KPAR = 2
   LORBIT = 11
   NBANDS = 220
   NELM = 100
   NELMIN = 5
   NPAR = 8
   LASPH = .TRUE.
   LCHARG = .FALSE.
   LWAVE = .FALSE.
   LREAL = .FALSE.

 POTCAR:    PAW_PBE Ge 05Jan2001                  
 POTCAR:    PAW_PBE Se 06Sep2000                  
 -----------------------------------------------------------------------------
|                                                                             |
|           W    W    AA    RRRRR   N    N  II  N    N   GGGG   !!!           |
|           W    W   A  A   R    R  NN   N  II  NN   N  G    G  !!!           |
|           W    W  A    A  R    R  N N  N  II  N N  N  G       !!!           |
|           W WW W  AAAAAA  RRRRR   N  N N  II  N  N N  G  GGG   !            |
|           WW  WW  A    A  R   R   N   NN  II  N   NN  G    G                |
|           W    W  A    A  R    R  N    N  II  N    N   GGGG   !!!           |
|                                                                             |
|     You use a magnetic or noncollinear calculation, but did not specify     |
|     the initial magnetic moment with the MAGMOM tag. Note that a            |
|     default of 1 will be used for all atoms. This ferromagnetic setup       |
|     may break the symmetry of the crystal, in particular it may rule        |
|     out finding an antiferromagnetic solution. Thence, we recommend         |
|     setting the initial magnetic moment manually or verifying carefully     |
|     that this magnetic setup is desired.                                    |
|                                                                             |
 -----------------------------------------------------------------------------

 POTCAR:    PAW_PBE Ge 05Jan2001                  
   VRHFIN =Ge: s2p2                                                                                 
   LEXCH  = PE                                                                                      
   EATOM  =   104.9960 eV,    7.7170 Ry                                                             
                                                                                                    
   TITEL  = PAW_PBE Ge 05Jan2001                                                                    
   LULTRA =        F    use ultrasoft PP ?                                                          
   IUNSCR =        1    unscreen: 0-lin 1-nonlin 2-no                                               
   RPACOR =    2.170    partial core radius                                                         
   POMASS =   72.610; ZVAL   =    4.000    mass and valenz                                          
   RCORE  =    2.300    outmost cutoff radius                                                       
   RWIGS  =    2.300; RWIGS  =    1.217    wigner-seitz radius (au A)                               
   ENMAX  =  173.807; ENMIN  =  130.355 eV                                                          
   ICORE  =        3    local potential                                                             
   LCOR   =        T    correct aug charges                                                         
   LPAW   =        T    paw PP                                                                      
   EAUG   =  385.843                                                                                
   DEXC   =    0.000                                                                                
   RMAX   =    2.342    core radius for proj-oper                                                   
   RAUG   =    1.300    factor for augmentation sphere                                              
   RDEP   =    2.318    radius for radial grids                                                     
   RDEPT  =    2.103    core radius for aug-charge                                                  
                                                                                                    
   Atomic configuration                                                                             
   10 entries                                                                                       
     n  l   j            E        occ.                                                              
     1  0  0.50    -10959.8463   2.0000                                                             
     2  0  0.50     -1371.6056   2.0000                                                             
     2  1  1.50     -1198.4791   6.0000                                                             
     3  0  0.50      -168.4733   2.0000                                                             
     3  1  1.50      -115.6019   6.0000                                                             
     3  2  2.50       -29.3106  10.0000                                                             
     4  0  0.50       -11.7309   2.0000                                                             
     4  1  0.50        -3.8952   2.0000                                                             
     4  2  1.50        -4.0817   0.0000                                                             
     4  3  2.50        -4.0817   0.0000                                                             
   Description                                                                                      
     l       E           TYP  RCUT    TYP  RCUT                                                     
     0    -11.7309493     23  2.300                                                                 
     0     -7.4578696     23  2.300                                                                 
     1     -3.8952261     23  2.300                                                                 
     1      6.1178114     23  2.300                                                                 
     2     -4.0817478     23  2.300                                                                 
     3     -1.3605826      7  2.300                                                                 
  local pseudopotential read in
  partial core-charges read in
  partial kinetic energy density read in
  atomic valenz-charges read in
  non local Contribution for L=            0  read in
    real space projection operators read in
  non local Contribution for L=            0  read in
    real space projection operators read in
  non local Contribution for L=            1  read in
    real space projection operators read in
  non local Contribution for L=            1  read in
    real space projection operators read in
  non local Contribution for L=            2  read in
    real space projection operators read in
    PAW grid and wavefunctions read in
 
   number of l-projection  operators is LMAX  =            5
   number of lm-projection operators is LMMAX =           13
 
 POTCAR:    PAW_PBE Se 06Sep2000                  
   VRHFIN =Se: s2p4                                                                                 
   LEXCH  = PE                                                                                      
   EATOM  =   257.1286 eV,   18.8984 Ry                                                             
                                                                                                    
   TITEL  = PAW_PBE Se 06Sep2000                                                                    
   LULTRA =        F    use ultrasoft PP ?                                                          
   IUNSCR =        1    unscreen: 0-lin 1-nonlin 2-no                                               
   RPACOR =    1.900    partial core radius                                                         
   POMASS =   78.960; ZVAL   =    6.000    mass and valenz                                          
   RCORE  =    2.100    outmost cutoff radius                                                       
   RWIGS  =    2.200; RWIGS  =    1.164    wigner-seitz radius (au A)                               
   ENMAX  =  211.555; ENMIN  =  158.666 eV                                                          
   ICORE  =        3    local potential                                                             
   LCOR   =        T    correct aug charges                                                         
   LPAW   =        T    paw PP                                                                      
   EAUG   =  446.842                                                                                
   DEXC   =    0.000                                                                                
   RMAX   =    2.147    core radius for proj-oper                                                   
   RAUG   =    1.300    factor for augmentation sphere                                              
   RDEP   =    2.177    radius for radial grids                                                     
   RDEPT  =    1.928    core radius for aug-charge                                                  
                                                                                                    
   Atomic configuration                                                                             
   10 entries                                                                                       
     n  l   j            E        occ.                                                              
     1  0  0.50    -12503.4787   2.0000                                                             
     2  0  0.50     -1606.9547   2.0000                                                             
     2  1  1.50     -1413.3140   6.0000                                                             
     3  0  0.50      -213.4885   2.0000                                                             
     3  1  1.50      -152.9538   6.0000                                                             
     3  2  2.50       -53.1221  10.0000                                                             
     4  0  0.50       -17.2865   2.0000                                                             
     4  1  0.50        -6.5110   4.0000                                                             
     4  2  2.50        -6.8029   0.0000                                                             
     4  3  2.50        -6.8029   0.0000                                                             
   Description                                                                                      
     l       E           TYP  RCUT    TYP  RCUT                                                     
     0    -17.2865377     23  2.100                                                                 
     0    -15.3094411     23  2.100                                                                 
     1     -6.5110275     23  2.100                                                                 
     1     -0.0695192     23  2.100                                                                 
     2     -6.8029130     23  2.100                                                                 
     3     -1.3605826      7  2.100                                                                 
  local pseudopotential read in
  partial core-charges read in
  partial kinetic energy density read in
  atomic valenz-charges read in
  non local Contribution for L=            0  read in
    real space projection operators read in
  non local Contribution for L=            0  read in
    real space projection operators read in
  non local Contribution for L=            1  read in
    real space projection operators read in
  non local Contribution for L=            1  read in
    real space projection operators read in
  non local Contribution for L=            2  read in
    real space projection operators read in
    PAW grid and wavefunctions read in
 
   number of l-projection  operators is LMAX  =            5
   number of lm-projection operators is LMMAX =           13
 
 -----------------------------------------------------------------------------
|                                                                             |
|               ----> ADVICE to this user running VASP <----                  |
|                                                                             |
|     You have a (more or less) 'large supercell' and for larger cells it     |
|     might be more efficient to use real-space projection operators.         |
|     Therefore, try LREAL= Auto in the INCAR file.                           |
|     Mind: For very accurate calculation, you might also keep the            |
|     reciprocal projection scheme (i.e. LREAL=.FALSE.).                      |
|                                                                             |
 -----------------------------------------------------------------------------

  PAW_PBE Ge 05Jan2001                  :
 energy of atom  1       EATOM= -104.9960
 kinetic energy error for atom=    0.0002 (will be added to EATOM!!)
  PAW_PBE Se 06Sep2000                  :
 energy of atom  2       EATOM= -257.1286
 kinetic energy error for atom=    0.0007 (will be added to EATOM!!)
 
 
 POSCAR: Ge Se
  positions in cartesian coordinates
  No initial velocities read in
 exchange correlation table for  LEXCH =        8
   RHO(1)=    0.500       N(1)  =     2000
   RHO(2)=  100.500       N(2)  =     4000
 


--------------------------------------------------------------------------------------------------------


 ion  position               nearest neighbor table
   1  0.082  0.014  0.134-  45 2.59  67 2.60  54 2.63
   2  0.248  0.837  0.377-  50 2.60  67 2.62  48 2.84
   3  0.571  0.188  0.358-  68 2.48  44 2.67  56 2.74
   4  0.582  0.511  0.389-  56 2.51  69 2.64  72 2.68
   5  0.578  0.885  0.369-  70 2.59  44 2.60  48 2.78
   6  0.926  0.179  0.367-  55 2.59  45 2.62  46 2.73
   7  0.888  0.536  0.382-  72 2.50  47 2.65  71 2.67
   8  0.908  0.863  0.372-  45 2.56  53 2.61  47 2.83
   9  0.073  0.163  0.642-  51 2.55  57 2.63  37 2.68
  10  0.103  0.496  0.622-  58 2.53  38 2.56  39 2.76
  11  0.066  0.825  0.641-  39 2.54  59 2.61
  12  0.421  0.150  0.629-  60 2.53  40 2.61  41 2.85
  13  0.399  0.490  0.619-  61 2.53  41 2.55  38 2.68
  14  0.442  0.832  0.623-  62 2.54  42 2.58  40 2.69
  15  0.749  0.169  0.607-  37 2.52  63 2.80
  16  0.746  0.488  0.625-  43 2.48  64 2.56
  17  0.253  0.531  0.370-  50 2.48  49 2.63  66 2.67
  18  0.228  0.205  0.366-  54 2.52  46 2.54  49 2.67
  19  0.719  0.812  0.629-  65 2.44  42 2.63  52 2.76
  20  0.889  0.641  0.888-  52 2.69  64 2.71  58 2.83
  21  0.908  0.998  0.854-  59 2.56  37 2.56  65 2.80
  22  0.079  0.382  0.139-  46 2.48  66 2.60  71 2.63
  23  0.078  0.697  0.135-  47 2.55  67 2.61  66 2.80
  24  0.403  0.055  0.129-  68 2.45  48 2.55  54 2.69
  25  0.413  0.363  0.106-  69 2.64  68 2.64  49 2.71
  26  0.763  0.036  0.110-  55 2.61  44 2.64  53 2.80
  27  0.754  0.341  0.126-  56 2.65  55 2.71  71 2.72
  28  0.418  0.679  0.129-  50 2.51  70 2.74  69 2.79
  29  0.241  0.323  0.887-  38 2.54  60 2.59  57 2.77
  30  0.247  0.662  0.877-  39 2.62  61 2.66  62 2.84
  31  0.232  0.972  0.849-  51 2.50  62 2.59  59 2.77
  32  0.560  0.315  0.874-  41 2.61  63 2.65  60 2.82
  33  0.569  0.657  0.870-  42 2.52  64 2.65  61 2.79
  34  0.601  0.013  0.874-  40 2.51  63 2.59  65 2.69
  35  0.925  0.338  0.852-  43 2.48  57 2.63  58 2.63
  36  0.730  0.690  0.140-  72 2.42  70 2.60  53 2.81
  37  0.900  0.036  0.627-  15 2.52  21 2.56   9 2.68
  38  0.241  0.349  0.660-  29 2.54  10 2.56  13 2.68
  39  0.214  0.686  0.645-  11 2.54  30 2.62  10 2.76
  40  0.570  0.004  0.650-  34 2.51  12 2.61  14 2.69
  41  0.540  0.344  0.642-  13 2.55  32 2.61  12 2.85
  42  0.566  0.668  0.642-  33 2.52  14 2.58  19 2.63
  43  0.891  0.353  0.632-  16 2.48  35 2.48
  44  0.720  0.035  0.344-   5 2.60  26 2.64   3 2.67
  45  0.051  0.010  0.366-   8 2.56   1 2.59   6 2.62
  46  0.075  0.339  0.358-  22 2.48  18 2.54   6 2.73
  47  0.042  0.681  0.361-  23 2.55   7 2.65   8 2.83
  48  0.394  0.009  0.353-  24 2.55   5 2.78   2 2.84
  49  0.374  0.361  0.346-  17 2.63  18 2.67  25 2.71
  50  0.383  0.680  0.352-  17 2.48  28 2.51   2 2.60
  51  0.216  0.017  0.629-  31 2.50   9 2.55
  52  0.892  0.675  0.648-  20 2.69  19 2.76
  53  0.887  0.852  0.137-   8 2.61  26 2.80  36 2.81
  54  0.221  0.171  0.142-  18 2.52   1 2.63  24 2.69
  55  0.907  0.187  0.134-   6 2.59  26 2.61  27 2.71
  56  0.709  0.358  0.359-   4 2.51  27 2.65   3 2.74
  57  0.068  0.185  0.879-  35 2.63   9 2.63  29 2.77
  58  0.061  0.499  0.846-  10 2.53  35 2.63  20 2.83
  59  0.048  0.850  0.873-  21 2.56  11 2.61  31 2.77
  60  0.383  0.175  0.852-  12 2.53  29 2.59  32 2.82
  61  0.399  0.515  0.845-  13 2.53  30 2.66  33 2.79
  62  0.389  0.837  0.845-  14 2.54  31 2.59  30 2.84
  63  0.724  0.180  0.858-  34 2.59  32 2.65  15 2.80
  64  0.720  0.508  0.853-  16 2.56  33 2.65  20 2.71
  65  0.739  0.850  0.844-  19 2.44  34 2.69  21 2.80
  66  0.227  0.529  0.130-  22 2.60  17 2.67  23 2.80
  67  0.215  0.855  0.143-   1 2.60  23 2.61   2 2.62
  68  0.540  0.196  0.136-  24 2.45   3 2.48  25 2.64
  69  0.561  0.508  0.152-  25 2.64   4 2.64  28 2.79
  70  0.577  0.831  0.143-   5 2.59  36 2.60  28 2.74
  71  0.904  0.499  0.145-  22 2.63   7 2.67  27 2.72
  72  0.732  0.661  0.356-  36 2.42   7 2.50   4 2.68
 

IMPORTANT INFORMATION: All symmetrisations will be switched off!
NOSYMM: (Re-)initialisation of all symmetry stuff for point group C_1.


----------------------------------------------------------------------------------------

                                     Primitive cell                                     

  volume of cell :    1724.6697

  direct lattice vectors                    reciprocal lattice vectors
    12.471433364  0.000004825 -0.000001589     0.080183245 -0.000000031  0.000000013
     0.000004834 12.494596145  0.000002249    -0.000000031  0.080034600 -0.000000019
    -0.000001815  0.000002564 11.067953535     0.000000012 -0.000000016  0.090350939

  length of vectors
    12.471433364 12.494596145 11.067953535     0.080183245  0.080034600  0.090350939

  position of ions in fractional coordinates (direct lattice)
     0.081606816  0.013864817  0.133881365
     0.247698743  0.836859180  0.376775390
     0.571079783  0.188299235  0.357728843
     0.581791490  0.510662905  0.389286354
     0.578091973  0.885260131  0.368719048
     0.926020460  0.178598392  0.366707138
     0.887804820  0.536407482  0.382344936
     0.907871058  0.863034777  0.371504330
     0.072711591  0.162762123  0.642189750
     0.102694006  0.496307793  0.621979710
     0.065634798  0.825363033  0.640572811
     0.421067187  0.150142416  0.628527238
     0.398961719  0.490101909  0.618893514
     0.442021882  0.832247493  0.623111712
     0.748814494  0.169414836  0.606638168
     0.745653804  0.487919694  0.624794697
     0.252638937  0.531352644  0.369603900
     0.228358511  0.204969721  0.366134291
     0.718696852  0.811637688  0.629135192
     0.888928335  0.641205806  0.887897949
     0.907722059  0.998418342  0.854296663
     0.079075455  0.382228114  0.138705550
     0.078289512  0.697135461  0.135423649
     0.402665016  0.055314349  0.128632530
     0.412867694  0.362999577  0.105701906
     0.762727080  0.036210707  0.109521367
     0.754109638  0.341267304  0.125525025
     0.418024098  0.679353259  0.129186863
     0.240849418  0.323113794  0.887127994
     0.246807134  0.662270296  0.877109832
     0.232366348  0.971931907  0.848789014
     0.560168083  0.314611107  0.874384570
     0.569454602  0.657167738  0.869971541
     0.601104575  0.013215603  0.873631191
     0.925286522  0.338110376  0.852096336
     0.730074533  0.689962814  0.139832532
     0.899799923  0.036393272  0.626721799
     0.241062652  0.348674768  0.659775066
     0.213579006  0.686034102  0.644841879
     0.570081118  0.004187171  0.649839665
     0.540463858  0.344301253  0.641857786
     0.565858737  0.667510648  0.642352018
     0.891235910  0.353017061  0.631715391
     0.720327203  0.035402417  0.343615324
     0.050912768  0.009830756  0.365509083
     0.074770993  0.338757600  0.357626607
     0.042293881  0.680808875  0.361266937
     0.393792635  0.009439493  0.352693481
     0.374333840  0.360504450  0.346253618
     0.383153499  0.680353053  0.352259323
     0.215608590  0.017325965  0.629325030
     0.891797972  0.674618933  0.647876680
     0.886967787  0.851677208  0.137437753
     0.220907576  0.171305600  0.142254512
     0.906822432  0.186604378  0.134242843
     0.709472925  0.358240381  0.358718414
     0.067709376  0.185042370  0.878854737
     0.061366386  0.498702899  0.846203500
     0.048104137  0.850352681  0.873428690
     0.383301059  0.175344861  0.851659443
     0.398534409  0.514843841  0.845316137
     0.389439063  0.836962355  0.844546634
     0.724147776  0.180034140  0.858176835
     0.720131159  0.508441865  0.853384877
     0.739304693  0.850202342  0.843541238
     0.226712925  0.529488026  0.130410526
     0.215199552  0.854627690  0.143473544
     0.539794828  0.195869443  0.136496835
     0.560713351  0.508320207  0.152095397
     0.576650957  0.830956891  0.142717777
     0.903859535  0.498978078  0.145265882
     0.732400092  0.661084798  0.356357329

  ion indices of the primitive-cell ions
   primitive index   ion index
                 1           1
                 2           2
                 3           3
                 4           4
                 5           5
                 6           6
                 7           7
                 8           8
                 9           9
                10          10
                11          11
                12          12
                13          13
                14          14
                15          15
                16          16
                17          17
                18          18
                19          19
                20          20
                21          21
                22          22
                23          23
                24          24
                25          25
                26          26
                27          27
                28          28
                29          29
                30          30
                31          31
                32          32
                33          33
                34          34
                35          35
                36          36
                37          37
                38          38
                39          39
                40          40
                41          41
                42          42
                43          43
                44          44
                45          45
                46          46
                47          47
                48          48
                49          49
                50          50
                51          51
                52          52
                53          53
                54          54
                55          55
                56          56
                57          57
                58          58
                59          59
                60          60
                61          61
                62          62
                63          63
                64          64
                65          65
                66          66
                67          67
                68          68
                69          69
                70          70
                71          71
                72          72

----------------------------------------------------------------------------------------

 
 
 KPOINTS: KPOINTS created by Atomic Simulation Env

Automatic generation of k-mesh.
 Grid dimensions read from file:
 generate k-points for:    2    2    2

 Generating k-lattice:

  Cartesian coordinates                     Fractional coordinates (reciprocal lattice)
     0.040091623 -0.000000016  0.000000007     0.500000000 -0.000000000  0.000000000
    -0.000000015  0.040017300 -0.000000009     0.000000000  0.500000000  0.000000000
     0.000000006 -0.000000008  0.045175470    -0.000000000  0.000000000  0.500000000

  Length of vectors
     0.040091623  0.040017300  0.045175470

  Shift w.r.t. Gamma in fractional coordinates (k-lattice)
     0.000000000  0.000000000  0.000000000

 
 Subroutine IBZKPT returns following result:
 ===========================================
 
 Found      8 irreducible k-points:
 
 Following reciprocal coordinates:
            Coordinates               Weight
  0.000000  0.000000  0.000000      1.000000
  0.500000  0.000000  0.000000      1.000000
  0.000000  0.500000  0.000000      1.000000
  0.500000  0.500000  0.000000      1.000000
  0.000000  0.000000  0.500000      1.000000
  0.500000  0.000000  0.500000      1.000000
  0.000000  0.500000  0.500000      1.000000
  0.500000  0.500000  0.500000      1.000000
 
 Following cartesian coordinates:
            Coordinates               Weight
  0.000000  0.000000  0.000000      1.000000
  0.040092 -0.000000  0.000000      1.000000
 -0.000000  0.040017 -0.000000      1.000000
  0.040092  0.040017 -0.000000      1.000000
  0.000000 -0.000000  0.045175      1.000000
  0.040092 -0.000000  0.045175      1.000000
 -0.000000  0.040017  0.045175      1.000000
  0.040092  0.040017  0.045175      1.000000
 
 -----------------------------------------------------------------------------
|                                                                             |
|           W    W    AA    RRRRR   N    N  II  N    N   GGGG   !!!           |
|           W    W   A  A   R    R  NN   N  II  NN   N  G    G  !!!           |
|           W    W  A    A  R    R  N N  N  II  N N  N  G       !!!           |
|           W WW W  AAAAAA  RRRRR   N  N N  II  N  N N  G  GGG   !            |
|           WW  WW  A    A  R   R   N   NN  II  N   NN  G    G                |
|           W    W  A    A  R    R  N    N  II  N    N   GGGG   !!!           |
|                                                                             |
|     The number of bands has been changed from the values supplied in        |
|     the INCAR file. This is a result of running the parallel version.       |
|     The orbitals not found in the WAVECAR file will be initialized with     |
|     random numbers, which is usually adequate. For correlated               |
|     calculations, however, you should redo the groundstate calculation.     |
|     I found NBANDS = 220. Now, NBANDS = 224.                                |
|                                                                             |
 -----------------------------------------------------------------------------



--------------------------------------------------------------------------------------------------------




 Dimension of arrays:
   k-points           NKPTS =      8   k-points in BZ     NKDIM =      8   number of bands    NBANDS=    224
   number of dos      NEDOS =    301   number of ions     NIONS =     72
   non local maximal  LDIM  =      5   non local SUM 2l+1 LMDIM =     13
   total plane-waves  NPLWV = 774144
   max r-space proj   IRMAX =      1   max aug-charges    IRDMAX=  24593
   dimension x,y,z NGX =    96 NGY =   96 NGZ =   84
   dimension x,y,z NGXF=   192 NGYF=  192 NGZF=  168
   support grid    NGXF=   192 NGYF=  192 NGZF=  168
   ions per type =              36  36
   NGX,Y,Z   is equivalent  to a cutoff of  12.80, 12.77, 12.62 a.u.
   NGXF,Y,Z  is equivalent  to a cutoff of  25.59, 25.55, 25.23 a.u.

 SYSTEM =  01_AOPT                                 
 POSCAR =  Ge Se                                   

 Startparameter for this run:
   NWRITE =      2    write-flag & timer
   PREC   = accura    normal or accurate (medium, high low for compatibility)
   ISTART =      0    job   : 0-new  1-cont  2-samecut
   ICHARG =      2    charge: 1-file 2-atom 10-const
   ISPIN  =      2    spin polarized calculation?
   LNONCOLLINEAR =      F non collinear calculations
   LSORBIT =      F    spin-orbit coupling
   INIWAV =      1    electr: 0-lowe 1-rand  2-diag
   LASPH  =      T    aspherical Exc in radial PAW
 Electronic Relaxation 1
   ENCUT  =  520.0 eV  38.22 Ry    6.18 a.u.  23.19 23.23 20.58*2*pi/ulx,y,z
   ENINI  =  520.0     initial cutoff
   ENAUG  =  446.8 eV  augmentation charge cutoff
   NELM   =    100;   NELMIN=  5; NELMDL=  0     # of ELM steps 
   EDIFF  = 0.1E-05   stopping-criterion for ELM
   LREAL  =      F    real-space projection
   NLSPLINE    = F    spline interpolate recip. space projectors
   LCOMPAT=      F    compatible to vasp.4.4
   GGA_COMPAT  = T    GGA compatible to vasp.4.4-vasp.4.6
   LMAXPAW     = -100 max onsite density
   LMAXMIX     =    2 max onsite mixed and CHGCAR
   VOSKOWN=      0    Vosko Wilk Nusair interpolation
   ROPT   =    0.00000   0.00000
 Ionic relaxation
   EDIFFG = 0.1E-04   stopping-criterion for IOM
   NSW    =      0    number of steps for IOM
   NBLOCK =      1;   KBLOCK =      1    inner block; outer block 
   IBRION =     -1    ionic relax: 0-MD 1-quasi-New 2-CG
   NFREE  =      0    steps in history (QN), initial steepest desc. (CG)
   ISIF   =      2    stress and relaxation
   IWAVPR =     10    prediction:  0-non 1-charg 2-wave 3-comb
   ISYM   =     -1    0-nonsym 1-usesym 2-fastsym
   LCORR  =      T    Harris-Foulkes like correction to forces

   POTIM  = 0.5000    time-step for ionic-motion
   TEIN   =    0.0    initial temperature
   TEBEG  =    0.0;   TEEND  =   0.0 temperature during run
   SMASS  =  -3.00    Nose mass-parameter (am)
   estimated Nose-frequenzy (Omega)   =  0.10E-29 period in steps = 0.13E+47 mass=  -0.355E-26a.u.
   SCALEE = 1.0000    scale energy and forces
   NPACO  =    256;   APACO  = 10.0  distance and # of slots for P.C.
   PSTRESS=    0.0 pullay stress

  Mass of Ions in am
   POMASS =  72.61 78.96
  Ionic Valenz
   ZVAL   =   4.00  6.00
  Atomic Wigner-Seitz radii
   RWIGS  =  -1.00 -1.00
  virtual crystal weights 
   VCA    =   1.00  1.00
   NELECT =     360.0000    total number of electrons
   NUPDOWN=      -1.0000    fix difference up-down

 DOS related values:
   EMIN   =  10.00;   EMAX   =-10.00  energy-range for DOS
   EFERMI =   0.00;   METHOD = LEGACY      
   ISMEAR =     0;   SIGMA  =   0.05  broadening in eV -4-tet -1-fermi 0-gaus

 Electronic relaxation 2 (details)
   IALGO  =     38    algorithm
   LDIAG  =      T    sub-space diagonalisation (order eigenvalues)
   LSUBROT=      F    optimize rotation matrix (better conditioning)
   TURBO    =      0    0=normal 1=particle mesh
   IRESTART =      0    0=no restart 2=restart with 2 vectors
   NREBOOT  =      0    no. of reboots
   NMIN     =      0    reboot dimension
   EREF     =   0.00    reference energy to select bands
   IMIX   =      4    mixing-type and parameters
     AMIX     =   0.40;   BMIX     =  1.00
     AMIX_MAG =   1.60;   BMIX_MAG =  1.00
     AMIN     =   0.10
     WC   =   100.;   INIMIX=   1;  MIXPRE=   1;  MAXMIX= -45

 Intra band minimization:
   WEIMIN = 0.0000     energy-eigenvalue tresh-hold
   EBREAK =  0.11E-08  absolut break condition
   DEPER  =   0.30     relativ break condition  

   TIME   =   0.40     timestep for ELM

  volume/ion in A,a.u.               =      23.95       161.65
  Fermi-wavevector in a.u.,A,eV,Ry     =   0.971122  1.835154 12.831348  0.943077
  Thomas-Fermi vector in A             =   2.101313
 
 Write flags
   LWAVE        =      F    write WAVECAR
   LDOWNSAMPLE  =      F    k-point downsampling of WAVECAR
   LCHARG       =      F    write CHGCAR
   LVTOT        =      F    write LOCPOT, total local potential
   LVHAR        =      F    write LOCPOT, Hartree potential only
   LELF         =      F    write electronic localiz. function (ELF)
   LORBIT       =     11    0 simple, 1 ext, 2 COOP (PROOUT), +10 PAW based schemes


 Dipole corrections
   LMONO  =      F    monopole corrections only (constant potential shift)
   LDIPOL =      F    correct potential (dipole corrections)
   IDIPOL =      0    1-x, 2-y, 3-z, 4-all directions 
   EPSILON=  1.0000000 bulk dielectric constant

 Exchange correlation treatment:
   GGA     =    PE    GGA type
   LEXCH   =     8    internal setting for exchange type
   LIBXC   =     F    Libxc                    
   VOSKOWN =     0    Vosko Wilk Nusair interpolation
   LHFCALC =     F    Hartree Fock is set to
   LHFONE  =     F    Hartree Fock one center treatment
   AEXX    =    0.0000 exact exchange contribution

 Linear response parameters
   LEPSILON=     F    determine dielectric tensor
   LRPA    =     F    only Hartree local field effects (RPA)
   LNABLA  =     F    use nabla operator in PAW spheres
   LVEL    =     F    velocity operator in full k-point grid
   CSHIFT  =0.1000    complex shift for real part using Kramers Kronig
   OMEGAMAX=  -1.0    maximum frequency
   DEG_THRESHOLD= 0.2000000E-02 threshold for treating states as degnerate
   RTIME   =   -0.100 relaxation time in fs
  (WPLASMAI=    0.000 imaginary part of plasma frequency in eV, 0.658/RTIME)
   DFIELD  = 0.0000000 0.0000000 0.0000000 field for delta impulse in time
 
  Optional k-point grid parameters
   LKPOINTS_OPT  =     F    use optional k-point grid
   KPOINTS_OPT_MODE=     1    mode for optional k-point grid
 
 Orbital magnetization related:
   ORBITALMAG=     F  switch on orbital magnetization
   LCHIMAG   =     F  perturbation theory with respect to B field
   DQ        =  0.001000  dq finite difference perturbation B field
   LLRAUG    =     F  two centre corrections for induced B field
   LBONE     =     F  B-component reconstruction in AE one-centre
   LVGVCALC  =     T  calculate vGv susceptibility
   LVGVAPPL  =     F  apply vGv susceptibility instead of pGv for G=0

 Random number generation:
   RANDOM_GENERATOR = DEFAULT
   PCG_SEED         = not used


--------------------------------------------------------------------------------------------------------


 Static calculation
 charge density and potential will be updated during run
 spin polarized calculation
 Variant of blocked Davidson
 Davidson routine will perform the subspace rotation
 perform sub-space diagonalisation
    after iterative eigenvector-optimisation
 modified Broyden-mixing scheme, WC =      100.0
 initial mixing is a Kerker type mixing with AMIX =  0.4000 and BMIX =      1.0000
 Hartree-type preconditioning will be used
 using additional bands            44
 reciprocal scheme for non local part
 use partial core corrections
 calculate Harris-corrections to forces 
   (improved forces if not selfconsistent)
 use gradient corrections 
 use of overlap-Matrix (Vanderbilt PP)
 Gauss-broadening in eV      SIGMA  =   0.05


--------------------------------------------------------------------------------------------------------


  energy-cutoff  :      520.00
  volume of cell :     1724.67
      direct lattice vectors                 reciprocal lattice vectors
    12.471433364  0.000004825 -0.000001589     0.080183245 -0.000000031  0.000000013
     0.000004834 12.494596145  0.000002249    -0.000000031  0.080034600 -0.000000019
    -0.000001815  0.000002564 11.067953535     0.000000012 -0.000000016  0.090350939

  length of vectors
    12.471433364 12.494596145 11.067953535     0.080183245  0.080034600  0.090350939


 
 k-points in units of 2pi/SCALE and weight: KPOINTS created by Atomic Simulation Env
   0.00000000  0.00000000  0.00000000       0.125
   0.04009162 -0.00000002  0.00000001       0.125
  -0.00000002  0.04001730 -0.00000001       0.125
   0.04009161  0.04001728 -0.00000000       0.125
   0.00000001 -0.00000001  0.04517547       0.125
   0.04009163 -0.00000002  0.04517548       0.125
  -0.00000001  0.04001729  0.04517546       0.125
   0.04009161  0.04001728  0.04517547       0.125
 
 k-points in reciprocal lattice and weights: KPOINTS created by Atomic Simulation Env
   0.00000000  0.00000000  0.00000000       0.125
   0.50000000  0.00000000  0.00000000       0.125
   0.00000000  0.50000000  0.00000000       0.125
   0.50000000  0.50000000  0.00000000       0.125
   0.00000000  0.00000000  0.50000000       0.125
   0.50000000  0.00000000  0.50000000       0.125
   0.00000000  0.50000000  0.50000000       0.125
   0.50000000  0.50000000  0.50000000       0.125
 
 position of ions in fractional coordinates (direct lattice) 
   0.08160682  0.01386482  0.13388136
   0.24769874  0.83685918  0.37677539
   0.57107978  0.18829923  0.35772884
   0.58179149  0.51066290  0.38928635
   0.57809197  0.88526013  0.36871905
   0.92602046  0.17859839  0.36670714
   0.88780482  0.53640748  0.38234494
   0.90787106  0.86303478  0.37150433
   0.07271159  0.16276212  0.64218975
   0.10269401  0.49630779  0.62197971
   0.06563480  0.82536303  0.64057281
   0.42106719  0.15014242  0.62852724
   0.39896172  0.49010191  0.61889351
   0.44202188  0.83224749  0.62311171
   0.74881449  0.16941484  0.60663817
   0.74565380  0.48791969  0.62479470
   0.25263894  0.53135264  0.36960390
   0.22835851  0.20496972  0.36613429
   0.71869685  0.81163769  0.62913519
   0.88892833  0.64120581  0.88789795
   0.90772206  0.99841834  0.85429666
   0.07907545  0.38222811  0.13870555
   0.07828951  0.69713546  0.13542365
   0.40266502  0.05531435  0.12863253
   0.41286769  0.36299958  0.10570191
   0.76272708  0.03621071  0.10952137
   0.75410964  0.34126730  0.12552502
   0.41802410  0.67935326  0.12918686
   0.24084942  0.32311379  0.88712799
   0.24680713  0.66227030  0.87710983
   0.23236635  0.97193191  0.84878901
   0.56016808  0.31461111  0.87438457
   0.56945460  0.65716774  0.86997154
   0.60110458  0.01321560  0.87363119
   0.92528652  0.33811038  0.85209634
   0.73007453  0.68996281  0.13983253
   0.89979992  0.03639327  0.62672180
   0.24106265  0.34867477  0.65977507
   0.21357901  0.68603410  0.64484188
   0.57008112  0.00418717  0.64983967
   0.54046386  0.34430125  0.64185779
   0.56585874  0.66751065  0.64235202
   0.89123591  0.35301706  0.63171539
   0.72032720  0.03540242  0.34361532
   0.05091277  0.00983076  0.36550908
   0.07477099  0.33875760  0.35762661
   0.04229388  0.68080888  0.36126694
   0.39379264  0.00943949  0.35269348
   0.37433384  0.36050445  0.34625362
   0.38315350  0.68035305  0.35225932
   0.21560859  0.01732597  0.62932503
   0.89179797  0.67461893  0.64787668
   0.88696779  0.85167721  0.13743775
   0.22090758  0.17130560  0.14225451
   0.90682243  0.18660438  0.13424284
   0.70947292  0.35824038  0.35871841
   0.06770938  0.18504237  0.87885474
   0.06136639  0.49870290  0.84620350
   0.04810414  0.85035268  0.87342869
   0.38330106  0.17534486  0.85165944
   0.39853441  0.51484384  0.84531614
   0.38943906  0.83696236  0.84454663
   0.72414778  0.18003414  0.85817683
   0.72013116  0.50844186  0.85338488
   0.73930469  0.85020234  0.84354124
   0.22671293  0.52948803  0.13041053
   0.21519955  0.85462769  0.14347354
   0.53979483  0.19586944  0.13649684
   0.56071335  0.50832021  0.15209540
   0.57665096  0.83095689  0.14271778
   0.90385953  0.49897808  0.14526588
   0.73240009  0.66108480  0.35635733
 
 position of ions in cartesian coordinates  (Angst):
   1.01775379  0.17323603  1.48179263
   3.08916173 10.45621964  4.17013400
   7.12218372  2.35272657  3.95932573
   7.25577556  6.38053057  4.30860351
   7.20963912 11.06097155  4.08096637
  11.54880266  2.23152019  4.05869649
  11.07220055  6.70220013  4.23177578
  11.32245690 10.78327634  4.11179316
   0.90681739  2.03364899  7.10772657
   1.28074272  6.20116752  6.88404348
   0.81856284 10.31257974  7.08983186
   5.25131095  1.87597249  6.95650993
   4.97562574  6.12362894  6.84988512
   5.51264934 10.39860005  6.89657264
   9.33878978  2.11677513  6.71424225
   9.29937296  6.09636472  6.91519858
   3.15077157  6.63903886  4.09075959
   2.84795828  2.56101593  4.05235742
   8.96318267 10.14109020  6.96323976
  11.08621198  8.01161416  9.82721327
  11.32059845 12.47484054  9.45531657
   0.98618586  4.77578666  1.53518732
   0.97638556  8.71042676  1.49886410
   5.02180995  0.69113272  1.42369835
   5.14905350  4.53553538  1.16990395
   9.51229993  0.45244213  1.21217627
   9.40482952  4.26400111  1.38930471
   5.21336273  8.48824696  1.42983506
   3.00373742  4.03717980  9.81869177
   3.07804034  8.27480332  9.70781196
   2.89794458 12.14389995  9.39435918
   6.98609885  3.93094367  9.67764761
   7.10191672  8.21105046  9.62880516
   7.49663414  0.16512876  9.66930850
  11.53964929  4.22455925  9.43096194
   9.10507897  8.62081059  1.54766036
  11.22179382  0.45472518  6.93652640
   3.00639729  4.35655327  7.30236018
   2.66363849  8.57172173  7.13708116
   7.10972751  0.05232143  7.19239432
   6.74035949  4.30190936  7.10405207
   7.05707159  8.34028034  7.10952289
  11.11498983  4.41081153  6.99179597
   8.98351226  0.44234326  3.80311737
   0.63495458  0.12283251  4.04543749
   0.93250244  4.23264069  3.95819531
   0.52746795  8.50643308  3.99848714
   4.91115801  0.11794546  3.90359446
   4.66848065  4.50436021  3.83231917
   4.77847598  8.50073938  3.89879074
   2.68894711  0.21648359  6.96533988
  11.12200106  8.42909708  7.17066909
  11.06176352 10.64136739  1.52115517
   2.75503468  2.14039572  1.57446636
  11.30937620  2.33155106  1.48579253
   8.84814539  4.47607322  3.97027842
   0.84443227  2.31203227  9.72712370
   0.76532767  6.23109378  9.36574204
   0.59993006 10.62481580  9.66706999
   4.78031292  2.19086726  9.42612692
   4.97029628  6.43276996  9.35592025
   4.85686583 10.45751066  9.34740417
   9.03116005  2.24945956  9.49826059
   8.98106867  6.35278143  9.44522417
   9.22019179 10.62294064  9.33627596
   2.82743747  6.61574048  1.44337847
   2.68385074 10.67822924  1.58796009
   6.73201592  2.44731254  1.51074021
   6.99290138  6.35125880  1.68338504
   7.19166775 10.38247391  1.57959468
  11.27242610  6.23453430  1.60779572
   9.13408149  8.25999202  3.94414669
 


--------------------------------------------------------------------------------------------------------


 k-point   1 :   0.0000 0.0000 0.0000  plane waves:   46377
 k-point   2 :   0.5000 0.0000 0.0000  plane waves:   46458
 k-point   3 :   0.0000 0.5000 0.0000  plane waves:   46462
 k-point   4 :   0.5000 0.5000 0.0000  plane waves:   46536
 k-point   5 :   0.0000 0.0000 0.5000  plane waves:   46490
 k-point   6 :   0.5000 0.0000 0.5000  plane waves:   46416
 k-point   7 :   0.0000 0.5000 0.5000  plane waves:   46424
 k-point   8 :   0.5000 0.5000 0.5000  plane waves:   46440

 maximum and minimum number of plane-waves per node :      5874     5740

 maximum number of plane-waves:     46536
 maximum index in each direction: 
   IXMAX=   23   IYMAX=   23   IZMAX=   20
   IXMIN=  -23   IYMIN=  -23   IZMIN=  -21


 parallel 3D FFT for wavefunctions:
    minimum data exchange during FFTs selected (reduces bandwidth)
 parallel 3D FFT for charge:
    minimum data exchange during FFTs selected (reduces bandwidth)


 total amount of memory used by VASP MPI-rank0   110764. kBytes
=======================================================================

   base      :      30000. kBytes
   nonl-proj :      16355. kBytes
   fftplans  :       6179. kBytes
   grid      :      15593. kBytes
   one-center:        146. kBytes
   wavefun   :      42491. kBytes
 
     INWAV:  cpu time      0.0000: real time      0.0001
 Broyden mixing: mesh for mixing (old mesh)
   NGX = 47   NGY = 47   NGZ = 41
  (NGX  =192   NGY  =192   NGZ  =168)
  gives a total of  90569 points

 initial charge density was supplied:
 charge density of overlapping atoms calculated
 number of electron     360.0000000 magnetization      72.0000000
 keeping initial charge density in first step


--------------------------------------------------------------------------------------------------------


 Maximum index for augmentation-charges           682 (set IRDMAX)


--------------------------------------------------------------------------------------------------------


 First call to EWALD:  gamma=   0.148
 Maximum number of real-space cells 3x 3x 3
 Maximum number of reciprocal cells 3x 3x 3

    FEWALD:  cpu time      0.0033: real time      0.0033


--------------------------------------- Ionic step        1  -------------------------------------------




--------------------------------------- Iteration      1(   1)  ---------------------------------------


    POTLOK:  cpu time      0.1403: real time      0.1411
    SETDIJ:  cpu time      0.5953: real time      0.5968
     EDDAV:  cpu time      8.6230: real time      8.6679
       DOS:  cpu time      0.0016: real time      0.0016
    --------------------------------------------
      LOOP:  cpu time      9.3602: real time      9.4074

 eigenvalue-minimisations  :  7168
 total energy-change (2. order) : 0.1813746E+04  (-0.1418065E+05)
 number of electron     360.0000000 magnetization      72.0000000
 augmentation part      360.0000000 magnetization      72.0000000

 Free energy of the ion-electron system (eV)
  ---------------------------------------------------
  alpha Z        PSCENC =       795.80462271
  Ewald energy   TEWEN  =    -12846.24214566
  -Hartree energ DENC   =     -1123.53642488
  -exchange      EXHF   =         0.00000000
  -V(xc)+E(xc)   XCENC  =      -293.86691155
  PAW double counting   =     10738.42099860    -9719.93139476
  entropy T*S    EENTRO =        -0.01994212
  eigenvalues    EBANDS =      1226.66522320
  atomic energy  EATOM  =     13036.45147835
  Solvation  Ediel_sol  =         0.00000000
  ---------------------------------------------------
  free energy    TOTEN  =      1813.74550390 eV

  energy without entropy =     1813.76544602  energy(sigma->0) =     1813.75547496


--------------------------------------------------------------------------------------------------------




--------------------------------------- Iteration      1(   2)  ---------------------------------------


     EDDAV:  cpu time      9.7339: real time      9.7916
       DOS:  cpu time      0.0014: real time      0.0014
    --------------------------------------------
      LOOP:  cpu time      9.7353: real time      9.7930

 eigenvalue-minimisations  :  8440
 total energy-change (2. order) :-0.1877370E+04  (-0.1802612E+04)
 number of electron     360.0000000 magnetization      72.0000000
 augmentation part      360.0000000 magnetization      72.0000000

 Free energy of the ion-electron system (eV)
  ---------------------------------------------------
  alpha Z        PSCENC =       795.80462271
  Ewald energy   TEWEN  =    -12846.24214566
  -Hartree energ DENC   =     -1123.53642488
  -exchange      EXHF   =         0.00000000
  -V(xc)+E(xc)   XCENC  =      -293.86691155
  PAW double counting   =     10738.42099860    -9719.93139476
  entropy T*S    EENTRO =        -0.01320730
  eigenvalues    EBANDS =      -650.71179028
  atomic energy  EATOM  =     13036.45147835
  Solvation  Ediel_sol  =         0.00000000
  ---------------------------------------------------
  free energy    TOTEN  =       -63.62477476 eV

  energy without entropy =      -63.61156746  energy(sigma->0) =      -63.61817111


--------------------------------------------------------------------------------------------------------




--------------------------------------- Iteration      1(   3)  ---------------------------------------


     EDDAV:  cpu time      9.8400: real time      9.8898
       DOS:  cpu time      0.0012: real time      0.0012
    --------------------------------------------
      LOOP:  cpu time      9.8413: real time      9.8911

 eigenvalue-minimisations  :  8584
 total energy-change (2. order) :-0.2179849E+03  (-0.2118359E+03)
 number of electron     360.0000000 magnetization      72.0000000
 augmentation part      360.0000000 magnetization      72.0000000

 Free energy of the ion-electron system (eV)
  ---------------------------------------------------
  alpha Z        PSCENC =       795.80462271
  Ewald energy   TEWEN  =    -12846.24214566
  -Hartree energ DENC   =     -1123.53642488
  -exchange      EXHF   =         0.00000000
  -V(xc)+E(xc)   XCENC  =      -293.86691155
  PAW double counting   =     10738.42099860    -9719.93139476
  entropy T*S    EENTRO =        -0.00005550
  eigenvalues    EBANDS =      -868.70985247
  atomic energy  EATOM  =     13036.45147835
  Solvation  Ediel_sol  =         0.00000000
  ---------------------------------------------------
  free energy    TOTEN  =      -281.60968515 eV

  energy without entropy =     -281.60962965  energy(sigma->0) =     -281.60965740


--------------------------------------------------------------------------------------------------------




--------------------------------------- Iteration      1(   4)  ---------------------------------------


     EDDAV:  cpu time     10.0544: real time     10.1211
       DOS:  cpu time      0.0010: real time      0.0010
    --------------------------------------------
      LOOP:  cpu time     10.0555: real time     10.1221

 eigenvalue-minimisations  :  8784
 total energy-change (2. order) :-0.8014367E+01  (-0.7922285E+01)
 number of electron     360.0000000 magnetization      72.0000000
 augmentation part      360.0000000 magnetization      72.0000000

 Free energy of the ion-electron system (eV)
  ---------------------------------------------------
  alpha Z        PSCENC =       795.80462271
  Ewald energy   TEWEN  =    -12846.24214566
  -Hartree energ DENC   =     -1123.53642488
  -exchange      EXHF   =         0.00000000
  -V(xc)+E(xc)   XCENC  =      -293.86691155
  PAW double counting   =     10738.42099860    -9719.93139476
  entropy T*S    EENTRO =        -0.00000547
  eigenvalues    EBANDS =      -876.72426947
  atomic energy  EATOM  =     13036.45147835
  Solvation  Ediel_sol  =         0.00000000
  ---------------------------------------------------
  free energy    TOTEN  =      -289.62405212 eV

  energy without entropy =     -289.62404665  energy(sigma->0) =     -289.62404938


--------------------------------------------------------------------------------------------------------




--------------------------------------- Iteration      1(   5)  ---------------------------------------


     EDDAV:  cpu time     10.2317: real time     10.2852
       DOS:  cpu time      0.0011: real time      0.0011
    CHARGE:  cpu time      0.4254: real time      0.4269
    MIXING:  cpu time      0.0079: real time      0.0080
    --------------------------------------------
      LOOP:  cpu time     10.6662: real time     10.7212

 eigenvalue-minimisations  :  9056
 total energy-change (2. order) :-0.2899526E+00  (-0.2891642E+00)
 number of electron     359.9999989 magnetization      48.7481332
 augmentation part      -66.8056995 magnetization      48.9610771

 Broyden mixing:
  rms(total) = 0.29166E+01    rms(broyden)= 0.29166E+01
  rms(prec ) = 0.30743E+01
  weight for this iteration     100.00

 Free energy of the ion-electron system (eV)
  ---------------------------------------------------
  alpha Z        PSCENC =       795.80462271
  Ewald energy   TEWEN  =    -12846.24214566
  -Hartree energ DENC   =     -1123.53642488
  -exchange      EXHF   =         0.00000000
  -V(xc)+E(xc)   XCENC  =      -293.86691155
  PAW double counting   =     10738.42099860    -9719.93139476
  entropy T*S    EENTRO =        -0.00000679
  eigenvalues    EBANDS =      -877.01422072
  atomic energy  EATOM  =     13036.45147835
  Solvation  Ediel_sol  =         0.00000000
  ---------------------------------------------------
  free energy    TOTEN  =      -289.91400469 eV

  energy without entropy =     -289.91399790  energy(sigma->0) =     -289.91400129


--------------------------------------------------------------------------------------------------------




--------------------------------------- Iteration      1(   6)  ---------------------------------------


    POTLOK:  cpu time      0.1359: real time      0.1370
    SETDIJ:  cpu time      0.6047: real time      0.6066
     EDDAV:  cpu time      9.2802: real time      9.3270
       DOS:  cpu time      0.0011: real time      0.0011
    CHARGE:  cpu time      0.4224: real time      0.4243
    MIXING:  cpu time      0.0073: real time      0.0074
    --------------------------------------------
      LOOP:  cpu time     10.4516: real time     10.5035

 eigenvalue-minimisations  :  7912
 total energy-change (2. order) : 0.5704599E+00  (-0.2671168E+01)
 number of electron     359.9999989 magnetization      27.8480052
 augmentation part      -66.2002349 magnetization      29.0334083

 Broyden mixing:
  rms(total) = 0.17265E+01    rms(broyden)= 0.17265E+01
  rms(prec ) = 0.17638E+01
  weight for this iteration     100.00

 eigenvalues of (default mixing * dielectric matrix)
  average eigenvalue GAMMA=   1.0088
  1.0088

 Free energy of the ion-electron system (eV)
  ---------------------------------------------------
  alpha Z        PSCENC =       795.80462271
  Ewald energy   TEWEN  =    -12846.24214566
  -Hartree energ DENC   =     -1176.77573284
  -exchange      EXHF   =         0.00000000
  -V(xc)+E(xc)   XCENC  =      -287.33582713
  PAW double counting   =     13021.18501933   -12006.20977289
  entropy T*S    EENTRO =        -0.00000396
  eigenvalues    EBANDS =      -826.22118273
  atomic energy  EATOM  =     13036.45147835
  Solvation  Ediel_sol  =         0.00000000
  ---------------------------------------------------
  free energy    TOTEN  =      -289.34354481 eV

  energy without entropy =     -289.34354085  energy(sigma->0) =     -289.34354283


--------------------------------------------------------------------------------------------------------




--------------------------------------- Iteration      1(   7)  ---------------------------------------


    POTLOK:  cpu time      0.1312: real time      0.1318
    SETDIJ:  cpu time      0.6053: real time      0.6070
     EDDAV:  cpu time      9.4247: real time      9.4751
       DOS:  cpu time      0.0009: real time      0.0009
    CHARGE:  cpu time      0.4219: real time      0.4234
    MIXING:  cpu time      0.0080: real time      0.0080
    --------------------------------------------
      LOOP:  cpu time     10.5920: real time     10.6462

 eigenvalue-minimisations  :  8040
 total energy-change (2. order) :-0.7529871E+01  (-0.8772987E+00)
 number of electron     359.9999989 magnetization       9.1682413
 augmentation part      -66.1806101 magnetization       9.8396883

 Broyden mixing:
  rms(total) = 0.90863E+00    rms(broyden)= 0.90863E+00
  rms(prec ) = 0.92506E+00
  weight for this iteration     100.00

 eigenvalues of (default mixing * dielectric matrix)
  average eigenvalue GAMMA=   1.4560
  0.8639  2.0480

 Free energy of the ion-electron system (eV)
  ---------------------------------------------------
  alpha Z        PSCENC =       795.80462271
  Ewald energy   TEWEN  =    -12846.24214566
  -Hartree energ DENC   =     -1193.72117912
  -exchange      EXHF   =         0.00000000
  -V(xc)+E(xc)   XCENC  =      -290.23878039
  PAW double counting   =     15113.20019851   -14099.85108625
  entropy T*S    EENTRO =        -0.00000000
  eigenvalues    EBANDS =      -812.27652444
  atomic energy  EATOM  =     13036.45147835
  Solvation  Ediel_sol  =         0.00000000
  ---------------------------------------------------
  free energy    TOTEN  =      -296.87341629 eV

  energy without entropy =     -296.87341629  energy(sigma->0) =     -296.87341629


--------------------------------------------------------------------------------------------------------




--------------------------------------- Iteration      1(   8)  ---------------------------------------


    POTLOK:  cpu time      0.1310: real time      0.1316
    SETDIJ:  cpu time      0.6050: real time      0.6069
     EDDAV:  cpu time      9.4945: real time      9.5403
       DOS:  cpu time      0.0008: real time      0.0008
    CHARGE:  cpu time      0.4272: real time      0.4287
    MIXING:  cpu time      0.0074: real time      0.0074
    --------------------------------------------
      LOOP:  cpu time     10.6658: real time     10.7157

 eigenvalue-minimisations  :  8144
 total energy-change (2. order) :-0.3204042E+01  (-0.1753965E+00)
 number of electron     359.9999989 magnetization       4.3207368
 augmentation part      -66.1946994 magnetization       4.6245813

 Broyden mixing:
  rms(total) = 0.32846E+00    rms(broyden)= 0.32846E+00
  rms(prec ) = 0.33379E+00
  weight for this iteration     100.00

 eigenvalues of (default mixing * dielectric matrix)
  average eigenvalue GAMMA=   1.3599
  2.4989  0.9253  0.6554

 Free energy of the ion-electron system (eV)
  ---------------------------------------------------
  alpha Z        PSCENC =       795.80462271
  Ewald energy   TEWEN  =    -12846.24214566
  -Hartree energ DENC   =     -1197.93627398
  -exchange      EXHF   =         0.00000000
  -V(xc)+E(xc)   XCENC  =      -289.96711760
  PAW double counting   =     16884.80100114   -15872.37714003
  entropy T*S    EENTRO =        -0.00000000
  eigenvalues    EBANDS =      -810.61188296
  atomic energy  EATOM  =     13036.45147835
  Solvation  Ediel_sol  =         0.00000000
  ---------------------------------------------------
  free energy    TOTEN  =      -300.07745802 eV

  energy without entropy =     -300.07745802  energy(sigma->0) =     -300.07745802


--------------------------------------------------------------------------------------------------------




--------------------------------------- Iteration      1(   9)  ---------------------------------------


    POTLOK:  cpu time      0.1307: real time      0.1313
    SETDIJ:  cpu time      0.6050: real time      0.6068
     EDDAV:  cpu time     10.3089: real time     10.3582
       DOS:  cpu time      0.0008: real time      0.0008
    CHARGE:  cpu time      0.4135: real time      0.4156
    MIXING:  cpu time      0.0074: real time      0.0074
    --------------------------------------------
      LOOP:  cpu time     11.4662: real time     11.5200

 eigenvalue-minimisations  :  9072
 total energy-change (2. order) :-0.3723873E+00  (-0.4237524E-01)
 number of electron     359.9999989 magnetization       2.2787386
 augmentation part      -66.2317374 magnetization       2.4286578

 Broyden mixing:
  rms(total) = 0.14746E+00    rms(broyden)= 0.14746E+00
  rms(prec ) = 0.14929E+00
  weight for this iteration     100.00

 eigenvalues of (default mixing * dielectric matrix)
  average eigenvalue GAMMA=   1.3263
  2.6311  1.2203  0.8334  0.6202

 Free energy of the ion-electron system (eV)
  ---------------------------------------------------
  alpha Z        PSCENC =       795.80462271
  Ewald energy   TEWEN  =    -12846.24214566
  -Hartree energ DENC   =     -1197.04133958
  -exchange      EXHF   =         0.00000000
  -V(xc)+E(xc)   XCENC  =      -289.99203547
  PAW double counting   =     17175.98865719   -16163.90904724
  entropy T*S    EENTRO =        -0.00000000
  eigenvalues    EBANDS =      -811.51003561
  atomic energy  EATOM  =     13036.45147835
  Solvation  Ediel_sol  =         0.00000000
  ---------------------------------------------------
  free energy    TOTEN  =      -300.44984531 eV

  energy without entropy =     -300.44984531  energy(sigma->0) =     -300.44984531


--------------------------------------------------------------------------------------------------------




--------------------------------------- Iteration      1(  10)  ---------------------------------------


    POTLOK:  cpu time      0.1308: real time      0.1314
    SETDIJ:  cpu time      0.6045: real time      0.6062
     EDDAV:  cpu time      9.5690: real time      9.6157
       DOS:  cpu time      0.0010: real time      0.0010
    CHARGE:  cpu time      0.4199: real time      0.4214
    MIXING:  cpu time      0.0075: real time      0.0075
    --------------------------------------------
      LOOP:  cpu time     10.7326: real time     10.7831

 eigenvalue-minimisations  :  8176
 total energy-change (2. order) :-0.9891775E-01  (-0.8990258E-02)
 number of electron     359.9999989 magnetization       0.7558157
 augmentation part      -66.2317821 magnetization       0.8233214

 Broyden mixing:
  rms(total) = 0.73142E-01    rms(broyden)= 0.73142E-01
  rms(prec ) = 0.74233E-01
  weight for this iteration     100.00

 eigenvalues of (default mixing * dielectric matrix)
  average eigenvalue GAMMA=   1.3715
  2.6991  1.7409  0.9665  0.8250  0.6259

 Free energy of the ion-electron system (eV)
  ---------------------------------------------------
  alpha Z        PSCENC =       795.80462271
  Ewald energy   TEWEN  =    -12846.24214566
  -Hartree energ DENC   =     -1197.34550099
  -exchange      EXHF   =         0.00000000
  -V(xc)+E(xc)   XCENC  =      -289.97947762
  PAW double counting   =     17185.74719359   -16173.68427168
  entropy T*S    EENTRO =        -0.00000000
  eigenvalues    EBANDS =      -811.30066175
  atomic energy  EATOM  =     13036.45147835
  Solvation  Ediel_sol  =         0.00000000
  ---------------------------------------------------
  free energy    TOTEN  =      -300.54876306 eV

  energy without entropy =     -300.54876306  energy(sigma->0) =     -300.54876306


--------------------------------------------------------------------------------------------------------




--------------------------------------- Iteration      1(  11)  ---------------------------------------


    POTLOK:  cpu time      0.1302: real time      0.1309
    SETDIJ:  cpu time      0.6049: real time      0.6068
     EDDAV:  cpu time     10.1940: real time     10.2415
       DOS:  cpu time      0.0008: real time      0.0008
    CHARGE:  cpu time      0.4214: real time      0.4232
    MIXING:  cpu time      0.0076: real time      0.0076
    --------------------------------------------
      LOOP:  cpu time     11.3589: real time     11.4108

 eigenvalue-minimisations  :  8928
 total energy-change (2. order) :-0.3128093E-01  (-0.3603652E-02)
 number of electron     359.9999989 magnetization       0.2016956
 augmentation part      -66.2183644 magnetization       0.2205271

 Broyden mixing:
  rms(total) = 0.29146E-01    rms(broyden)= 0.29146E-01
  rms(prec ) = 0.29684E-01
  weight for this iteration     100.00

 eigenvalues of (default mixing * dielectric matrix)
  average eigenvalue GAMMA=   1.3988
  2.8907  2.1635  1.1590  0.8592  0.6974  0.6229

 Free energy of the ion-electron system (eV)
  ---------------------------------------------------
  alpha Z        PSCENC =       795.80462271
  Ewald energy   TEWEN  =    -12846.24214566
  -Hartree energ DENC   =     -1198.41329651
  -exchange      EXHF   =         0.00000000
  -V(xc)+E(xc)   XCENC  =      -289.93980127
  PAW double counting   =     17110.96314613   -16098.87276109
  entropy T*S    EENTRO =        -0.00000000
  eigenvalues    EBANDS =      -810.33128665
  atomic energy  EATOM  =     13036.45147835
  Solvation  Ediel_sol  =         0.00000000
  ---------------------------------------------------
  free energy    TOTEN  =      -300.58004399 eV

  energy without entropy =     -300.58004399  energy(sigma->0) =     -300.58004399


--------------------------------------------------------------------------------------------------------




--------------------------------------- Iteration      1(  12)  ---------------------------------------


    POTLOK:  cpu time      0.1329: real time      0.1342
    SETDIJ:  cpu time      0.6017: real time      0.6033
     EDDAV:  cpu time      9.9430: real time      9.9956
       DOS:  cpu time      0.0011: real time      0.0011
    CHARGE:  cpu time      0.4184: real time      0.4202
    MIXING:  cpu time      0.0076: real time      0.0076
    --------------------------------------------
      LOOP:  cpu time     11.1047: real time     11.1621

 eigenvalue-minimisations  :  8552
 total energy-change (2. order) :-0.3412983E-02  (-0.4500615E-03)
 number of electron     359.9999989 magnetization       0.0739156
 augmentation part      -66.2179249 magnetization       0.0790623

 Broyden mixing:
  rms(total) = 0.11630E-01    rms(broyden)= 0.11630E-01
  rms(prec ) = 0.12270E-01
  weight for this iteration     100.00

 eigenvalues of (default mixing * dielectric matrix)
  average eigenvalue GAMMA=   1.3577
  2.9816  2.3158  1.1856  0.8787  0.8787  0.6084  0.6550

 Free energy of the ion-electron system (eV)
  ---------------------------------------------------
  alpha Z        PSCENC =       795.80462271
  Ewald energy   TEWEN  =    -12846.24214566
  -Hartree energ DENC   =     -1198.50574289
  -exchange      EXHF   =         0.00000000
  -V(xc)+E(xc)   XCENC  =      -289.94277160
  PAW double counting   =     17074.80991353   -16062.69669617
  entropy T*S    EENTRO =        -0.00000000
  eigenvalues    EBANDS =      -810.26211525
  atomic energy  EATOM  =     13036.45147835
  Solvation  Ediel_sol  =         0.00000000
  ---------------------------------------------------
  free energy    TOTEN  =      -300.58345698 eV

  energy without entropy =     -300.58345698  energy(sigma->0) =     -300.58345698


--------------------------------------------------------------------------------------------------------




--------------------------------------- Iteration      1(  13)  ---------------------------------------


    POTLOK:  cpu time      0.1302: real time      0.1309
    SETDIJ:  cpu time      0.6037: real time      0.6056
     EDDAV:  cpu time     10.9287: real time     10.9839
       DOS:  cpu time      0.0009: real time      0.0009
    CHARGE:  cpu time      0.4154: real time      0.4170
    MIXING:  cpu time      0.0078: real time      0.0078
    --------------------------------------------
      LOOP:  cpu time     12.0868: real time     12.1461

 eigenvalue-minimisations  :  9768
 total energy-change (2. order) :-0.1509801E-03  (-0.6703045E-04)
 number of electron     359.9999989 magnetization       0.0203162
 augmentation part      -66.2192274 magnetization       0.0214759

 Broyden mixing:
  rms(total) = 0.52652E-02    rms(broyden)= 0.52652E-02
  rms(prec ) = 0.54580E-02
  weight for this iteration     100.00

 eigenvalues of (default mixing * dielectric matrix)
  average eigenvalue GAMMA=   1.3494
  3.0323  2.4298  1.1126  1.1126  0.9834  0.8666  0.6489  0.6093

 Free energy of the ion-electron system (eV)
  ---------------------------------------------------
  alpha Z        PSCENC =       795.80462271
  Ewald energy   TEWEN  =    -12846.24214566
  -Hartree energ DENC   =     -1198.42034309
  -exchange      EXHF   =         0.00000000
  -V(xc)+E(xc)   XCENC  =      -289.95194084
  PAW double counting   =     17061.37339245   -16049.24953997
  entropy T*S    EENTRO =        -0.00000000
  eigenvalues    EBANDS =      -810.34913191
  atomic energy  EATOM  =     13036.45147835
  Solvation  Ediel_sol  =         0.00000000
  ---------------------------------------------------
  free energy    TOTEN  =      -300.58360796 eV

  energy without entropy =     -300.58360796  energy(sigma->0) =     -300.58360796


--------------------------------------------------------------------------------------------------------




--------------------------------------- Iteration      1(  14)  ---------------------------------------


    POTLOK:  cpu time      0.1298: real time      0.1304
    SETDIJ:  cpu time      0.6054: real time      0.6073
     EDDAV:  cpu time      9.6714: real time      9.7175
       DOS:  cpu time      0.0008: real time      0.0008
    CHARGE:  cpu time      0.4164: real time      0.4182
    MIXING:  cpu time      0.0078: real time      0.0079
    --------------------------------------------
      LOOP:  cpu time     10.8317: real time     10.8822

 eigenvalue-minimisations  :  8312
 total energy-change (2. order) :-0.2512757E-04  (-0.1151769E-04)
 number of electron     359.9999989 magnetization       0.0057252
 augmentation part      -66.2188432 magnetization       0.0061483

 Broyden mixing:
  rms(total) = 0.18658E-02    rms(broyden)= 0.18658E-02
  rms(prec ) = 0.19639E-02
  weight for this iteration     100.00

 eigenvalues of (default mixing * dielectric matrix)
  average eigenvalue GAMMA=   1.3361
  3.0697  2.4624  1.4785  1.2054  0.8840  0.8840  0.7829  0.6150  0.6428

 Free energy of the ion-electron system (eV)
  ---------------------------------------------------
  alpha Z        PSCENC =       795.80462271
  Ewald energy   TEWEN  =    -12846.24214566
  -Hartree energ DENC   =     -1198.43046152
  -exchange      EXHF   =         0.00000000
  -V(xc)+E(xc)   XCENC  =      -289.95242669
  PAW double counting   =     17056.06299660   -16043.93587146
  entropy T*S    EENTRO =        -0.00000000
  eigenvalues    EBANDS =      -810.34182542
  atomic energy  EATOM  =     13036.45147835
  Solvation  Ediel_sol  =         0.00000000
  ---------------------------------------------------
  free energy    TOTEN  =      -300.58363308 eV

  energy without entropy =     -300.58363308  energy(sigma->0) =     -300.58363308


--------------------------------------------------------------------------------------------------------




--------------------------------------- Iteration      1(  15)  ---------------------------------------


    POTLOK:  cpu time      0.1320: real time      0.1327
    SETDIJ:  cpu time      0.6018: real time      0.6037
     EDDAV:  cpu time      9.8151: real time      9.8667
       DOS:  cpu time      0.0010: real time      0.0010
    CHARGE:  cpu time      0.4233: real time      0.4249
    MIXING:  cpu time      0.0082: real time      0.0082
    --------------------------------------------
      LOOP:  cpu time     10.9814: real time     11.0372

 eigenvalue-minimisations  :  8488
 total energy-change (2. order) :-0.4611183E-05  (-0.1942172E-05)
 number of electron     359.9999989 magnetization       0.0020001
 augmentation part      -66.2190045 magnetization       0.0022241

 Broyden mixing:
  rms(total) = 0.80503E-03    rms(broyden)= 0.80503E-03
  rms(prec ) = 0.85200E-03
  weight for this iteration     100.00

 eigenvalues of (default mixing * dielectric matrix)
  average eigenvalue GAMMA=   1.2988
  3.0839  2.4311  1.6645  1.0848  0.9741  0.9741  0.8387  0.7002  0.6184  0.6184

 Free energy of the ion-electron system (eV)
  ---------------------------------------------------
  alpha Z        PSCENC =       795.80462271
  Ewald energy   TEWEN  =    -12846.24214566
  -Hartree energ DENC   =     -1198.41785832
  -exchange      EXHF   =         0.00000000
  -V(xc)+E(xc)   XCENC  =      -289.95277051
  PAW double counting   =     17055.49965431   -16043.37167673
  entropy T*S    EENTRO =        -0.00000000
  eigenvalues    EBANDS =      -810.35494185
  atomic energy  EATOM  =     13036.45147835
  Solvation  Ediel_sol  =         0.00000000
  ---------------------------------------------------
  free energy    TOTEN  =      -300.58363769 eV

  energy without entropy =     -300.58363769  energy(sigma->0) =     -300.58363769


--------------------------------------------------------------------------------------------------------




--------------------------------------- Iteration      1(  16)  ---------------------------------------


    POTLOK:  cpu time      0.1321: real time      0.1328
    SETDIJ:  cpu time      0.6031: real time      0.6049
     EDDAV:  cpu time      6.7904: real time      6.8235
       DOS:  cpu time      0.0013: real time      0.0013
    --------------------------------------------
      LOOP:  cpu time      7.5269: real time      7.5624

 eigenvalue-minimisations  :  4968
 total energy-change (2. order) :-0.5878787E-06  (-0.1584133E-06)
 number of electron     359.9999989 magnetization       0.0020001
 augmentation part      -66.2190045 magnetization       0.0022241

 Free energy of the ion-electron system (eV)
  ---------------------------------------------------
  alpha Z        PSCENC =       795.80462271
  Ewald energy   TEWEN  =    -12846.24214566
  -Hartree energ DENC   =     -1198.41219801
  -exchange      EXHF   =         0.00000000
  -V(xc)+E(xc)   XCENC  =      -289.95302888
  PAW double counting   =     17055.41275956   -16043.28451365
  entropy T*S    EENTRO =        -0.00000000
  eigenvalues    EBANDS =      -810.36061270
  atomic energy  EATOM  =     13036.45147835
  Solvation  Ediel_sol  =         0.00000000
  ---------------------------------------------------
  free energy    TOTEN  =      -300.58363828 eV

  energy without entropy =     -300.58363828  energy(sigma->0) =     -300.58363828


--------------------------------------------------------------------------------------------------------




 average (electrostatic) potential at core
  the test charge radii are     1.1631  1.0808
  (the norm of the test charge is              1.0000)
       1 -33.3641       2 -33.6700       3 -33.5790       4 -33.5343       5 -33.5436
       6 -33.5910       7 -33.4358       8 -33.5049       9 -33.4009      10 -33.2679
      11 -33.4818      12 -33.5071      13 -33.4679      14 -33.5055      15 -33.8033
      16 -33.5272      17 -33.4283      18 -33.2510      19 -33.3574      20 -33.6755
      21 -33.5527      22 -33.2228      23 -33.3820      24 -33.2239      25 -33.6494
      26 -33.6735      27 -33.6315      28 -33.5811      29 -33.4515      30 -33.6211
      31 -33.3079      32 -33.6152      33 -33.5817      34 -33.3915      35 -33.2784
      36 -33.3547      37 -54.9736      38 -54.8287      39 -54.7698      40 -55.0996
      41 -54.8077      42 -55.1412      43 -54.9035      44 -55.0560      45 -54.9508
      46 -54.7992      47 -54.7731      48 -54.6762      49 -54.7431      50 -55.0753
      51 -54.7241      52 -54.6084      53 -54.7320      54 -54.7807      55 -55.0033
      56 -54.8442      57 -54.8496      58 -54.7601      59 -54.8684      60 -54.7895
      61 -54.8953      62 -54.7248      63 -54.8877      64 -54.9001      65 -54.7936
      66 -54.8315      67 -54.8096      68 -55.1267      69 -54.8430      70 -54.7149
      71 -54.7200      72 -54.9643
 
 
 
 E-fermi :   3.3478     XC(G=0):  -9.3663     alpha+bet : -8.8089

 Fermi energy:         3.3477580128

 spin component 1

 k-point     1 :       0.0000    0.0000    0.0000
  band No.  band energies     occupation 
      1     -10.9183      1.00000
      2     -10.5986      1.00000
      3     -10.4602      1.00000
      4     -10.4120      1.00000
      5     -10.3810      1.00000
      6     -10.3133      1.00000
      7     -10.1558      1.00000
      8     -10.0955      1.00000
      9     -10.0743      1.00000
     10      -9.9797      1.00000
     11      -9.8948      1.00000
     12      -9.8870      1.00000
     13      -9.8053      1.00000
     14      -9.7660      1.00000
     15      -9.6826      1.00000
     16      -9.6457      1.00000
     17      -9.6384      1.00000
     18      -9.5755      1.00000
     19      -9.5422      1.00000
     20      -9.4982      1.00000
     21      -9.4268      1.00000
     22      -9.3820      1.00000
     23      -9.3157      1.00000
     24      -9.3055      1.00000
     25      -9.2911      1.00000
     26      -9.2766      1.00000
     27      -9.2395      1.00000
     28      -9.2045      1.00000
     29      -9.1849      1.00000
     30      -9.1406      1.00000
     31      -9.1043      1.00000
     32      -9.0577      1.00000
     33      -9.0435      1.00000
     34      -8.9969      1.00000
     35      -8.9887      1.00000
     36      -8.8580      1.00000
     37      -5.5588      1.00000
     38      -5.4985      1.00000
     39      -5.3291      1.00000
     40      -5.2390      1.00000
     41      -5.1081      1.00000
     42      -5.0771      1.00000
     43      -5.0574      1.00000
     44      -4.9791      1.00000
     45      -4.7274      1.00000
     46      -4.6751      1.00000
     47      -4.6294      1.00000
     48      -4.5957      1.00000
     49      -4.5524      1.00000
     50      -4.5229      1.00000
     51      -4.4451      1.00000
     52      -4.4251      1.00000
     53      -4.3738      1.00000
     54      -4.3544      1.00000
     55      -4.2947      1.00000
     56      -4.2717      1.00000
     57      -4.2499      1.00000
     58      -4.2182      1.00000
     59      -4.2079      1.00000
     60      -4.1163      1.00000
     61      -4.1097      1.00000
     62      -4.0479      1.00000
     63      -3.9984      1.00000
     64      -3.9649      1.00000
     65      -3.9184      1.00000
     66      -3.8245      1.00000
     67      -3.6586      1.00000
     68      -3.6517      1.00000
     69      -3.6227      1.00000
     70      -3.5115      1.00000
     71      -2.5057      1.00000
     72      -2.3800      1.00000
     73      -1.8644      1.00000
     74      -1.5879      1.00000
     75      -1.5581      1.00000
     76      -1.5085      1.00000
     77      -1.4622      1.00000
     78      -1.4200      1.00000
     79      -1.3471      1.00000
     80      -1.3005      1.00000
     81      -1.2544      1.00000
     82      -1.1485      1.00000
     83      -1.1048      1.00000
     84      -1.0725      1.00000
     85      -0.9921      1.00000
     86      -0.8053      1.00000
     87      -0.7708      1.00000
     88      -0.7446      1.00000
     89      -0.7169      1.00000
     90      -0.6403      1.00000
     91      -0.6156      1.00000
     92      -0.5498      1.00000
     93      -0.5241      1.00000
     94      -0.2676      1.00000
     95      -0.2033      1.00000
     96      -0.1837      1.00000
     97      -0.1061      1.00000
     98      -0.0387      1.00000
     99      -0.0192      1.00000
    100       0.0623      1.00000
    101       0.0899      1.00000
    102       0.1477      1.00000
    103       0.1634      1.00000
    104       0.1817      1.00000
    105       0.2114      1.00000
    106       0.2718      1.00000
    107       0.3207      1.00000
    108       0.3909      1.00000
    109       0.4030      1.00000
    110       0.4381      1.00000
    111       0.4962      1.00000
    112       0.5243      1.00000
    113       0.5543      1.00000
    114       0.5931      1.00000
    115       0.6070      1.00000
    116       0.6463      1.00000
    117       0.6599      1.00000
    118       0.6972      1.00000
    119       0.7293      1.00000
    120       0.7481      1.00000
    121       0.7830      1.00000
    122       0.8268      1.00000
    123       0.8810      1.00000
    124       0.9053      1.00000
    125       0.9527      1.00000
    126       1.0114      1.00000
    127       1.0213      1.00000
    128       1.0340      1.00000
    129       1.0599      1.00000
    130       1.0845      1.00000
    131       1.1234      1.00000
    132       1.2005      1.00000
    133       1.2389      1.00000
    134       1.2639      1.00000
    135       1.3170      1.00000
    136       1.3817      1.00000
    137       1.4093      1.00000
    138       1.4310      1.00000
    139       1.4681      1.00000
    140       1.5170      1.00000
    141       1.5797      1.00000
    142       1.6018      1.00000
    143       1.6259      1.00000
    144       1.6779      1.00000
    145       1.6989      1.00000
    146       1.7293      1.00000
    147       1.7774      1.00000
    148       1.8230      1.00000
[...]
   0.166E+02 0.249E+01 -.239E+02   -.192E+02 -.204E+01 0.273E+02   0.245E+01 -.427E+00 -.265E+01   0.418E-03 0.433E-04 -.572E-04
   -.494E+01 0.219E+01 0.322E+02   0.554E+01 -.384E+01 -.356E+02   -.399E+00 0.207E+01 0.253E+01   -.158E-03 0.178E-03 0.363E-03
   0.687E+01 0.249E+02 0.206E+02   -.654E+01 -.266E+02 -.225E+02   -.203E+00 0.122E+01 0.214E+01   -.870E-04 -.117E-03 0.167E-03
   0.392E+01 0.216E+02 0.338E+02   -.384E+01 -.229E+02 -.354E+02   -.142E+00 0.136E+01 0.109E+01   -.329E-03 0.664E-04 -.203E-03
   -.135E+02 -.105E+02 0.242E+02   0.149E+02 0.104E+02 -.256E+02   -.122E+01 -.372E+00 0.161E+01   0.113E-03 -.456E-03 -.119E-03
   -.227E+01 -.170E+00 0.277E+02   0.315E+01 0.439E+00 -.293E+02   -.958E+00 -.628E-01 0.120E+01   -.156E-03 -.276E-03 0.145E-03
   -.191E+02 0.153E+02 0.260E+02   0.204E+02 -.159E+02 -.276E+02   -.665E+00 0.422E+00 0.166E+01   -.285E-03 -.232E-03 -.119E-03
   0.560E+01 0.331E+01 0.309E+02   -.566E+01 -.441E+01 -.325E+02   0.854E-01 0.150E+01 0.156E+01   0.286E-04 0.562E-03 -.291E-03
   -.103E+02 0.975E+01 0.305E+02   0.115E+02 -.102E+02 -.328E+02   -.110E+01 -.363E+00 0.189E+01   0.410E-03 0.369E-03 0.158E-03
   -.480E+01 0.893E+01 -.196E+02   0.574E+01 -.885E+01 0.208E+02   -.101E+01 -.119E+00 -.142E+01   -.714E-03 -.414E-03 0.142E-03
   -.191E+02 0.918E+01 -.263E+02   0.208E+02 -.933E+01 0.282E+02   -.144E+01 0.371E+00 -.209E+01   0.252E-03 0.204E-03 -.330E-03
   0.147E+02 -.171E+02 -.361E+02   -.154E+02 0.185E+02 0.384E+02   0.219E+00 -.141E+01 -.172E+01   0.432E-03 0.263E-03 -.132E-03
   -.970E+01 -.218E+01 -.265E+02   0.106E+02 0.224E+01 0.284E+02   -.859E+00 0.425E+00 -.175E+01   -.122E-03 -.545E-03 -.788E-04
   0.257E+01 0.575E+01 -.260E+02   -.318E+01 -.498E+01 0.281E+02   0.101E+01 -.125E+01 -.170E+01   0.521E-03 0.339E-03 -.469E-03
   -.130E+02 0.121E+02 -.250E+02   0.142E+02 -.123E+02 0.260E+02   -.954E+00 0.724E-01 -.131E+01   -.331E-03 -.355E-03 0.569E-04
   -.232E+02 -.206E+02 -.281E+02   0.251E+02 0.210E+02 0.299E+02   -.121E+01 0.631E-01 -.154E+01   0.442E-03 -.115E-03 0.107E-03
   -.199E+02 0.122E+02 0.313E+02   0.207E+02 -.130E+02 -.336E+02   -.575E+00 0.398E+00 0.223E+01   0.433E-03 0.336E-03 0.316E-03
   -.113E+02 -.726E+01 0.179E+02   0.117E+02 0.690E+01 -.190E+02   -.796E+00 0.407E+00 0.139E+01   -.316E-03 -.989E-04 -.124E-03
   0.500E+01 0.682E+01 0.235E+02   -.449E+01 -.719E+01 -.252E+02   -.904E+00 0.551E+00 0.202E+01   -.338E-03 -.354E-03 -.359E-04
   -.545E+01 0.115E+01 0.249E+02   0.517E+01 0.110E+00 -.268E+02   0.691E+00 -.133E+01 0.174E+01   0.408E-03 0.144E-03 0.152E-03
   -.248E-01 -.381E+01 0.226E+02   0.126E+01 0.411E+01 -.243E+02   -.175E+01 -.423E+00 0.208E+01   0.291E-03 0.113E-03 -.244E-03
   -.189E+02 0.203E+02 -.185E+02   0.204E+02 -.213E+02 0.200E+02   -.109E+01 -.275E-01 -.174E+01   -.100E-03 0.871E-04 0.252E-03
   0.778E+00 0.183E+02 -.197E+02   -.721E+00 -.191E+02 0.215E+02   -.591E-01 0.837E+00 -.267E+01   0.758E-04 0.371E-03 0.178E-05
   -.730E+00 -.197E+02 -.282E+02   0.143E+01 0.202E+02 0.298E+02   -.103E+01 -.270E-01 -.121E+01   -.617E-05 -.410E-03 -.151E-03
   -.327E+01 0.190E+02 -.217E+02   0.336E+01 -.201E+02 0.233E+02   0.135E+00 0.990E+00 -.229E+01   0.131E-03 0.128E-03 0.564E-04
   -.397E+01 0.326E+02 -.220E+02   0.400E+01 -.340E+02 0.237E+02   0.481E+00 0.120E+01 -.134E+01   0.972E-04 -.369E-03 0.205E-03
   -.372E+01 -.483E+01 -.316E+02   0.387E+01 0.386E+01 0.331E+02   -.193E+00 0.156E+01 -.107E+01   -.356E-04 -.870E-04 0.828E-04
   -.131E+02 -.105E+02 -.387E+02   0.142E+02 0.108E+02 0.408E+02   -.115E+01 -.392E+00 -.190E+01   0.443E-03 0.558E-03 0.269E-03
   -.137E+02 -.689E+01 -.167E+02   0.149E+02 0.739E+01 0.178E+02   -.142E+01 -.277E+00 -.178E+01   -.363E-03 -.347E-03 0.245E-03
   -.143E+01 0.118E+02 -.357E+02   0.132E+01 -.131E+02 0.375E+02   0.142E+00 0.128E+01 -.166E+01   0.332E-04 0.105E-03 0.181E-04
   0.122E+01 0.854E+01 -.353E+02   -.740E+00 -.928E+01 0.374E+02   -.505E+00 0.103E+01 -.122E+01   -.649E-03 0.116E-03 -.430E-04
   -.417E+01 -.885E+01 0.259E+02   0.476E+01 0.885E+01 -.273E+02   -.848E+00 0.152E+00 0.193E+01   -.221E-03 -.438E-03 0.184E-03
   -.319E+02 -.145E+01 0.272E+02   0.336E+02 0.135E+01 -.287E+02   -.137E+01 -.296E+00 0.184E+01   0.420E-03 0.242E-03 -.320E-03
   -.230E+02 0.135E+02 0.239E+02   0.245E+02 -.135E+02 -.257E+02   -.743E+00 0.354E+00 0.153E+01   -.556E-03 -.792E-03 -.121E-03
   -.126E+02 -.855E+01 0.306E+02   0.139E+02 0.862E+01 -.317E+02   -.181E+01 0.321E+00 0.104E+01   -.169E-03 0.335E-03 -.521E-04
   0.151E+02 -.245E+02 0.308E+02   -.155E+02 0.259E+02 -.327E+02   0.108E-01 -.143E+01 0.215E+01   -.226E-03 0.251E-03 -.758E-04
   0.650E+01 -.137E+02 0.264E+02   -.674E+01 0.148E+02 -.278E+02   -.125E+00 -.127E+01 0.155E+01   0.370E-03 0.953E-04 0.507E-04
   0.931E+01 -.336E+02 -.249E+02   -.994E+01 0.354E+02 0.271E+02   0.197E+00 -.135E+01 -.134E+01   -.257E-03 0.404E-03 -.104E-03
 -----------------------------------------------------------------------------------------------
   -.197E+02 0.418E+01 -.769E+00   -.426E-13 -.426E-13 0.497E-13   0.197E+02 -.418E+01 0.770E+00   0.751E-03 -.429E-03 -.244E-03
 
 
 POSITION                                       TOTAL-FORCE (eV/Angst)
 -----------------------------------------------------------------------------------
      1.01775      0.17324      1.48179        -0.089061     -0.041207      0.067212
      3.08916     10.45622      4.17013         0.144957      0.527007     -0.403452
      7.12218      2.35273      3.95933         0.047845      0.317041      0.559312
      7.25578      6.38053      4.30860        -0.187217      0.123972     -0.489093
      7.20964     11.06097      4.08097        -0.443160      0.056555     -0.261497
     11.54880      2.23152      4.05870         0.116029      0.291764     -0.222650
     11.07220      6.70220      4.23178         0.549884     -0.269596     -0.402824
     11.32246     10.78328      4.11179        -0.044648     -0.375232     -0.305863
      0.90682      2.03365      7.10773         0.110518      0.157595      0.225492
      1.28074      6.20117      6.88404        -0.374372      0.347420     -0.242446
      0.81856     10.31258      7.08983        -0.253396     -0.122503      0.180050
      5.25131      1.87597      6.95651        -0.465276      0.213901     -0.301333
      4.97563      6.12363      6.84989        -0.155800     -0.296977      0.076826
      5.51265     10.39860      6.89657        -0.606213      0.045196     -0.074732
      9.33879      2.11678      6.71424         0.151739      0.452434      0.692354
      9.29937      6.09636      6.91520        -0.173789      0.359624      0.212677
      3.15077      6.63904      4.09076        -0.564642     -0.511503     -0.353326
      2.84796      2.56102      4.05236         0.383821      0.049099      0.228040
      8.96318     10.14109      6.96324         0.791476     -0.228888     -0.789818
     11.08621      8.01161      9.82721         0.279361     -0.141134     -0.609902
     11.32060     12.47484      9.45532        -0.240622     -0.040541      0.126649
      0.98619      4.77579      1.53519        -0.143323     -0.198542     -0.598375
      0.97639      8.71043      1.49886        -0.119610     -0.051800     -0.168700
      5.02181      0.69113      1.42370        -0.899157     -0.944926     -0.331135
      5.14905      4.53554      1.16990        -0.036482      0.368392      0.724044
      9.51230      0.45244      1.21218         0.232202     -0.323937      0.288876
      9.40483      4.26400      1.38930         0.436875      0.448133      0.246895
      5.21336      8.48825      1.42984         0.549425      0.001668     -0.157133
      3.00374      4.03718      9.81869        -0.149029     -0.098626      0.042321
      3.07804      8.27480      9.70781         0.373237      0.137268     -0.495305
      2.89794     12.14390      9.39436         0.005523      0.365753      0.393989
      6.98610      3.93094      9.67765        -0.067353     -0.151423     -0.410182
      7.10192      8.21105      9.62881        -0.065577     -0.342617      0.030699
      7.49663      0.16513      9.66931        -0.108027     -0.367728      0.455156
     11.53965      4.22456      9.43096        -0.074385      0.024541      0.693890
      9.10508      8.62081      1.54766         0.199835      0.419197     -0.910000
     11.22179      0.45473      6.93653         0.132148     -0.475342      0.219291
      3.00640      4.35655      7.30236        -0.068854      0.032124     -0.484799
      2.66364      8.57172      7.13708         0.218002     -0.409504      0.174649
      7.10973      0.05232      7.19239        -0.076887      0.205540     -0.431966
      6.74036      4.30191      7.10405         0.608566     -0.210843      0.124937
      7.05707      8.34028      7.10952         0.021437      0.412884     -0.019364
     11.11499      4.41081      6.99180         0.103054     -0.762041     -0.438923
      8.98351      0.44234      3.80312        -0.066552     -0.042859     -0.202139
      0.63495      0.12283      4.04544         0.267250      0.221854     -0.264487
      0.93250      4.23264      3.95820        -0.544373     -0.007538      0.510078
      0.52747      8.50643      3.99849         0.050463      0.482592      0.131040
      4.91116      0.11795      3.90359         0.400217     -0.475528      0.370707
      4.66848      4.50436      3.83232         0.260259     -0.213371     -0.345750
      4.77848      8.50074      3.89879         0.690920      0.428721      0.243444
      2.68895      0.21648      6.96534         0.224164     -0.363486     -0.062559
     11.12200      8.42910      7.17067        -0.443583      0.051740      0.310112
     11.06176     10.64137      1.52116        -0.390712      0.187703      0.327867
      2.75503      2.14040      1.57447         0.416078     -0.073409     -0.177360
     11.30938      2.33155      1.48579        -0.515180     -0.131443      0.309912
      8.84815      4.47607      3.97028         0.436381     -0.983085     -0.209844
      0.84443      2.31203      9.72712        -0.001740      0.007923     -0.813655
      0.76533      6.23109      9.36574        -0.329449      0.439315      0.422472
      0.59993     10.62482      9.66707         0.225835     -0.100530     -0.631537
      4.78031      2.19087      9.42613         0.509622     -0.192233      0.441852
      4.97030      6.43277      9.35592        -0.045384      0.587530      0.431025
      4.85687     10.45751      9.34740        -0.079571     -0.115536      0.170494
      9.03116      2.24946      9.49826        -0.196783      0.224508     -0.602382
      8.98107      6.35278      9.44522         0.033819      0.011071      0.130885
      9.22019     10.62294      9.33628        -0.028936      0.287812      0.896272
      2.82744      6.61574      1.44338        -0.262666      0.150372      0.566775
      2.68385     10.67823      1.58796         0.250843     -0.392564      0.320672
      6.73202      2.44731      1.51074         0.745498      0.434626     -0.271626
      6.99290      6.35126      1.68339        -0.533072      0.388758     -0.103866
      7.19167     10.38247      1.57959        -0.338332     -0.061772      0.243792
     11.27243      6.23453      1.60780        -0.358344     -0.158267      0.159896
      9.13408      8.25999      3.94415        -0.425724      0.414899      0.837364
 -----------------------------------------------------------------------------------
    total drift:                                0.001813     -0.001106      0.000105


--------------------------------------------------------------------------------------------------------



  FREE ENERGIE OF THE ION-ELECTRON SYSTEM (eV)
  ---------------------------------------------------
  free  energy   TOTEN  =      -300.58363828 eV

  energy  without entropy=     -300.58363828  energy(sigma->0) =     -300.58363828
 


--------------------------------------------------------------------------------------------------------


    POTLOK:  cpu time      0.7389: real time      0.7415


--------------------------------------------------------------------------------------------------------


     LOOP+:  cpu time    181.7971: real time    182.7108
    4ORBIT:  cpu time      0.0000: real time      0.0000



 total charge

# of ion       s       p       d       tot
------------------------------------------
    1        1.324   0.773   0.060   2.157
    2        1.335   0.717   0.049   2.101
    3        1.327   0.762   0.057   2.145
    4        1.320   0.770   0.061   2.151
    5        1.310   0.768   0.049   2.127
    6        1.320   0.762   0.052   2.135
    7        1.321   0.770   0.059   2.151
    8        1.328   0.745   0.051   2.124
    9        1.318   0.779   0.056   2.153
   10        1.324   0.775   0.056   2.156
   11        1.325   0.751   0.053   2.129
   12        1.336   0.740   0.052   2.128
   13        1.305   0.804   0.064   2.172
   14        1.314   0.790   0.055   2.158
   15        1.337   0.704   0.048   2.090
   16        1.306   0.790   0.059   2.156
   17        1.311   0.795   0.062   2.168
   18        1.314   0.802   0.061   2.177
   19        1.313   0.804   0.061   2.177
   20        1.341   0.681   0.044   2.066
   21        1.317   0.769   0.056   2.142
   22        1.312   0.813   0.061   2.186
   23        1.325   0.760   0.054   2.138
   24        1.319   0.809   0.061   2.189
   25        1.322   0.740   0.054   2.117
   26        1.321   0.741   0.048   2.109
   27        1.334   0.717   0.046   2.097
   28        1.321   0.751   0.052   2.124
   29        1.324   0.759   0.060   2.143
   30        1.331   0.717   0.048   2.096
   31        1.319   0.783   0.055   2.158
   32        1.320   0.742   0.051   2.114
   33        1.322   0.755   0.054   2.131
   34        1.322   0.780   0.058   2.160
   35        1.312   0.809   0.060   2.181
   36        1.310   0.803   0.062   2.175
   37        1.476   2.312   0.034   3.821
   38        1.476   2.316   0.034   3.826
   39        1.476   2.299   0.029   3.804
   40        1.477   2.311   0.036   3.825
   41        1.476   2.295   0.029   3.799
   42        1.481   2.308   0.039   3.828
   43        1.478   2.311   0.035   3.824
   44        1.476   2.295   0.031   3.802
   45        1.477   2.306   0.034   3.818
   46        1.477   2.317   0.034   3.828
   47        1.476   2.289   0.028   3.793
   48        1.477   2.279   0.026   3.782
   49        1.474   2.291   0.027   3.792
   50        1.474   2.336   0.038   3.848
   51        1.480   2.293   0.031   3.804
   52        1.476   2.266   0.023   3.765
   53        1.479   2.268   0.026   3.773
   54        1.477   2.307   0.033   3.817
   55        1.482   2.280   0.033   3.795
   56        1.474   2.309   0.031   3.814
   57        1.483   2.266   0.031   3.780
   58        1.474   2.301   0.030   3.805
   59        1.482   2.282   0.031   3.795
   60        1.474   2.304   0.031   3.809
   61        1.476   2.297   0.031   3.804
   62        1.477   2.295   0.028   3.800
   63        1.479   2.278   0.029   3.787
   64        1.476   2.291   0.030   3.797
   65        1.475   2.311   0.032   3.818
   66        1.480   2.283   0.031   3.794
   67        1.475   2.303   0.031   3.809
   68        1.476   2.344   0.041   3.861
   69        1.475   2.284   0.028   3.787
   70        1.478   2.286   0.027   3.790
   71        1.475   2.286   0.027   3.788
   72        1.473   2.346   0.039   3.858
--------------------------------------------------
tot        100.730 110.277   3.116 214.124



 magnetization (x)

# of ion       s       p       d       tot
------------------------------------------
    1       -0.000   0.000  -0.000   0.000
    2       -0.000  -0.000  -0.000  -0.000
    3       -0.000   0.000   0.000   0.000
    4       -0.000   0.000   0.000   0.000
    5       -0.000   0.000   0.000   0.000
    6       -0.000   0.000   0.000   0.000
    7       -0.000   0.000   0.000   0.000
    8       -0.000   0.000   0.000   0.000
    9       -0.000   0.000  -0.000  -0.000
   10       -0.000  -0.000  -0.000  -0.000
   11       -0.000   0.000  -0.000  -0.000
   12       -0.000   0.000   0.000   0.000
   13       -0.000   0.000   0.000   0.000
   14       -0.000   0.000   0.000   0.000
   15       -0.000   0.000   0.000   0.000
   16       -0.000   0.000   0.000   0.000
   17       -0.000  -0.000  -0.000  -0.000
   18       -0.000   0.000  -0.000   0.000
   19       -0.000   0.000   0.000   0.000
   20       -0.000   0.000   0.000   0.000
   21       -0.000   0.000   0.000   0.000
   22       -0.000  -0.000  -0.000  -0.000
   23       -0.000  -0.000  -0.000  -0.000
   24       -0.000   0.000   0.000   0.000
   25       -0.000   0.000   0.000   0.000
   26       -0.000   0.000   0.000   0.000
   27       -0.000   0.000   0.000   0.000
   28       -0.000   0.000  -0.000  -0.000
   29       -0.000  -0.000  -0.000  -0.000
   30        0.000  -0.000  -0.000  -0.000
   31       -0.000   0.000  -0.000  -0.000
   32       -0.000   0.000   0.000   0.000
   33       -0.000   0.000   0.000   0.000
   34       -0.000   0.000   0.000   0.000
   35       -0.000   0.000  -0.000   0.000
   36       -0.000   0.000   0.000   0.000
   37       -0.000  -0.000   0.000  -0.000
   38       -0.000  -0.000  -0.000  -0.000
   39       -0.000  -0.000  -0.000  -0.000
   40       -0.000  -0.000   0.000  -0.000
   41       -0.000  -0.000   0.000  -0.000
   42       -0.000  -0.000   0.000  -0.000
   43       -0.000  -0.000   0.000  -0.000
   44       -0.000  -0.000   0.000  -0.000
   45       -0.000  -0.000   0.000  -0.000
   46       -0.000  -0.000  -0.000  -0.000
   47       -0.000  -0.000  -0.000  -0.000
   48       -0.000  -0.000   0.000  -0.000
   49       -0.000  -0.000   0.000  -0.000
   50       -0.000  -0.000  -0.000  -0.000
   51       -0.000  -0.000  -0.000  -0.000
   52       -0.000  -0.000   0.000  -0.000
   53       -0.000  -0.000   0.000  -0.000
   54       -0.000  -0.000  -0.000  -0.000
   55       -0.000  -0.000   0.000  -0.000
   56       -0.000  -0.000   0.000  -0.000
   57       -0.000  -0.000  -0.000  -0.000
   58       -0.000  -0.000  -0.000  -0.000
   59       -0.000  -0.000  -0.000  -0.000
   60       -0.000  -0.000   0.000  -0.000
   61       -0.000  -0.000   0.000  -0.000
   62       -0.000  -0.000   0.000  -0.000
   63       -0.000  -0.000   0.000  -0.000
   64       -0.000  -0.000   0.000  -0.000
   65       -0.000  -0.000   0.000  -0.000
   66       -0.000  -0.000  -0.000  -0.000
   67       -0.000  -0.000  -0.000  -0.000
   68       -0.000  -0.000   0.000  -0.000
   69       -0.000  -0.000   0.000  -0.000
   70       -0.000  -0.000   0.000  -0.000
   71       -0.000  -0.000   0.000  -0.000
   72       -0.000  -0.000   0.000  -0.000
--------------------------------------------------
tot         -0.000  -0.000   0.000  -0.000
 

 total amount of memory used by VASP MPI-rank0   110764. kBytes
=======================================================================

   base      :      30000. kBytes
   nonl-proj :      16355. kBytes
   fftplans  :       6179. kBytes
   grid      :      15593. kBytes
   one-center:        146. kBytes
   wavefun   :      42491. kBytes
 
  
  
 General timing and accounting informations for this job:
 ========================================================
  
                  Total CPU time used (sec):      193.640
                            User time (sec):      187.685
                          System time (sec):        5.956
                         Elapsed time (sec):      196.274
  
                   Maximum memory used (kb):      329912.
                   Average memory used (kb):          N/A
  
                          Minor page faults:        91444
                          Major page faults:           46
                 Voluntary context switches:         6274
