 running  128 mpi-ranks, with    1 threads/rank, on    2 nodes
 distrk:  each k-point on   64 cores,    2 groups
 distr:  one band on    8 cores,    8 groups
 vasp.6.4.2 20Jul23 (build Oct 12 2023 10:31:02) complex                         
 POSCAR found type information on POSCAR GeSe
 POSCAR found :  2 types and      72 ions
 Reading from existing POTCAR
 -----------------------------------------------------------------------------
|                                                                             |
|           W    W    AA    RRRRR   N    N  II  N    N   GGGG   !!!           |
|           W    W   A  A   R    R  NN   N  II  NN   N  G    G  !!!           |
|           W    W  A    A  R    R  N N  N  II  N N  N  G       !!!           |
|           W WW W  AAAAAA  RRRRR   N  N N  II  N  N N  G  GGG   !            |
|           WW  WW  A    A  R   R   N   NN  II  N   NN  G    G                |
|           W    W  A    A  R    R  N    N  II  N    N   GGGG   !!!           |
|                                                                             |
|     You use a magnetic or noncollinear calculation, but did not specify     |
|     the initial magnetic moment with the MAGMOM tag. Note that a            |
|     default of 1 will be used for all atoms. This ferromagnetic setup       |
|     may break the symmetry of the crystal, in particular it may rule        |
|     out finding an antiferromagnetic solution. Thence, we recommend         |
|     setting the initial magnetic moment manually or verifying carefully     |
|     that this magnetic setup is desired.                                    |
|                                                                             |
 -----------------------------------------------------------------------------

 scaLAPACK will be used
 Reading from existing POTCAR
 -----------------------------------------------------------------------------
|                                                                             |
|               ----> ADVICE to this user running VASP <----                  |
|                                                                             |
|     You have a (more or less) 'large supercell' and for larger cells it     |
|     might be more efficient to use real-space projection operators.         |
|     Therefore, try LREAL= Auto in the INCAR file.                           |
|     Mind: For very accurate calculation, you might also keep the            |
|     reciprocal projection scheme (i.e. LREAL=.FALSE.).                      |
|                                                                             |
 -----------------------------------------------------------------------------

 LDA part: xc-table for Pade appr. of Perdew
 -----------------------------------------------------------------------------
|                                                                             |
|           W    W    AA    RRRRR   N    N  II  N    N   GGGG   !!!           |
|           W    W   A  A   R    R  NN   N  II  NN   N  G    G  !!!           |
|           W    W  A    A  R    R  N N  N  II  N N  N  G       !!!           |
|           W WW W  AAAAAA  RRRRR   N  N N  II  N  N N  G  GGG   !            |
|           WW  WW  A    A  R   R   N   NN  II  N   NN  G    G                |
|           W    W  A    A  R    R  N    N  II  N    N   GGGG   !!!           |
|                                                                             |
|     The number of bands has been changed from the values supplied in        |
|     the INCAR file. This is a result of running the parallel version.       |
|     The orbitals not found in the WAVECAR file will be initialized with     |
|     random numbers, which is usually adequate. For correlated               |
|     calculations, however, you should redo the groundstate calculation.     |
|     I found NBANDS = 220. Now, NBANDS = 224.                                |
|                                                                             |
 -----------------------------------------------------------------------------

 POSCAR, INCAR and KPOINTS ok, starting setup
 FFT: planning ... GRIDC
 FFT: planning ... GRID_SOFT
 FFT: planning ... GRID
 WAVECAR not read
 WARNING: random wavefunctions but no delay for mixing, default for NELMDL
 entering main loop
       N       E                     dE             d eps       ncg     rms          rms(c)
DAV:   1     0.181374550390E+04    0.18137E+04   -0.14181E+05  7168   0.135E+03
DAV:   2    -0.636247747637E+02   -0.18774E+04   -0.18026E+04  8440   0.205E+02
DAV:   3    -0.281609685150E+03   -0.21798E+03   -0.21184E+03  8584   0.691E+01
DAV:   4    -0.289624052120E+03   -0.80144E+01   -0.79223E+01  8784   0.131E+01
DAV:   5    -0.289914004689E+03   -0.28995E+00   -0.28916E+00  9056   0.213E+00    0.292E+01
DAV:   6    -0.289343544812E+03    0.57046E+00   -0.26712E+01  7912   0.768E+00    0.173E+01
DAV:   7    -0.296873416293E+03   -0.75299E+01   -0.87730E+00  8040   0.452E+00    0.909E+00
DAV:   8    -0.300077458023E+03   -0.32040E+01   -0.17540E+00  8144   0.229E+00    0.328E+00
DAV:   9    -0.300449845314E+03   -0.37239E+00   -0.42375E-01  9072   0.102E+00    0.147E+00
DAV:  10    -0.300548763063E+03   -0.98918E-01   -0.89903E-02  8176   0.457E-01    0.731E-01
DAV:  11    -0.300580043993E+03   -0.31281E-01   -0.36037E-02  8928   0.283E-01    0.291E-01
DAV:  12    -0.300583456976E+03   -0.34130E-02   -0.45006E-03  8552   0.119E-01    0.116E-01
DAV:  13    -0.300583607956E+03   -0.15098E-03   -0.67030E-04  9768   0.404E-02    0.527E-02
DAV:  14    -0.300583633084E+03   -0.25128E-04   -0.11518E-04  8312   0.203E-02    0.187E-02
DAV:  15    -0.300583637695E+03   -0.46112E-05   -0.19422E-05  8488   0.980E-03    0.805E-03
DAV:  16    -0.300583638283E+03   -0.58788E-06   -0.15841E-06  4968   0.278E-03
   1 F= -.30058364E+03 E0= -.30058364E+03  d E =-.441038E-11  mag=     0.0005
