 vasp.6.4.2 20Jul23 (build Oct 12 2023 10:31:02) complex                         
 executed on              LinuxNV date 2024.11.01  21:28:08
 running  128 mpi-ranks, with    1 threads/rank, on    2 nodes
 distrk:  each k-point on   64 cores,    2 groups
 distr:  one band on NCORE=   8 cores,    8 groups


--------------------------------------------------------------------------------------------------------


 INCAR:
   ENCUT = 520.000000
   SIGMA = 0.050000
   EDIFF = 1.00e-06
   ALGO = N
   GGA = PE
   PREC = Accurate
   SYSTEM = 01_AOPT
   ICHARG = 0
   ISMEAR = 0
   ISPIN = 2
   ISTART = 1
   ISYM = -1
   KPAR = 2
   LORBIT = 11
   NBANDS = 220
   NELM = 100
   NELMIN = 5
   NPAR = 8
   LASPH = .TRUE.
   LCHARG = .FALSE.
   LWAVE = .FALSE.
   LREAL = .FALSE.

 POTCAR:    PAW_PBE Ge 05Jan2001                  
 POTCAR:    PAW_PBE Se 06Sep2000                  
 -----------------------------------------------------------------------------
|                                                                             |
|           W    W    AA    RRRRR   N    N  II  N    N   GGGG   !!!           |
|           W    W   A  A   R    R  NN   N  II  NN   N  G    G  !!!           |
|           W    W  A    A  R    R  N N  N  II  N N  N  G       !!!           |
|           W WW W  AAAAAA  RRRRR   N  N N  II  N  N N  G  GGG   !            |
|           WW  WW  A    A  R   R   N   NN  II  N   NN  G    G                |
|           W    W  A    A  R    R  N    N  II  N    N   GGGG   !!!           |
|                                                                             |
|     You use a magnetic or noncollinear calculation, but did not specify     |
|     the initial magnetic moment with the MAGMOM tag. Note that a            |
|     default of 1 will be used for all atoms. This ferromagnetic setup       |
|     may break the symmetry of the crystal, in particular it may rule        |
|     out finding an antiferromagnetic solution. Thence, we recommend         |
|     setting the initial magnetic moment manually or verifying carefully     |
|     that this magnetic setup is desired.                                    |
|                                                                             |
 -----------------------------------------------------------------------------

 POTCAR:    PAW_PBE Ge 05Jan2001                  
   VRHFIN =Ge: s2p2                                                                                 
   LEXCH  = PE                                                                                      
   EATOM  =   104.9960 eV,    7.7170 Ry                                                             
                                                                                                    
   TITEL  = PAW_PBE Ge 05Jan2001                                                                    
   LULTRA =        F    use ultrasoft PP ?                                                          
   IUNSCR =        1    unscreen: 0-lin 1-nonlin 2-no                                               
   RPACOR =    2.170    partial core radius                                                         
   POMASS =   72.610; ZVAL   =    4.000    mass and valenz                                          
   RCORE  =    2.300    outmost cutoff radius                                                       
   RWIGS  =    2.300; RWIGS  =    1.217    wigner-seitz radius (au A)                               
   ENMAX  =  173.807; ENMIN  =  130.355 eV                                                          
   ICORE  =        3    local potential                                                             
   LCOR   =        T    correct aug charges                                                         
   LPAW   =        T    paw PP                                                                      
   EAUG   =  385.843                                                                                
   DEXC   =    0.000                                                                                
   RMAX   =    2.342    core radius for proj-oper                                                   
   RAUG   =    1.300    factor for augmentation sphere                                              
   RDEP   =    2.318    radius for radial grids                                                     
   RDEPT  =    2.103    core radius for aug-charge                                                  
                                                                                                    
   Atomic configuration                                                                             
   10 entries                                                                                       
     n  l   j            E        occ.                                                              
     1  0  0.50    -10959.8463   2.0000                                                             
     2  0  0.50     -1371.6056   2.0000                                                             
     2  1  1.50     -1198.4791   6.0000                                                             
     3  0  0.50      -168.4733   2.0000                                                             
     3  1  1.50      -115.6019   6.0000                                                             
     3  2  2.50       -29.3106  10.0000                                                             
     4  0  0.50       -11.7309   2.0000                                                             
     4  1  0.50        -3.8952   2.0000                                                             
     4  2  1.50        -4.0817   0.0000                                                             
     4  3  2.50        -4.0817   0.0000                                                             
   Description                                                                                      
     l       E           TYP  RCUT    TYP  RCUT                                                     
     0    -11.7309493     23  2.300                                                                 
     0     -7.4578696     23  2.300                                                                 
     1     -3.8952261     23  2.300                                                                 
     1      6.1178114     23  2.300                                                                 
     2     -4.0817478     23  2.300                                                                 
     3     -1.3605826      7  2.300                                                                 
  local pseudopotential read in
  partial core-charges read in
  partial kinetic energy density read in
  atomic valenz-charges read in
  non local Contribution for L=            0  read in
    real space projection operators read in
  non local Contribution for L=            0  read in
    real space projection operators read in
  non local Contribution for L=            1  read in
    real space projection operators read in
  non local Contribution for L=            1  read in
    real space projection operators read in
  non local Contribution for L=            2  read in
    real space projection operators read in
    PAW grid and wavefunctions read in
 
   number of l-projection  operators is LMAX  =            5
   number of lm-projection operators is LMMAX =           13
 
 POTCAR:    PAW_PBE Se 06Sep2000                  
   VRHFIN =Se: s2p4                                                                                 
   LEXCH  = PE                                                                                      
   EATOM  =   257.1286 eV,   18.8984 Ry                                                             
                                                                                                    
   TITEL  = PAW_PBE Se 06Sep2000                                                                    
   LULTRA =        F    use ultrasoft PP ?                                                          
   IUNSCR =        1    unscreen: 0-lin 1-nonlin 2-no                                               
   RPACOR =    1.900    partial core radius                                                         
   POMASS =   78.960; ZVAL   =    6.000    mass and valenz                                          
   RCORE  =    2.100    outmost cutoff radius                                                       
   RWIGS  =    2.200; RWIGS  =    1.164    wigner-seitz radius (au A)                               
   ENMAX  =  211.555; ENMIN  =  158.666 eV                                                          
   ICORE  =        3    local potential                                                             
   LCOR   =        T    correct aug charges                                                         
   LPAW   =        T    paw PP                                                                      
   EAUG   =  446.842                                                                                
   DEXC   =    0.000                                                                                
   RMAX   =    2.147    core radius for proj-oper                                                   
   RAUG   =    1.300    factor for augmentation sphere                                              
   RDEP   =    2.177    radius for radial grids                                                     
   RDEPT  =    1.928    core radius for aug-charge                                                  
                                                                                                    
   Atomic configuration                                                                             
   10 entries                                                                                       
     n  l   j            E        occ.                                                              
     1  0  0.50    -12503.4787   2.0000                                                             
     2  0  0.50     -1606.9547   2.0000                                                             
     2  1  1.50     -1413.3140   6.0000                                                             
     3  0  0.50      -213.4885   2.0000                                                             
     3  1  1.50      -152.9538   6.0000                                                             
     3  2  2.50       -53.1221  10.0000                                                             
     4  0  0.50       -17.2865   2.0000                                                             
     4  1  0.50        -6.5110   4.0000                                                             
     4  2  2.50        -6.8029   0.0000                                                             
     4  3  2.50        -6.8029   0.0000                                                             
   Description                                                                                      
     l       E           TYP  RCUT    TYP  RCUT                                                     
     0    -17.2865377     23  2.100                                                                 
     0    -15.3094411     23  2.100                                                                 
     1     -6.5110275     23  2.100                                                                 
     1     -0.0695192     23  2.100                                                                 
     2     -6.8029130     23  2.100                                                                 
     3     -1.3605826      7  2.100                                                                 
  local pseudopotential read in
  partial core-charges read in
  partial kinetic energy density read in
  atomic valenz-charges read in
  non local Contribution for L=            0  read in
    real space projection operators read in
  non local Contribution for L=            0  read in
    real space projection operators read in
  non local Contribution for L=            1  read in
    real space projection operators read in
  non local Contribution for L=            1  read in
    real space projection operators read in
  non local Contribution for L=            2  read in
    real space projection operators read in
    PAW grid and wavefunctions read in
 
   number of l-projection  operators is LMAX  =            5
   number of lm-projection operators is LMMAX =           13
 
 -----------------------------------------------------------------------------
|                                                                             |
|               ----> ADVICE to this user running VASP <----                  |
|                                                                             |
|     You have a (more or less) 'large supercell' and for larger cells it     |
|     might be more efficient to use real-space projection operators.         |
|     Therefore, try LREAL= Auto in the INCAR file.                           |
|     Mind: For very accurate calculation, you might also keep the            |
|     reciprocal projection scheme (i.e. LREAL=.FALSE.).                      |
|                                                                             |
 -----------------------------------------------------------------------------

  PAW_PBE Ge 05Jan2001                  :
 energy of atom  1       EATOM= -104.9960
 kinetic energy error for atom=    0.0002 (will be added to EATOM!!)
  PAW_PBE Se 06Sep2000                  :
 energy of atom  2       EATOM= -257.1286
 kinetic energy error for atom=    0.0007 (will be added to EATOM!!)
 
 
 POSCAR: Ge Se
  positions in cartesian coordinates
  No initial velocities read in
 exchange correlation table for  LEXCH =        8
   RHO(1)=    0.500       N(1)  =     2000
   RHO(2)=  100.500       N(2)  =     4000
 


--------------------------------------------------------------------------------------------------------


 ion  position               nearest neighbor table
   1  0.077  0.043  0.131-  45 2.50  55 2.53  54 2.72
   2  0.238  0.874  0.355-  67 2.57  48 2.63  45 2.74
   3  0.575  0.193  0.390-  68 2.62  56 2.67  49 2.72
   4  0.584  0.526  0.369-  72 2.59  69 2.63  50 2.63
   5  0.571  0.886  0.378-  70 2.52  48 2.61  44 2.64
   6  0.913  0.205  0.373-  46 2.63  55 2.64  56 2.67
   7  0.888  0.518  0.377-  71 2.53  72 2.78  47 2.85
   8  0.914  0.874  0.366-  44 2.48  53 2.54  45 2.65
   9  0.062  0.152  0.637-  57 2.57  37 2.69  51 2.81  43 2.83
  10  0.068  0.477  0.628-  58 2.53  38 2.59  43 2.76
  11  0.073  0.815  0.618-  59 2.63  52 2.69  39 2.73
  12  0.382  0.155  0.636-  51 2.57  60 2.60  40 2.75
  13  0.401  0.491  0.645-  61 2.42  38 2.65
  14  0.395  0.827  0.646-  62 2.41  39 2.66
  15  0.747  0.132  0.641-  63 2.54  37 2.71  40 2.72
  16  0.730  0.483  0.627-  64 2.45  41 2.62
  17  0.240  0.538  0.365-  66 2.57  47 2.66  50 2.78
  18  0.266  0.204  0.376-  49 2.53  54 2.54  46 2.82
  19  0.741  0.806  0.625-  42 2.49  52 2.68  65 2.76
  20  0.900  0.652  0.866-  52 2.49  64 2.57  58 2.59
  21  0.909  0.993  0.871-  37 2.48  65 2.66  59 2.70
  22  0.083  0.369  0.133-  46 2.51  71 2.66  66 2.66
  23  0.074  0.682  0.139-  47 2.62  53 2.84  67 2.85
  24  0.423  0.034  0.120-  68 2.52  48 2.54  54 2.82
  25  0.419  0.366  0.131-  49 2.53  69 2.73  66 2.82
  26  0.739  0.028  0.137-  44 2.53  68 2.71  55 2.77
  27  0.737  0.360  0.123-  56 2.58  69 2.61  71 2.70
  28  0.414  0.688  0.151-  67 2.63  70 2.64  50 2.68
  29  0.245  0.311  0.878-  57 2.63  60 2.65  38 2.66
  30  0.226  0.652  0.875-  39 2.55  61 2.81  58 2.82
  31  0.241  0.956  0.879-  62 2.55  51 2.61  59 2.61
  32  0.574  0.312  0.866-  41 2.53  63 2.59  60 2.69
  33  0.569  0.642  0.868-  42 2.60  61 2.68  64 2.79
  34  0.586  0.996  0.866-  40 2.54  65 2.58
  35  0.920  0.321  0.866-  57 2.54  43 2.56
  36  0.740  0.709  0.110-  70 2.58  53 2.67  72 2.71
  37  0.915  0.994  0.646-  21 2.48   9 2.69  15 2.71
  38  0.236  0.357  0.643-  10 2.59  13 2.65  29 2.66
  39  0.242  0.678  0.648-  30 2.55  14 2.66  11 2.73
  40  0.558  0.023  0.641-  34 2.54  15 2.72  12 2.75
  41  0.580  0.336  0.639-  32 2.53  16 2.62
  42  0.579  0.689  0.639-  19 2.49  33 2.60
  43  0.912  0.321  0.634-  35 2.56  10 2.76   9 2.83
  44  0.754  0.992  0.362-   8 2.48  26 2.53   5 2.64
  45  0.071  0.017  0.354-   1 2.50   8 2.65   2 2.74
  46  0.081  0.332  0.356-  22 2.51   6 2.63  18 2.82
  47  0.066  0.661  0.375-  23 2.62  17 2.66   7 2.85
  48  0.402  0.007  0.347-  24 2.54   5 2.61   2 2.63
  49  0.416  0.340  0.357-  25 2.53  18 2.53   3 2.72
  50  0.424  0.662  0.391-   4 2.63  28 2.68  17 2.78
  51  0.237  0.010  0.651-  12 2.57  31 2.61   9 2.81
  52  0.911  0.674  0.643-  20 2.49  19 2.68  11 2.69
  53  0.909  0.838  0.140-   8 2.54  36 2.67  23 2.84
  54  0.249  0.176  0.149-  18 2.54   1 2.72  24 2.82
  55  0.915  0.163  0.139-   1 2.53   6 2.64  26 2.77
  56  0.738  0.328  0.353-  27 2.58   3 2.67   6 2.67
  57  0.074  0.188  0.865-  35 2.54   9 2.57  29 2.63
  58  0.050  0.510  0.853-  10 2.53  20 2.59  30 2.82
  59  0.066  0.845  0.853-  31 2.61  11 2.63  21 2.70
  60  0.408  0.175  0.868-  12 2.60  29 2.65  32 2.69
  61  0.400  0.509  0.863-  13 2.42  33 2.68  30 2.81
  62  0.397  0.824  0.864-  14 2.41  31 2.55
  63  0.730  0.175  0.864-  15 2.54  32 2.59
  64  0.749  0.512  0.845-  16 2.45  20 2.57  33 2.79
  65  0.742  0.860  0.867-  34 2.58  21 2.66  19 2.76
  66  0.244  0.509  0.136-  17 2.57  22 2.66  25 2.82
  67  0.253  0.823  0.131-   2 2.57  28 2.63  23 2.85
  68  0.572  0.166  0.155-  24 2.52   3 2.62  26 2.71
  69  0.587  0.506  0.132-  27 2.61   4 2.63  25 2.73
  70  0.574  0.826  0.160-   5 2.52  36 2.58  28 2.64
  71  0.908  0.490  0.152-   7 2.53  22 2.66  27 2.70
  72  0.730  0.673  0.351-   4 2.59  36 2.71   7 2.78
 

IMPORTANT INFORMATION: All symmetrisations will be switched off!
NOSYMM: (Re-)initialisation of all symmetry stuff for point group C_1.


----------------------------------------------------------------------------------------

                                     Primitive cell                                     

  volume of cell :    1722.4037

  direct lattice vectors                    reciprocal lattice vectors
    12.451273639 -0.000001109 -0.000000525     0.080313069  0.000000007  0.000000004
    -0.000001113 12.501862624 -0.000002672     0.000000007  0.079988081  0.000000022
    -0.000000601 -0.000003044 11.064873531     0.000000004  0.000000019  0.090376089

  length of vectors
    12.451273639 12.501862624 11.064873531     0.080313069  0.079988081  0.090376089

  position of ions in fractional coordinates (direct lattice)
     0.077111026  0.042564857  0.130708012
     0.237739982  0.874410153  0.355329508
     0.575107720  0.193208142  0.389518645
     0.584273987  0.526128194  0.368527373
     0.570962175  0.886117800  0.378045342
     0.912508194  0.205220675  0.372738242
     0.887705691  0.517587077  0.377233540
     0.913563100  0.873545192  0.366289268
     0.061918320  0.151604367  0.636689224
     0.067907749  0.477280243  0.628128278
     0.073001399  0.814820194  0.617702648
     0.381689829  0.155321841  0.635803957
     0.400995944  0.491311652  0.645158496
     0.394870968  0.826646046  0.645837568
     0.746959343  0.131971637  0.640948960
     0.729852988  0.483056728  0.626619734
     0.240189998  0.537898358  0.365492588
     0.266486662  0.204142755  0.375990072
     0.740949512  0.805758178  0.624661319
     0.899601030  0.652270778  0.866395674
     0.908837193  0.993262712  0.870700647
     0.083405764  0.368676559  0.133069706
     0.073997947  0.681582907  0.139193553
     0.422624306  0.033631470  0.120489341
     0.419028956  0.365769588  0.131000745
     0.738784951  0.027709022  0.137415192
     0.736908170  0.360087545  0.122912572
     0.413956160  0.687630461  0.151050720
     0.244867981  0.311207836  0.878018958
     0.225683244  0.651509422  0.875125070
     0.241496968  0.956447625  0.878620614
     0.574133436  0.312298112  0.866469998
     0.568647600  0.642126506  0.868329352
     0.586376881  0.996326877  0.865511679
     0.920270430  0.321241421  0.865529494
     0.739830584  0.709324135  0.109607806
     0.914955783  0.994332729  0.646462235
     0.236132907  0.356648969  0.643001963
     0.242001355  0.677792340  0.647545821
     0.557909845  0.022863541  0.640647965
     0.580344871  0.335877391  0.639451678
     0.579249859  0.689108985  0.639463754
     0.911745573  0.321041762  0.634038119
     0.753654910  0.992131020  0.362242245
     0.070540379  0.016546825  0.354432445
     0.080577497  0.331897403  0.355834180
     0.065687080  0.660732487  0.374975988
     0.402008091  0.006796828  0.346878267
     0.416346560  0.339982125  0.357403082
     0.424148701  0.661768958  0.391487498
     0.236678726  0.009670938  0.650640815
     0.910752581  0.674480827  0.643032461
     0.908726705  0.838388431  0.140482846
     0.248756411  0.175835249  0.149496202
     0.914531656  0.163311715  0.138811899
     0.737930667  0.328308940  0.353270716
     0.074114062  0.187877157  0.865054172
     0.050224020  0.510154074  0.852857816
     0.065526125  0.844906864  0.853107146
     0.407874655  0.174909211  0.867768106
     0.399828004  0.508790505  0.863297694
     0.396651795  0.823706176  0.863535436
     0.730051843  0.175491511  0.864428973
     0.749435577  0.512045303  0.844538475
     0.742274295  0.859915760  0.866643530
     0.243915468  0.509307938  0.135733715
     0.253451689  0.823127267  0.131024352
     0.572258710  0.166113081  0.154998141
     0.586655466  0.505905314  0.132057437
     0.574431499  0.825726237  0.160495714
     0.908278648  0.489512707  0.151900568
     0.730104138  0.673248394  0.350995307

  ion indices of the primitive-cell ions
   primitive index   ion index
                 1           1
                 2           2
                 3           3
                 4           4
                 5           5
                 6           6
                 7           7
                 8           8
                 9           9
                10          10
                11          11
                12          12
                13          13
                14          14
                15          15
                16          16
                17          17
                18          18
                19          19
                20          20
                21          21
                22          22
                23          23
                24          24
                25          25
                26          26
                27          27
                28          28
                29          29
                30          30
                31          31
                32          32
                33          33
                34          34
                35          35
                36          36
                37          37
                38          38
                39          39
                40          40
                41          41
                42          42
                43          43
                44          44
                45          45
                46          46
                47          47
                48          48
                49          49
                50          50
                51          51
                52          52
                53          53
                54          54
                55          55
                56          56
                57          57
                58          58
                59          59
                60          60
                61          61
                62          62
                63          63
                64          64
                65          65
                66          66
                67          67
                68          68
                69          69
                70          70
                71          71
                72          72

----------------------------------------------------------------------------------------

 
 
 KPOINTS: KPOINTS created by Atomic Simulation Env

Automatic generation of k-mesh.
 Grid dimensions read from file:
 generate k-points for:    2    2    2

 Generating k-lattice:

  Cartesian coordinates                     Fractional coordinates (reciprocal lattice)
     0.040156535  0.000000004  0.000000002     0.500000000  0.000000000  0.000000000
     0.000000004  0.039994040  0.000000011    -0.000000000  0.500000000  0.000000000
     0.000000002  0.000000010  0.045188045    -0.000000000  0.000000000  0.500000000

  Length of vectors
     0.040156535  0.039994040  0.045188045

  Shift w.r.t. Gamma in fractional coordinates (k-lattice)
     0.000000000  0.000000000  0.000000000

 
 Subroutine IBZKPT returns following result:
 ===========================================
 
 Found      8 irreducible k-points:
 
 Following reciprocal coordinates:
            Coordinates               Weight
  0.000000  0.000000  0.000000      1.000000
  0.500000  0.000000  0.000000      1.000000
  0.000000  0.500000  0.000000      1.000000
  0.500000  0.500000  0.000000      1.000000
  0.000000  0.000000  0.500000      1.000000
  0.500000  0.000000  0.500000      1.000000
  0.000000  0.500000  0.500000      1.000000
  0.500000  0.500000  0.500000      1.000000
 
 Following cartesian coordinates:
            Coordinates               Weight
  0.000000  0.000000  0.000000      1.000000
  0.040157  0.000000  0.000000      1.000000
  0.000000  0.039994  0.000000      1.000000
  0.040157  0.039994  0.000000      1.000000
  0.000000  0.000000  0.045188      1.000000
  0.040157  0.000000  0.045188      1.000000
  0.000000  0.039994  0.045188      1.000000
  0.040157  0.039994  0.045188      1.000000
 
 -----------------------------------------------------------------------------
|                                                                             |
|           W    W    AA    RRRRR   N    N  II  N    N   GGGG   !!!           |
|           W    W   A  A   R    R  NN   N  II  NN   N  G    G  !!!           |
|           W    W  A    A  R    R  N N  N  II  N N  N  G       !!!           |
|           W WW W  AAAAAA  RRRRR   N  N N  II  N  N N  G  GGG   !            |
|           WW  WW  A    A  R   R   N   NN  II  N   NN  G    G                |
|           W    W  A    A  R    R  N    N  II  N    N   GGGG   !!!           |
|                                                                             |
|     The number of bands has been changed from the values supplied in        |
|     the INCAR file. This is a result of running the parallel version.       |
|     The orbitals not found in the WAVECAR file will be initialized with     |
|     random numbers, which is usually adequate. For correlated               |
|     calculations, however, you should redo the groundstate calculation.     |
|     I found NBANDS = 220. Now, NBANDS = 224.                                |
|                                                                             |
 -----------------------------------------------------------------------------



--------------------------------------------------------------------------------------------------------




 Dimension of arrays:
   k-points           NKPTS =      8   k-points in BZ     NKDIM =      8   number of bands    NBANDS=    224
   number of dos      NEDOS =    301   number of ions     NIONS =     72
   non local maximal  LDIM  =      5   non local SUM 2l+1 LMDIM =     13
   total plane-waves  NPLWV = 774144
   max r-space proj   IRMAX =      1   max aug-charges    IRDMAX=  24625
   dimension x,y,z NGX =    96 NGY =   96 NGZ =   84
   dimension x,y,z NGXF=   192 NGYF=  192 NGZF=  168
   support grid    NGXF=   192 NGYF=  192 NGZF=  168
   ions per type =              36  36
   NGX,Y,Z   is equivalent  to a cutoff of  12.82, 12.77, 12.62 a.u.
   NGXF,Y,Z  is equivalent  to a cutoff of  25.64, 25.53, 25.24 a.u.

 SYSTEM =  01_AOPT                                 
 POSCAR =  Ge Se                                   

 Startparameter for this run:
   NWRITE =      2    write-flag & timer
   PREC   = accura    normal or accurate (medium, high low for compatibility)
   ISTART =      0    job   : 0-new  1-cont  2-samecut
   ICHARG =      2    charge: 1-file 2-atom 10-const
   ISPIN  =      2    spin polarized calculation?
   LNONCOLLINEAR =      F non collinear calculations
   LSORBIT =      F    spin-orbit coupling
   INIWAV =      1    electr: 0-lowe 1-rand  2-diag
   LASPH  =      T    aspherical Exc in radial PAW
 Electronic Relaxation 1
   ENCUT  =  520.0 eV  38.22 Ry    6.18 a.u.  23.15 23.25 20.57*2*pi/ulx,y,z
   ENINI  =  520.0     initial cutoff
   ENAUG  =  446.8 eV  augmentation charge cutoff
   NELM   =    100;   NELMIN=  5; NELMDL=  0     # of ELM steps 
   EDIFF  = 0.1E-05   stopping-criterion for ELM
   LREAL  =      F    real-space projection
   NLSPLINE    = F    spline interpolate recip. space projectors
   LCOMPAT=      F    compatible to vasp.4.4
   GGA_COMPAT  = T    GGA compatible to vasp.4.4-vasp.4.6
   LMAXPAW     = -100 max onsite density
   LMAXMIX     =    2 max onsite mixed and CHGCAR
   VOSKOWN=      0    Vosko Wilk Nusair interpolation
   ROPT   =    0.00000   0.00000
 Ionic relaxation
   EDIFFG = 0.1E-04   stopping-criterion for IOM
   NSW    =      0    number of steps for IOM
   NBLOCK =      1;   KBLOCK =      1    inner block; outer block 
   IBRION =     -1    ionic relax: 0-MD 1-quasi-New 2-CG
   NFREE  =      0    steps in history (QN), initial steepest desc. (CG)
   ISIF   =      2    stress and relaxation
   IWAVPR =     10    prediction:  0-non 1-charg 2-wave 3-comb
   ISYM   =     -1    0-nonsym 1-usesym 2-fastsym
   LCORR  =      T    Harris-Foulkes like correction to forces

   POTIM  = 0.5000    time-step for ionic-motion
   TEIN   =    0.0    initial temperature
   TEBEG  =    0.0;   TEEND  =   0.0 temperature during run
   SMASS  =  -3.00    Nose mass-parameter (am)
   estimated Nose-frequenzy (Omega)   =  0.10E-29 period in steps = 0.13E+47 mass=  -0.354E-26a.u.
   SCALEE = 1.0000    scale energy and forces
   NPACO  =    256;   APACO  = 10.0  distance and # of slots for P.C.
   PSTRESS=    0.0 pullay stress

  Mass of Ions in am
   POMASS =  72.61 78.96
  Ionic Valenz
   ZVAL   =   4.00  6.00
  Atomic Wigner-Seitz radii
   RWIGS  =  -1.00 -1.00
  virtual crystal weights 
   VCA    =   1.00  1.00
   NELECT =     360.0000    total number of electrons
   NUPDOWN=      -1.0000    fix difference up-down

 DOS related values:
   EMIN   =  10.00;   EMAX   =-10.00  energy-range for DOS
   EFERMI =   0.00;   METHOD = LEGACY      
   ISMEAR =     0;   SIGMA  =   0.05  broadening in eV -4-tet -1-fermi 0-gaus

 Electronic relaxation 2 (details)
   IALGO  =     38    algorithm
   LDIAG  =      T    sub-space diagonalisation (order eigenvalues)
   LSUBROT=      F    optimize rotation matrix (better conditioning)
   TURBO    =      0    0=normal 1=particle mesh
   IRESTART =      0    0=no restart 2=restart with 2 vectors
   NREBOOT  =      0    no. of reboots
   NMIN     =      0    reboot dimension
   EREF     =   0.00    reference energy to select bands
   IMIX   =      4    mixing-type and parameters
     AMIX     =   0.40;   BMIX     =  1.00
     AMIX_MAG =   1.60;   BMIX_MAG =  1.00
     AMIN     =   0.10
     WC   =   100.;   INIMIX=   1;  MIXPRE=   1;  MAXMIX= -45

 Intra band minimization:
   WEIMIN = 0.0000     energy-eigenvalue tresh-hold
   EBREAK =  0.11E-08  absolut break condition
   DEPER  =   0.30     relativ break condition  

   TIME   =   0.40     timestep for ELM

  volume/ion in A,a.u.               =      23.92       161.44
  Fermi-wavevector in a.u.,A,eV,Ry     =   0.971547  1.835958 12.842599  0.943904
  Thomas-Fermi vector in A             =   2.101773
 
 Write flags
   LWAVE        =      F    write WAVECAR
   LDOWNSAMPLE  =      F    k-point downsampling of WAVECAR
   LCHARG       =      F    write CHGCAR
   LVTOT        =      F    write LOCPOT, total local potential
   LVHAR        =      F    write LOCPOT, Hartree potential only
   LELF         =      F    write electronic localiz. function (ELF)
   LORBIT       =     11    0 simple, 1 ext, 2 COOP (PROOUT), +10 PAW based schemes


 Dipole corrections
   LMONO  =      F    monopole corrections only (constant potential shift)
   LDIPOL =      F    correct potential (dipole corrections)
   IDIPOL =      0    1-x, 2-y, 3-z, 4-all directions 
   EPSILON=  1.0000000 bulk dielectric constant

 Exchange correlation treatment:
   GGA     =    PE    GGA type
   LEXCH   =     8    internal setting for exchange type
   LIBXC   =     F    Libxc                    
   VOSKOWN =     0    Vosko Wilk Nusair interpolation
   LHFCALC =     F    Hartree Fock is set to
   LHFONE  =     F    Hartree Fock one center treatment
   AEXX    =    0.0000 exact exchange contribution

 Linear response parameters
   LEPSILON=     F    determine dielectric tensor
   LRPA    =     F    only Hartree local field effects (RPA)
   LNABLA  =     F    use nabla operator in PAW spheres
   LVEL    =     F    velocity operator in full k-point grid
   CSHIFT  =0.1000    complex shift for real part using Kramers Kronig
   OMEGAMAX=  -1.0    maximum frequency
   DEG_THRESHOLD= 0.2000000E-02 threshold for treating states as degnerate
   RTIME   =   -0.100 relaxation time in fs
  (WPLASMAI=    0.000 imaginary part of plasma frequency in eV, 0.658/RTIME)
   DFIELD  = 0.0000000 0.0000000 0.0000000 field for delta impulse in time
 
  Optional k-point grid parameters
   LKPOINTS_OPT  =     F    use optional k-point grid
   KPOINTS_OPT_MODE=     1    mode for optional k-point grid
 
 Orbital magnetization related:
   ORBITALMAG=     F  switch on orbital magnetization
   LCHIMAG   =     F  perturbation theory with respect to B field
   DQ        =  0.001000  dq finite difference perturbation B field
   LLRAUG    =     F  two centre corrections for induced B field
   LBONE     =     F  B-component reconstruction in AE one-centre
   LVGVCALC  =     T  calculate vGv susceptibility
   LVGVAPPL  =     F  apply vGv susceptibility instead of pGv for G=0

 Random number generation:
   RANDOM_GENERATOR = DEFAULT
   PCG_SEED         = not used


--------------------------------------------------------------------------------------------------------


 Static calculation
 charge density and potential will be updated during run
 spin polarized calculation
 Variant of blocked Davidson
 Davidson routine will perform the subspace rotation
 perform sub-space diagonalisation
    after iterative eigenvector-optimisation
 modified Broyden-mixing scheme, WC =      100.0
 initial mixing is a Kerker type mixing with AMIX =  0.4000 and BMIX =      1.0000
 Hartree-type preconditioning will be used
 using additional bands            44
 reciprocal scheme for non local part
 use partial core corrections
 calculate Harris-corrections to forces 
   (improved forces if not selfconsistent)
 use gradient corrections 
 use of overlap-Matrix (Vanderbilt PP)
 Gauss-broadening in eV      SIGMA  =   0.05


--------------------------------------------------------------------------------------------------------


  energy-cutoff  :      520.00
  volume of cell :     1722.40
      direct lattice vectors                 reciprocal lattice vectors
    12.451273639 -0.000001109 -0.000000525     0.080313069  0.000000007  0.000000004
    -0.000001113 12.501862624 -0.000002672     0.000000007  0.079988081  0.000000022
    -0.000000601 -0.000003044 11.064873531     0.000000004  0.000000019  0.090376089

  length of vectors
    12.451273639 12.501862624 11.064873531     0.080313069  0.079988081  0.090376089


 
 k-points in units of 2pi/SCALE and weight: KPOINTS created by Atomic Simulation Env
   0.00000000  0.00000000  0.00000000       0.125
   0.04015653  0.00000000  0.00000000       0.125
   0.00000000  0.03999404  0.00000001       0.125
   0.04015654  0.03999404  0.00000001       0.125
   0.00000000  0.00000001  0.04518804       0.125
   0.04015654  0.00000001  0.04518805       0.125
   0.00000001  0.03999405  0.04518806       0.125
   0.04015654  0.03999405  0.04518806       0.125
 
 k-points in reciprocal lattice and weights: KPOINTS created by Atomic Simulation Env
   0.00000000  0.00000000  0.00000000       0.125
   0.50000000  0.00000000  0.00000000       0.125
   0.00000000  0.50000000  0.00000000       0.125
   0.50000000  0.50000000  0.00000000       0.125
   0.00000000  0.00000000  0.50000000       0.125
   0.50000000  0.00000000  0.50000000       0.125
   0.00000000  0.50000000  0.50000000       0.125
   0.50000000  0.50000000  0.50000000       0.125
 
 position of ions in fractional coordinates (direct lattice) 
   0.07711103  0.04256486  0.13070801
   0.23773998  0.87441015  0.35532951
   0.57510772  0.19320814  0.38951864
   0.58427399  0.52612819  0.36852737
   0.57096218  0.88611780  0.37804534
   0.91250819  0.20522068  0.37273824
   0.88770569  0.51758708  0.37723354
   0.91356310  0.87354519  0.36628927
   0.06191832  0.15160437  0.63668922
   0.06790775  0.47728024  0.62812828
   0.07300140  0.81482019  0.61770265
   0.38168983  0.15532184  0.63580396
   0.40099594  0.49131165  0.64515850
   0.39487097  0.82664605  0.64583757
   0.74695934  0.13197164  0.64094896
   0.72985299  0.48305673  0.62661973
   0.24019000  0.53789836  0.36549259
   0.26648666  0.20414276  0.37599007
   0.74094951  0.80575818  0.62466132
   0.89960103  0.65227078  0.86639567
   0.90883719  0.99326271  0.87070065
   0.08340576  0.36867656  0.13306971
   0.07399795  0.68158291  0.13919355
   0.42262431  0.03363147  0.12048934
   0.41902896  0.36576959  0.13100074
   0.73878495  0.02770902  0.13741519
   0.73690817  0.36008754  0.12291257
   0.41395616  0.68763046  0.15105072
   0.24486798  0.31120784  0.87801896
   0.22568324  0.65150942  0.87512507
   0.24149697  0.95644762  0.87862061
   0.57413344  0.31229811  0.86647000
   0.56864760  0.64212651  0.86832935
   0.58637688  0.99632688  0.86551168
   0.92027043  0.32124142  0.86552949
   0.73983058  0.70932413  0.10960781
   0.91495578  0.99433273  0.64646224
   0.23613291  0.35664897  0.64300196
   0.24200136  0.67779234  0.64754582
   0.55790984  0.02286354  0.64064797
   0.58034487  0.33587739  0.63945168
   0.57924986  0.68910899  0.63946375
   0.91174557  0.32104176  0.63403812
   0.75365491  0.99213102  0.36224224
   0.07054038  0.01654683  0.35443245
   0.08057750  0.33189740  0.35583418
   0.06568708  0.66073249  0.37497599
   0.40200809  0.00679683  0.34687827
   0.41634656  0.33998213  0.35740308
   0.42414870  0.66176896  0.39148750
   0.23667873  0.00967094  0.65064082
   0.91075258  0.67448083  0.64303246
   0.90872671  0.83838843  0.14048285
   0.24875641  0.17583525  0.14949620
   0.91453166  0.16331172  0.13881190
   0.73793067  0.32830894  0.35327072
   0.07411406  0.18787716  0.86505417
   0.05022402  0.51015407  0.85285782
   0.06552612  0.84490686  0.85310715
   0.40787465  0.17490921  0.86776811
   0.39982800  0.50879051  0.86329769
   0.39665179  0.82370618  0.86353544
   0.73005184  0.17549151  0.86442897
   0.74943558  0.51204530  0.84453848
   0.74227430  0.85991576  0.86664353
   0.24391547  0.50930794  0.13573371
   0.25345169  0.82312727  0.13102435
   0.57225871  0.16611308  0.15499814
   0.58665547  0.50590531  0.13205744
   0.57443150  0.82572624  0.16049571
   0.90827865  0.48951271  0.15190057
   0.73010414  0.67324839  0.35099531
 
 position of ions in cartesian coordinates  (Angst):
   0.96013036  0.53213951  1.44626747
   2.96016439 10.93175427  3.93167360
   7.16082314  2.41545983  4.30997373
   7.27495449  6.57758063  4.07770706
   7.10920507 11.07812122  4.18302123
  11.36188877  2.56563854  4.12430048
  11.05306567  6.47080040  4.17403957
  11.37502295 10.92093985  4.05294161
   0.77096140  1.89533496  7.04488531
   0.84553705  5.96689004  6.95015864
   0.90895912 10.18676816  6.83479947
   4.75252396  1.94180996  7.03508976
   4.99290930  6.14230838  7.13859564
   4.91664517 10.33461290  7.14610859
   9.30059465  1.64988849  7.09201843
   9.08759836  6.03910614  6.93346644
   2.99067057  6.72473000  4.04412770
   3.31809790  2.55216324  4.16028190
   9.22576386 10.07347533  6.91179596
  11.20117734  8.15459602  9.58655634
  11.31617895 12.41763032  9.63418941
   1.03850750  4.60914320  1.47239844
   0.92136785  8.52105537  1.54015720
   5.26221077  0.42045518  1.33319901
   5.21744370  4.57280027  1.44950548
   9.19881348  0.34641315  1.52048126
   9.17544480  4.50176383  1.36001071
   5.15428057  8.59666064  1.67135506
   3.04891737  3.89067467  9.71516777
   2.81004257  8.14507837  9.68314636
   3.00694324 11.95737387  9.72182329
   7.14869165  3.90430482  9.58737981
   7.08038563  8.02777409  9.60795245
   7.30113737 12.45593846  9.57677429
  11.45853806  4.01611246  9.57697305
   9.21183219  8.86787173  1.21279423
  11.39236332 12.43100819  7.15301974
   2.94015465  4.45877419  7.11473432
   3.01322395  8.47366448  7.16501067
   6.94668773  0.28583428  7.08868836
   7.22603204  4.19909042  7.07545075
   7.21239734  8.61514328  7.07558343
  11.35239288  4.01361706  7.01555026
   9.38396219 12.40348378  4.00816158
   0.87831733  0.20686498  3.92175010
   1.00329188  4.14933456  3.93725927
   0.81788684  8.26038557  4.14906008
   5.00551253  0.08497151  3.83816392
   5.18404436  4.25040827  3.95461878
   5.28119056  8.27334294  4.33175767
   2.94695118  0.12090249  7.19925818
  11.34002847  8.43226368  7.11507058
  11.31480385 10.48141555  1.55442220
   3.09733386  2.19826739  1.65415597
  11.38708363  2.04169919  1.53593519
   9.18817609  4.10447137  3.90889453
   0.92281373  2.34881169  9.57171447
   0.62535194  6.37787350  9.43676249
   0.81588225 10.56290688  9.43952038
   5.07855822  2.18668783  9.60174366
   4.97836680  6.36082593  9.55227823
   4.93881860 10.29785839  9.55490798
   9.09007455  2.19396732  9.56479641
   9.33142636  6.40151664  9.34470966
   9.24225889 10.75054524  9.58929837
   3.03705759  6.36729719  1.50187490
   3.15579534 10.29062333  1.44976555
   7.12534951  2.07672181  1.71503408
   7.30460710  6.32475769  1.46119718
   7.15240276 10.32311486  1.77586227
  11.30922535  6.11981915  1.68075879
   9.09072545  8.41685705  3.88371650
 


--------------------------------------------------------------------------------------------------------


 k-point   1 :   0.0000 0.0000 0.0000  plane waves:   46353
 k-point   2 :   0.5000 0.0000 0.0000  plane waves:   46382
 k-point   3 :   0.0000 0.5000 0.0000  plane waves:   46374
 k-point   4 :   0.5000 0.5000 0.0000  plane waves:   46476
 k-point   5 :   0.0000 0.0000 0.5000  plane waves:   46386
 k-point   6 :   0.5000 0.0000 0.5000  plane waves:   46372
 k-point   7 :   0.0000 0.5000 0.5000  plane waves:   46400
 k-point   8 :   0.5000 0.5000 0.5000  plane waves:   46392

 maximum and minimum number of plane-waves per node :      5868     5753

 maximum number of plane-waves:     46476
 maximum index in each direction: 
   IXMAX=   23   IYMAX=   23   IZMAX=   20
   IXMIN=  -23   IYMIN=  -23   IZMIN=  -21


 parallel 3D FFT for wavefunctions:
    minimum data exchange during FFTs selected (reduces bandwidth)
 parallel 3D FFT for charge:
    minimum data exchange during FFTs selected (reduces bandwidth)


 total amount of memory used by VASP MPI-rank0   110684. kBytes
=======================================================================

   base      :      30000. kBytes
   nonl-proj :      16332. kBytes
   fftplans  :       6179. kBytes
   grid      :      15593. kBytes
   one-center:        146. kBytes
   wavefun   :      42434. kBytes
 
     INWAV:  cpu time      0.0000: real time      0.0001
 Broyden mixing: mesh for mixing (old mesh)
   NGX = 47   NGY = 47   NGZ = 41
  (NGX  =192   NGY  =192   NGZ  =168)
  gives a total of  90569 points

 initial charge density was supplied:
 charge density of overlapping atoms calculated
 number of electron     360.0000000 magnetization      72.0000000
 keeping initial charge density in first step


--------------------------------------------------------------------------------------------------------


 Maximum index for augmentation-charges           726 (set IRDMAX)


--------------------------------------------------------------------------------------------------------


 First call to EWALD:  gamma=   0.148
 Maximum number of real-space cells 3x 3x 3
 Maximum number of reciprocal cells 3x 3x 3

    FEWALD:  cpu time      0.0083: real time      0.0083


--------------------------------------- Ionic step        1  -------------------------------------------




--------------------------------------- Iteration      1(   1)  ---------------------------------------


    POTLOK:  cpu time      0.1404: real time      0.1413
    SETDIJ:  cpu time      0.6023: real time      0.6040
     EDDAV:  cpu time      8.6275: real time      8.6719
       DOS:  cpu time      0.0016: real time      0.0016
    --------------------------------------------
      LOOP:  cpu time      9.3719: real time      9.4187

 eigenvalue-minimisations  :  7168
 total energy-change (2. order) : 0.1813541E+04  (-0.1419483E+05)
 number of electron     360.0000000 magnetization      72.0000000
 augmentation part      360.0000000 magnetization      72.0000000

 Free energy of the ion-electron system (eV)
  ---------------------------------------------------
  alpha Z        PSCENC =       796.85155460
  Ewald energy   TEWEN  =    -12882.76133169
  -Hartree energ DENC   =     -1095.92664645
  -exchange      EXHF   =         0.00000000
  -V(xc)+E(xc)   XCENC  =      -294.11260540
  PAW double counting   =     10738.42099860    -9719.93139476
  entropy T*S    EENTRO =        -0.02149157
  eigenvalues    EBANDS =      1234.57043229
  atomic energy  EATOM  =     13036.45147835
  Solvation  Ediel_sol  =         0.00000000
  ---------------------------------------------------
  free energy    TOTEN  =      1813.54099396 eV

  energy without entropy =     1813.56248553  energy(sigma->0) =     1813.55173975


--------------------------------------------------------------------------------------------------------




--------------------------------------- Iteration      1(   2)  ---------------------------------------


     EDDAV:  cpu time      9.7561: real time      9.8050
       DOS:  cpu time      0.0015: real time      0.0015
    --------------------------------------------
      LOOP:  cpu time      9.7576: real time      9.8065

 eigenvalue-minimisations  :  8480
 total energy-change (2. order) :-0.1878506E+04  (-0.1803681E+04)
 number of electron     360.0000000 magnetization      72.0000000
 augmentation part      360.0000000 magnetization      72.0000000

 Free energy of the ion-electron system (eV)
  ---------------------------------------------------
  alpha Z        PSCENC =       796.85155460
  Ewald energy   TEWEN  =    -12882.76133169
  -Hartree energ DENC   =     -1095.92664645
  -exchange      EXHF   =         0.00000000
  -V(xc)+E(xc)   XCENC  =      -294.11260540
  PAW double counting   =     10738.42099860    -9719.93139476
  entropy T*S    EENTRO =        -0.01598356
  eigenvalues    EBANDS =      -643.94119986
  atomic energy  EATOM  =     13036.45147835
  Solvation  Ediel_sol  =         0.00000000
  ---------------------------------------------------
  free energy    TOTEN  =       -64.96513017 eV

  energy without entropy =      -64.94914661  energy(sigma->0) =      -64.95713839


--------------------------------------------------------------------------------------------------------




--------------------------------------- Iteration      1(   3)  ---------------------------------------


     EDDAV:  cpu time      9.8072: real time      9.8616
       DOS:  cpu time      0.0020: real time      0.0020
    --------------------------------------------
      LOOP:  cpu time      9.8092: real time      9.8636

 eigenvalue-minimisations  :  8576
 total energy-change (2. order) :-0.2167719E+03  (-0.2107405E+03)
 number of electron     360.0000000 magnetization      72.0000000
 augmentation part      360.0000000 magnetization      72.0000000

 Free energy of the ion-electron system (eV)
  ---------------------------------------------------
  alpha Z        PSCENC =       796.85155460
  Ewald energy   TEWEN  =    -12882.76133169
  -Hartree energ DENC   =     -1095.92664645
  -exchange      EXHF   =         0.00000000
  -V(xc)+E(xc)   XCENC  =      -294.11260540
  PAW double counting   =     10738.42099860    -9719.93139476
  entropy T*S    EENTRO =        -0.00006199
  eigenvalues    EBANDS =      -860.72897845
  atomic energy  EATOM  =     13036.45147835
  Solvation  Ediel_sol  =         0.00000000
  ---------------------------------------------------
  free energy    TOTEN  =      -281.73698719 eV

  energy without entropy =     -281.73692520  energy(sigma->0) =     -281.73695620


--------------------------------------------------------------------------------------------------------




--------------------------------------- Iteration      1(   4)  ---------------------------------------


     EDDAV:  cpu time      9.9500: real time      9.9992
       DOS:  cpu time      0.0009: real time      0.0009
    --------------------------------------------
      LOOP:  cpu time      9.9508: real time     10.0001

 eigenvalue-minimisations  :  8744
 total energy-change (2. order) :-0.7914641E+01  (-0.7827952E+01)
 number of electron     360.0000000 magnetization      72.0000000
 augmentation part      360.0000000 magnetization      72.0000000

 Free energy of the ion-electron system (eV)
  ---------------------------------------------------
  alpha Z        PSCENC =       796.85155460
  Ewald energy   TEWEN  =    -12882.76133169
  -Hartree energ DENC   =     -1095.92664645
  -exchange      EXHF   =         0.00000000
  -V(xc)+E(xc)   XCENC  =      -294.11260540
  PAW double counting   =     10738.42099860    -9719.93139476
  entropy T*S    EENTRO =        -0.00000119
  eigenvalues    EBANDS =      -868.64368035
  atomic energy  EATOM  =     13036.45147835
  Solvation  Ediel_sol  =         0.00000000
  ---------------------------------------------------
  free energy    TOTEN  =      -289.65162829 eV

  energy without entropy =     -289.65162710  energy(sigma->0) =     -289.65162770


--------------------------------------------------------------------------------------------------------




--------------------------------------- Iteration      1(   5)  ---------------------------------------


     EDDAV:  cpu time     10.2322: real time     10.2859
       DOS:  cpu time      0.0012: real time      0.0012
    CHARGE:  cpu time      0.4191: real time      0.4207
    MIXING:  cpu time      0.0071: real time      0.0072
    --------------------------------------------
      LOOP:  cpu time     10.6595: real time     10.7150

 eigenvalue-minimisations  :  9080
 total energy-change (2. order) :-0.2864271E+00  (-0.2856568E+00)
 number of electron     359.9999990 magnetization      48.7696915
 augmentation part      -66.8609027 magnetization      48.9819590

 Broyden mixing:
  rms(total) = 0.29079E+01    rms(broyden)= 0.29079E+01
  rms(prec ) = 0.30639E+01
  weight for this iteration     100.00

 Free energy of the ion-electron system (eV)
  ---------------------------------------------------
  alpha Z        PSCENC =       796.85155460
  Ewald energy   TEWEN  =    -12882.76133169
  -Hartree energ DENC   =     -1095.92664645
  -exchange      EXHF   =         0.00000000
  -V(xc)+E(xc)   XCENC  =      -294.11260540
  PAW double counting   =     10738.42099860    -9719.93139476
  entropy T*S    EENTRO =        -0.00000088
  eigenvalues    EBANDS =      -868.93010780
  atomic energy  EATOM  =     13036.45147835
  Solvation  Ediel_sol  =         0.00000000
  ---------------------------------------------------
  free energy    TOTEN  =      -289.93805544 eV

  energy without entropy =     -289.93805456  energy(sigma->0) =     -289.93805500


--------------------------------------------------------------------------------------------------------




--------------------------------------- Iteration      1(   6)  ---------------------------------------


    POTLOK:  cpu time      0.1356: real time      0.1362
    SETDIJ:  cpu time      0.6056: real time      0.6079
     EDDAV:  cpu time      9.2781: real time      9.3248
       DOS:  cpu time      0.0010: real time      0.0010
    CHARGE:  cpu time      0.4201: real time      0.4217
    MIXING:  cpu time      0.0073: real time      0.0073
    --------------------------------------------
      LOOP:  cpu time     10.4476: real time     10.4990

 eigenvalue-minimisations  :  7928
 total energy-change (2. order) : 0.5282776E+00  (-0.2704275E+01)
 number of electron     359.9999990 magnetization      27.8896309
 augmentation part      -66.2457938 magnetization      29.0785326

 Broyden mixing:
  rms(total) = 0.17219E+01    rms(broyden)= 0.17219E+01
  rms(prec ) = 0.17583E+01
  weight for this iteration     100.00

 eigenvalues of (default mixing * dielectric matrix)
  average eigenvalue GAMMA=   1.0080
  1.0080

 Free energy of the ion-electron system (eV)
  ---------------------------------------------------
  alpha Z        PSCENC =       796.85155460
  Ewald energy   TEWEN  =    -12882.76133169
  -Hartree energ DENC   =     -1149.65549656
  -exchange      EXHF   =         0.00000000
  -V(xc)+E(xc)   XCENC  =      -287.65439826
  PAW double counting   =     12999.94004061   -11984.92495953
  entropy T*S    EENTRO =        -0.00000159
  eigenvalues    EBANDS =      -817.65666377
  atomic energy  EATOM  =     13036.45147835
  Solvation  Ediel_sol  =         0.00000000
  ---------------------------------------------------
  free energy    TOTEN  =      -289.40977785 eV

  energy without entropy =     -289.40977625  energy(sigma->0) =     -289.40977705


--------------------------------------------------------------------------------------------------------




--------------------------------------- Iteration      1(   7)  ---------------------------------------


    POTLOK:  cpu time      0.1297: real time      0.1306
    SETDIJ:  cpu time      0.6080: real time      0.6102
     EDDAV:  cpu time      9.4021: real time      9.4530
       DOS:  cpu time      0.0008: real time      0.0009
    CHARGE:  cpu time      0.4157: real time      0.4173
    MIXING:  cpu time      0.0076: real time      0.0077
    --------------------------------------------
      LOOP:  cpu time     10.5641: real time     10.6196

 eigenvalue-minimisations  :  8040
 total energy-change (2. order) :-0.7398622E+01  (-0.8417594E+00)
 number of electron     359.9999991 magnetization       9.1964040
 augmentation part      -66.2291665 magnetization       9.8769583

 Broyden mixing:
  rms(total) = 0.90512E+00    rms(broyden)= 0.90512E+00
  rms(prec ) = 0.92075E+00
  weight for this iteration     100.00

 eigenvalues of (default mixing * dielectric matrix)
  average eigenvalue GAMMA=   1.4503
  0.8634  2.0372

 Free energy of the ion-electron system (eV)
  ---------------------------------------------------
  alpha Z        PSCENC =       796.85155460
  Ewald energy   TEWEN  =    -12882.76133169
  -Hartree energ DENC   =     -1166.50168445
  -exchange      EXHF   =         0.00000000
  -V(xc)+E(xc)   XCENC  =      -290.58645668
  PAW double counting   =     15069.83916349   -14056.41143662
  entropy T*S    EENTRO =        -0.00000000
  eigenvalues    EBANDS =      -803.68968733
  atomic energy  EATOM  =     13036.45147835
  Solvation  Ediel_sol  =         0.00000000
  ---------------------------------------------------
  free energy    TOTEN  =      -296.80840033 eV

  energy without entropy =     -296.80840033  energy(sigma->0) =     -296.80840033


--------------------------------------------------------------------------------------------------------




--------------------------------------- Iteration      1(   8)  ---------------------------------------


    POTLOK:  cpu time      0.1295: real time      0.1301
    SETDIJ:  cpu time      0.6084: real time      0.6109
     EDDAV:  cpu time      9.4714: real time      9.5223
       DOS:  cpu time      0.0008: real time      0.0008
    CHARGE:  cpu time      0.4193: real time      0.4212
    MIXING:  cpu time      0.0081: real time      0.0081
    --------------------------------------------
      LOOP:  cpu time     10.6374: real time     10.6935

 eigenvalue-minimisations  :  8120
 total energy-change (2. order) :-0.3252867E+01  (-0.1751016E+00)
 number of electron     359.9999991 magnetization       4.3357990
 augmentation part      -66.2425536 magnetization       4.6447200

 Broyden mixing:
  rms(total) = 0.32787E+00    rms(broyden)= 0.32787E+00
  rms(prec ) = 0.33308E+00
  weight for this iteration     100.00

 eigenvalues of (default mixing * dielectric matrix)
  average eigenvalue GAMMA=   1.3604
  2.4971  0.9280  0.6562

 Free energy of the ion-electron system (eV)
  ---------------------------------------------------
  alpha Z        PSCENC =       796.85155460
  Ewald energy   TEWEN  =    -12882.76133169
  -Hartree energ DENC   =     -1170.59144526
  -exchange      EXHF   =         0.00000000
  -V(xc)+E(xc)   XCENC  =      -290.34314004
  PAW double counting   =     16820.58292629   -15808.05302979
  entropy T*S    EENTRO =        -0.00000000
  eigenvalues    EBANDS =      -802.19827930
  atomic energy  EATOM  =     13036.45147835
  Solvation  Ediel_sol  =         0.00000000
  ---------------------------------------------------
  free energy    TOTEN  =      -300.06126684 eV

  energy without entropy =     -300.06126684  energy(sigma->0) =     -300.06126684


--------------------------------------------------------------------------------------------------------




--------------------------------------- Iteration      1(   9)  ---------------------------------------


    POTLOK:  cpu time      0.1294: real time      0.1300
    SETDIJ:  cpu time      0.6069: real time      0.6091
     EDDAV:  cpu time     10.3266: real time     10.3843
       DOS:  cpu time      0.0008: real time      0.0008
    CHARGE:  cpu time      0.4204: real time      0.4219
    MIXING:  cpu time      0.0074: real time      0.0074
    --------------------------------------------
      LOOP:  cpu time     11.4914: real time     11.5535

 eigenvalue-minimisations  :  9072
 total energy-change (2. order) :-0.3772318E+00  (-0.4260380E-01)
 number of electron     359.9999991 magnetization       2.2530694
 augmentation part      -66.2831855 magnetization       2.4059580

 Broyden mixing:
  rms(total) = 0.14631E+00    rms(broyden)= 0.14631E+00
  rms(prec ) = 0.14788E+00
  weight for this iteration     100.00

 eigenvalues of (default mixing * dielectric matrix)
  average eigenvalue GAMMA=   1.3311
  2.6332  1.2371  0.8344  0.6197

 Free energy of the ion-electron system (eV)
  ---------------------------------------------------
  alpha Z        PSCENC =       796.85155460
  Ewald energy   TEWEN  =    -12882.76133169
  -Hartree energ DENC   =     -1169.42461468
  -exchange      EXHF   =         0.00000000
  -V(xc)+E(xc)   XCENC  =      -290.39259897
  PAW double counting   =     17105.86353958   -16093.66907572
  entropy T*S    EENTRO =        -0.00000000
  eigenvalues    EBANDS =      -803.35745009
  atomic energy  EATOM  =     13036.45147835
  Solvation  Ediel_sol  =         0.00000000
  ---------------------------------------------------
  free energy    TOTEN  =      -300.43849862 eV

  energy without entropy =     -300.43849862  energy(sigma->0) =     -300.43849862


--------------------------------------------------------------------------------------------------------




--------------------------------------- Iteration      1(  10)  ---------------------------------------


    POTLOK:  cpu time      0.1313: real time      0.1320
    SETDIJ:  cpu time      0.6058: real time      0.6083
     EDDAV:  cpu time      9.4918: real time      9.5427
       DOS:  cpu time      0.0010: real time      0.0010
    CHARGE:  cpu time      0.4164: real time      0.4179
    MIXING:  cpu time      0.0082: real time      0.0082
    --------------------------------------------
      LOOP:  cpu time     10.6546: real time     10.7101

 eigenvalue-minimisations  :  8112
 total energy-change (2. order) :-0.1027788E+00  (-0.9560589E-02)
 number of electron     359.9999991 magnetization       0.7055505
 augmentation part      -66.2853242 magnetization       0.7725406

 Broyden mixing:
  rms(total) = 0.72288E-01    rms(broyden)= 0.72288E-01
  rms(prec ) = 0.73312E-01
  weight for this iteration     100.00

 eigenvalues of (default mixing * dielectric matrix)
  average eigenvalue GAMMA=   1.3808
  2.7038  1.7724  0.9766  0.8248  0.6265

 Free energy of the ion-electron system (eV)
  ---------------------------------------------------
  alpha Z        PSCENC =       796.85155460
  Ewald energy   TEWEN  =    -12882.76133169
  -Hartree energ DENC   =     -1169.59181521
  -exchange      EXHF   =         0.00000000
  -V(xc)+E(xc)   XCENC  =      -290.39304732
  PAW double counting   =     17112.75288634   -16100.57068437
  entropy T*S    EENTRO =        -0.00000000
  eigenvalues    EBANDS =      -803.28031814
  atomic energy  EATOM  =     13036.45147835
  Solvation  Ediel_sol  =         0.00000000
  ---------------------------------------------------
  free energy    TOTEN  =      -300.54127745 eV

  energy without entropy =     -300.54127745  energy(sigma->0) =     -300.54127745


--------------------------------------------------------------------------------------------------------




--------------------------------------- Iteration      1(  11)  ---------------------------------------


    POTLOK:  cpu time      0.1294: real time      0.1301
    SETDIJ:  cpu time      0.6064: real time      0.6088
     EDDAV:  cpu time     10.1337: real time     10.1863
       DOS:  cpu time      0.0008: real time      0.0008
    CHARGE:  cpu time      0.4195: real time      0.4210
    MIXING:  cpu time      0.0088: real time      0.0088
    --------------------------------------------
      LOOP:  cpu time     11.2987: real time     11.3559

 eigenvalue-minimisations  :  8904
 total energy-change (2. order) :-0.3052514E-01  (-0.3625405E-02)
 number of electron     359.9999991 magnetization       0.1699462
 augmentation part      -66.2703091 magnetization       0.1877128

 Broyden mixing:
  rms(total) = 0.27467E-01    rms(broyden)= 0.27467E-01
  rms(prec ) = 0.27922E-01
  weight for this iteration     100.00

 eigenvalues of (default mixing * dielectric matrix)
  average eigenvalue GAMMA=   1.4069
  2.9092  2.1823  1.1698  0.8551  0.6992  0.6256

 Free energy of the ion-electron system (eV)
  ---------------------------------------------------
  alpha Z        PSCENC =       796.85155460
  Ewald energy   TEWEN  =    -12882.76133169
  -Hartree energ DENC   =     -1170.71086799
  -exchange      EXHF   =         0.00000000
  -V(xc)+E(xc)   XCENC  =      -290.35562545
  PAW double counting   =     17033.05155095   -16020.84193084
  entropy T*S    EENTRO =        -0.00000000
  eigenvalues    EBANDS =      -802.25663051
  atomic energy  EATOM  =     13036.45147835
  Solvation  Ediel_sol  =         0.00000000
  ---------------------------------------------------
  free energy    TOTEN  =      -300.57180258 eV

  energy without entropy =     -300.57180258  energy(sigma->0) =     -300.57180258


--------------------------------------------------------------------------------------------------------




--------------------------------------- Iteration      1(  12)  ---------------------------------------


    POTLOK:  cpu time      0.1329: real time      0.1338
    SETDIJ:  cpu time      0.6052: real time      0.6074
     EDDAV:  cpu time      9.8821: real time      9.9316
       DOS:  cpu time      0.0007: real time      0.0007
    CHARGE:  cpu time      0.4215: real time      0.4232
    MIXING:  cpu time      0.0076: real time      0.0076
    --------------------------------------------
      LOOP:  cpu time     11.0500: real time     11.1042

 eigenvalue-minimisations  :  8568
 total energy-change (2. order) :-0.2972666E-02  (-0.4210025E-03)
 number of electron     359.9999991 magnetization       0.0577203
 augmentation part      -66.2702438 magnetization       0.0617654

 Broyden mixing:
  rms(total) = 0.10357E-01    rms(broyden)= 0.10357E-01
  rms(prec ) = 0.10928E-01
  weight for this iteration     100.00

 eigenvalues of (default mixing * dielectric matrix)
  average eigenvalue GAMMA=   1.3672
  3.0057  2.3262  1.2111  0.8824  0.8824  0.6086  0.6541

 Free energy of the ion-electron system (eV)
  ---------------------------------------------------
  alpha Z        PSCENC =       796.85155460
  Ewald energy   TEWEN  =    -12882.76133169
  -Hartree energ DENC   =     -1170.77312964
  -exchange      EXHF   =         0.00000000
  -V(xc)+E(xc)   XCENC  =      -290.36061373
  PAW double counting   =     16998.54960004   -15986.31800396
  entropy T*S    EENTRO =        -0.00000000
  eigenvalues    EBANDS =      -802.21432922
  atomic energy  EATOM  =     13036.45147835
  Solvation  Ediel_sol  =         0.00000000
  ---------------------------------------------------
  free energy    TOTEN  =      -300.57477525 eV

  energy without entropy =     -300.57477525  energy(sigma->0) =     -300.57477525


--------------------------------------------------------------------------------------------------------




--------------------------------------- Iteration      1(  13)  ---------------------------------------


    POTLOK:  cpu time      0.1312: real time      0.1322
    SETDIJ:  cpu time      0.6039: real time      0.6068
     EDDAV:  cpu time     10.9269: real time     10.9871
       DOS:  cpu time      0.0007: real time      0.0007
    CHARGE:  cpu time      0.4128: real time      0.4148
    MIXING:  cpu time      0.0088: real time      0.0088
    --------------------------------------------
      LOOP:  cpu time     12.0843: real time     12.1504

 eigenvalue-minimisations  :  9784
 total energy-change (2. order) :-0.9451766E-04  (-0.5428398E-04)
 number of electron     359.9999991 magnetization       0.0152104
 augmentation part      -66.2718080 magnetization       0.0159853

 Broyden mixing:
  rms(total) = 0.43335E-02    rms(broyden)= 0.43335E-02
  rms(prec ) = 0.45224E-02
  weight for this iteration     100.00

 eigenvalues of (default mixing * dielectric matrix)
  average eigenvalue GAMMA=   1.3521
  3.0525  2.4309  1.1353  1.1353  0.9416  0.8658  0.6481  0.6070

 Free energy of the ion-electron system (eV)
  ---------------------------------------------------
  alpha Z        PSCENC =       796.85155460
  Ewald energy   TEWEN  =    -12882.76133169
  -Hartree energ DENC   =     -1170.65560655
  -exchange      EXHF   =         0.00000000
  -V(xc)+E(xc)   XCENC  =      -290.37177424
  PAW double counting   =     16985.67929343   -15973.43694809
  entropy T*S    EENTRO =        -0.00000000
  eigenvalues    EBANDS =      -802.33153557
  atomic energy  EATOM  =     13036.45147835
  Solvation  Ediel_sol  =         0.00000000
  ---------------------------------------------------
  free energy    TOTEN  =      -300.57486977 eV

  energy without entropy =     -300.57486977  energy(sigma->0) =     -300.57486977


--------------------------------------------------------------------------------------------------------




--------------------------------------- Iteration      1(  14)  ---------------------------------------


    POTLOK:  cpu time      0.1288: real time      0.1295
    SETDIJ:  cpu time      0.6071: real time      0.6096
     EDDAV:  cpu time      9.6645: real time      9.7157
       DOS:  cpu time      0.0008: real time      0.0008
    CHARGE:  cpu time      0.4185: real time      0.4206
    MIXING:  cpu time      0.0080: real time      0.0080
    --------------------------------------------
      LOOP:  cpu time     10.8276: real time     10.8842

 eigenvalue-minimisations  :  8328
 total energy-change (2. order) :-0.1313497E-04  (-0.7543401E-05)
 number of electron     359.9999991 magnetization       0.0047658
 augmentation part      -66.2714851 magnetization       0.0051374

 Broyden mixing:
  rms(total) = 0.15609E-02    rms(broyden)= 0.15609E-02
  rms(prec ) = 0.16620E-02
  weight for this iteration     100.00

 eigenvalues of (default mixing * dielectric matrix)
  average eigenvalue GAMMA=   1.3357
  3.0781  2.4601  1.4882  1.1984  0.8764  0.8764  0.7919  0.6087  0.6428

 Free energy of the ion-electron system (eV)
  ---------------------------------------------------
  alpha Z        PSCENC =       796.85155460
  Ewald energy   TEWEN  =    -12882.76133169
  -Hartree energ DENC   =     -1170.65365673
  -exchange      EXHF   =         0.00000000
  -V(xc)+E(xc)   XCENC  =      -290.37294110
  PAW double counting   =     16981.16853681   -15968.92321900
  entropy T*S    EENTRO =        -0.00000000
  eigenvalues    EBANDS =      -802.33530413
  atomic energy  EATOM  =     13036.45147835
  Solvation  Ediel_sol  =         0.00000000
  ---------------------------------------------------
  free energy    TOTEN  =      -300.57488290 eV

  energy without entropy =     -300.57488290  energy(sigma->0) =     -300.57488290


--------------------------------------------------------------------------------------------------------




--------------------------------------- Iteration      1(  15)  ---------------------------------------


    POTLOK:  cpu time      0.1298: real time      0.1305
    SETDIJ:  cpu time      0.6074: real time      0.6100
     EDDAV:  cpu time      9.9170: real time      9.9690
       DOS:  cpu time      0.0008: real time      0.0008
    CHARGE:  cpu time      0.4187: real time      0.4207
    MIXING:  cpu time      0.0094: real time      0.0095
    --------------------------------------------
      LOOP:  cpu time     11.0832: real time     11.1406

 eigenvalue-minimisations  :  8624
 total energy-change (2. order) :-0.2811617E-05  (-0.1426021E-05)
 number of electron     359.9999991 magnetization       0.0017924
 augmentation part      -66.2716045 magnetization       0.0019922

 Broyden mixing:
  rms(total) = 0.67740E-03    rms(broyden)= 0.67740E-03
  rms(prec ) = 0.71864E-03
  weight for this iteration     100.00

 eigenvalues of (default mixing * dielectric matrix)
  average eigenvalue GAMMA=   1.3031
  3.0884  2.4250  1.6546  1.0886  0.9988  0.9988  0.8295  0.7081  0.6199  0.6199

 Free energy of the ion-electron system (eV)
  ---------------------------------------------------
  alpha Z        PSCENC =       796.85155460
  Ewald energy   TEWEN  =    -12882.76133169
  -Hartree energ DENC   =     -1170.64199820
  -exchange      EXHF   =         0.00000000
  -V(xc)+E(xc)   XCENC  =      -290.37326083
  PAW double counting   =     16980.85700647   -15968.61104653
  entropy T*S    EENTRO =        -0.00000000
  eigenvalues    EBANDS =      -802.34728787
  atomic energy  EATOM  =     13036.45147835
  Solvation  Ediel_sol  =         0.00000000
  ---------------------------------------------------
  free energy    TOTEN  =      -300.57488571 eV

  energy without entropy =     -300.57488571  energy(sigma->0) =     -300.57488571


--------------------------------------------------------------------------------------------------------




--------------------------------------- Iteration      1(  16)  ---------------------------------------


    POTLOK:  cpu time      0.1293: real time      0.1300
    SETDIJ:  cpu time      0.6062: real time      0.6088
     EDDAV:  cpu time      6.5615: real time      6.5965
       DOS:  cpu time      0.0008: real time      0.0008
    --------------------------------------------
      LOOP:  cpu time      7.2978: real time      7.3362

 eigenvalue-minimisations  :  4768
 total energy-change (2. order) :-0.5739978E-06  (-0.1354478E-06)
 number of electron     359.9999991 magnetization       0.0017924
 augmentation part      -66.2716045 magnetization       0.0019922

 Free energy of the ion-electron system (eV)
  ---------------------------------------------------
  alpha Z        PSCENC =       796.85155460
  Ewald energy   TEWEN  =    -12882.76133169
  -Hartree energ DENC   =     -1170.63651228
  -exchange      EXHF   =         0.00000000
  -V(xc)+E(xc)   XCENC  =      -290.37350245
  PAW double counting   =     16980.86058414   -15968.61443041
  entropy T*S    EENTRO =        -0.00000000
  eigenvalues    EBANDS =      -802.35272655
  atomic energy  EATOM  =     13036.45147835
  Solvation  Ediel_sol  =         0.00000000
  ---------------------------------------------------
  free energy    TOTEN  =      -300.57488629 eV

  energy without entropy =     -300.57488629  energy(sigma->0) =     -300.57488629


--------------------------------------------------------------------------------------------------------




 average (electrostatic) potential at core
  the test charge radii are     1.1631  1.0808
  (the norm of the test charge is              1.0000)
       1 -33.2700       2 -33.5131       3 -33.6995       4 -33.3111       5 -33.4219
       6 -33.4455       7 -33.4701       8 -33.3040       9 -33.5207      10 -33.4602
      11 -33.5422      12 -33.5018      13 -33.4590      14 -33.3584      15 -33.5359
      16 -33.5223      17 -33.4296      18 -33.3835      19 -33.5020      20 -33.3060
      21 -33.4708      22 -33.3633      23 -33.6701      24 -33.4415      25 -33.5749
      26 -33.5706      27 -33.4953      28 -33.4583      29 -33.5595      30 -33.6350
      31 -33.3484      32 -33.4320      33 -33.6333      34 -33.5111      35 -33.5118
      36 -33.5159      37 -54.9935      38 -54.8777      39 -54.8076      40 -54.7254
      41 -54.7714      42 -54.8464      43 -54.8195      44 -54.9601      45 -54.8561
      46 -54.7002      47 -54.7194      48 -55.0021      49 -54.9708      50 -54.7033
      51 -54.7834      52 -54.8584      53 -54.7180      54 -54.6932      55 -54.7109
      56 -54.9299      57 -54.9390      58 -54.9000      59 -54.7872      60 -54.9016
      61 -54.9185      62 -54.7951      63 -54.9138      64 -54.8872      65 -54.7971
      66 -54.9258      67 -54.7876      68 -54.9673      69 -54.8678      70 -54.8381
      71 -54.7779      72 -54.6199
 
 
 
 E-fermi :   3.5007     XC(G=0):  -9.3809     alpha+bet : -8.8205

 Fermi energy:         3.5007330624

 spin component 1

 k-point     1 :       0.0000    0.0000    0.0000
  band No.  band energies     occupation 
      1     -10.8695      1.00000
      2     -10.5695      1.00000
      3     -10.3629      1.00000
      4     -10.3256      1.00000
      5     -10.2812      1.00000
      6     -10.2096      1.00000
      7     -10.0992      1.00000
      8     -10.0747      1.00000
      9      -9.9868      1.00000
     10      -9.9496      1.00000
     11      -9.9134      1.00000
     12      -9.8339      1.00000
     13      -9.7638      1.00000
     14      -9.7238      1.00000
     15      -9.6843      1.00000
     16      -9.6295      1.00000
     17      -9.5814      1.00000
     18      -9.5186      1.00000
     19      -9.4891      1.00000
     20      -9.4681      1.00000
     21      -9.4552      1.00000
     22      -9.3820      1.00000
     23      -9.3305      1.00000
     24      -9.3106      1.00000
     25      -9.3031      1.00000
     26      -9.2744      1.00000
     27      -9.2651      1.00000
     28      -9.1708      1.00000
     29      -9.1269      1.00000
     30      -9.1113      1.00000
     31      -9.0954      1.00000
     32      -9.0695      1.00000
     33      -9.0248      1.00000
     34      -9.0121      1.00000
     35      -8.9665      1.00000
     36      -8.9136      1.00000
     37      -5.3935      1.00000
     38      -5.3231      1.00000
     39      -5.2915      1.00000
     40      -5.2004      1.00000
     41      -5.0726      1.00000
     42      -5.0306      1.00000
     43      -4.9944      1.00000
     44      -4.9443      1.00000
     45      -4.8388      1.00000
     46      -4.7847      1.00000
     47      -4.5316      1.00000
     48      -4.4713      1.00000
     49      -4.4460      1.00000
     50      -4.4378      1.00000
     51      -4.4229      1.00000
     52      -4.3800      1.00000
     53      -4.3445      1.00000
     54      -4.3156      1.00000
     55      -4.2794      1.00000
     56      -4.2666      1.00000
     57      -4.2325      1.00000
     58      -4.2119      1.00000
     59      -4.1882      1.00000
     60      -4.1353      1.00000
     61      -4.0991      1.00000
     62      -4.0431      1.00000
     63      -4.0240      1.00000
     64      -3.9628      1.00000
     65      -3.9030      1.00000
     66      -3.8102      1.00000
     67      -3.7836      1.00000
     68      -3.7211      1.00000
     69      -3.4855      1.00000
     70      -3.4233      1.00000
     71      -2.4633      1.00000
     72      -2.3833      1.00000
     73      -1.8100      1.00000
     74      -1.6400      1.00000
     75      -1.5781      1.00000
     76      -1.5417      1.00000
     77      -1.5061      1.00000
     78      -1.3638      1.00000
     79      -1.3514      1.00000
     80      -1.3235      1.00000
     81      -1.1943      1.00000
     82      -1.1420      1.00000
     83      -1.0826      1.00000
     84      -1.0402      1.00000
     85      -1.0115      1.00000
     86      -0.8351      1.00000
     87      -0.8125      1.00000
     88      -0.7396      1.00000
     89      -0.6925      1.00000
     90      -0.6071      1.00000
     91      -0.5362      1.00000
     92      -0.4989      1.00000
     93      -0.4706      1.00000
     94      -0.4447      1.00000
     95      -0.1177      1.00000
     96      -0.0659      1.00000
     97      -0.0170      1.00000
     98      -0.0058      1.00000
     99       0.0364      1.00000
    100       0.0694      1.00000
    101       0.1489      1.00000
    102       0.1533      1.00000
    103       0.2327      1.00000
    104       0.2591      1.00000
    105       0.2930      1.00000
    106       0.3404      1.00000
    107       0.3678      1.00000
    108       0.3785      1.00000
    109       0.4072      1.00000
    110       0.4221      1.00000
    111       0.4772      1.00000
    112       0.5154      1.00000
    113       0.5930      1.00000
    114       0.6183      1.00000
    115       0.6524      1.00000
    116       0.6607      1.00000
    117       0.6892      1.00000
    118       0.7359      1.00000
    119       0.7773      1.00000
    120       0.8037      1.00000
    121       0.8313      1.00000
    122       0.8469      1.00000
    123       0.8745      1.00000
    124       0.9296      1.00000
    125       0.9663      1.00000
    126       1.0110      1.00000
    127       1.0550      1.00000
    128       1.0675      1.00000
    129       1.0863      1.00000
    130       1.1326      1.00000
    131       1.2078      1.00000
    132       1.2292      1.00000
    133       1.2655      1.00000
    134       1.2715      1.00000
    135       1.3160      1.00000
    136       1.3706      1.00000
    137       1.3856      1.00000
    138       1.3871      1.00000
    139       1.4875      1.00000
    140       1.5066      1.00000
    141       1.5520      1.00000
    142       1.6010      1.00000
    143       1.7030      1.00000
    144       1.7378      1.00000
    145       1.7642      1.00000
    146       1.8039      1.00000
    147       1.8477      1.00000
    148       1.8611      1.00000
    149       1.8930      1.00000
[...]
   0.140E+02 -.573E+01 -.277E+02   -.156E+02 0.692E+01 0.302E+02   0.128E+01 -.102E+01 -.248E+01   0.258E-04 0.332E-04 -.440E-04
   -.775E+01 0.136E+02 0.235E+02   0.793E+01 -.158E+02 -.258E+02   0.571E-01 0.214E+01 0.285E+01   0.278E-04 0.107E-03 0.874E-04
   0.264E+01 0.769E+01 0.326E+02   -.288E+01 -.847E+01 -.343E+02   0.961E-01 0.144E+01 0.134E+01   -.968E-04 0.112E-03 -.936E-04
   -.561E+01 0.105E+02 0.256E+02   0.581E+01 -.116E+02 -.274E+02   0.463E-01 0.677E+00 0.204E+01   0.740E-04 -.144E-03 -.185E-03
   0.177E+01 0.809E+01 0.355E+02   -.177E+01 -.883E+01 -.373E+02   -.375E+00 0.623E+00 0.169E+01   0.160E-03 0.235E-03 -.234E-03
   0.408E+01 0.147E+02 0.269E+02   -.414E+01 -.157E+02 -.288E+02   0.192E+00 0.598E+00 0.183E+01   -.216E-03 -.170E-03 0.650E-04
   0.886E+01 0.246E+01 0.244E+02   -.932E+01 -.314E+01 -.262E+02   0.170E+00 0.111E+01 0.186E+01   0.109E-03 0.263E-03 0.180E-03
   0.698E+01 0.419E+01 0.164E+02   -.786E+01 -.500E+01 -.183E+02   0.441E+00 0.167E+00 0.222E+01   0.508E-04 0.476E-04 -.232E-03
   0.141E+02 -.248E+01 0.273E+02   -.148E+02 0.257E+01 -.291E+02   0.432E+00 0.478E+00 0.183E+01   -.111E-03 0.224E-03 -.116E-03
   0.476E+01 -.125E+02 -.305E+02   -.511E+01 0.140E+02 0.323E+02   -.328E+00 -.460E+00 -.178E+01   0.342E-04 -.167E-03 0.918E-04
   -.134E+02 0.206E+01 -.293E+02   0.138E+02 -.112E+01 0.311E+02   0.783E-01 -.137E+01 -.158E+01   0.512E-05 0.161E-04 -.369E-03
   -.721E+01 -.100E+02 -.279E+02   0.760E+01 0.110E+02 0.299E+02   -.257E+00 -.832E+00 -.171E+01   0.753E-04 -.432E-04 -.127E-03
   -.437E+00 -.138E+02 -.149E+02   0.179E+00 0.146E+02 0.165E+02   0.411E+00 -.780E+00 -.230E+01   -.951E-04 -.405E-04 0.327E-03
   0.908E+01 0.424E+01 -.313E+02   -.913E+01 -.336E+01 0.328E+02   0.207E-01 -.722E+00 -.127E+01   -.103E-03 -.926E-04 0.175E-03
   0.170E+01 -.197E+02 -.305E+02   -.147E+01 0.211E+02 0.324E+02   0.805E-01 -.132E+01 -.171E+01   -.386E-03 -.301E-04 0.291E-03
   0.151E+02 -.143E+02 -.199E+02   -.153E+02 0.154E+02 0.217E+02   -.336E+00 -.946E+00 -.277E+01   0.122E-03 0.108E-03 0.266E-03
   0.307E+01 0.424E+01 0.288E+02   -.378E+01 -.471E+01 -.305E+02   0.726E+00 0.390E+00 0.161E+01   0.389E-03 0.938E-04 0.245E-03
   0.358E+01 0.645E+01 0.338E+02   -.358E+01 -.763E+01 -.357E+02   -.258E+00 0.151E+01 0.152E+01   -.170E-03 -.322E-03 0.182E-03
   -.156E+02 0.423E+01 0.247E+02   0.161E+02 -.360E+01 -.267E+02   -.406E+00 -.884E+00 0.191E+01   0.204E-04 0.111E-03 0.210E-03
   0.295E+01 0.992E+00 0.307E+02   -.289E+01 -.407E+00 -.325E+02   0.562E-02 -.772E+00 0.148E+01   -.248E-03 -.270E-03 0.221E-04
   0.905E+01 -.118E+02 0.270E+02   -.964E+01 0.131E+02 -.287E+02   -.381E-01 -.919E+00 0.194E+01   0.361E-03 -.109E-03 0.913E-04
   -.829E-01 -.384E+01 -.251E+02   0.252E+00 0.467E+01 0.267E+02   -.787E-01 -.768E+00 -.160E+01   0.345E-03 0.265E-03 0.258E-03
   -.117E+02 0.183E+02 -.279E+02   0.119E+02 -.197E+02 0.298E+02   0.768E-01 0.907E+00 -.197E+01   0.223E-03 -.139E-03 0.215E-03
   -.128E+02 0.338E+01 -.334E+02   0.135E+02 -.391E+01 0.353E+02   -.126E+00 0.381E+00 -.145E+01   -.303E-03 0.104E-03 -.206E-03
   0.229E+01 0.787E+01 -.350E+02   -.256E+01 -.895E+01 0.363E+02   0.589E+00 0.726E+00 -.142E+01   0.289E-03 0.173E-03 0.172E-03
   0.441E+01 0.123E+02 -.225E+02   -.449E+01 -.135E+02 0.241E+02   -.118E+00 0.148E+01 -.188E+01   -.158E-03 -.259E-03 -.228E-03
   -.335E+01 0.767E+01 -.302E+02   0.321E+01 -.840E+01 0.323E+02   0.349E+00 0.930E+00 -.151E+01   0.125E-03 -.231E-03 -.329E-03
   -.258E+02 -.684E+00 -.351E+02   0.269E+02 0.403E+00 0.373E+02   -.624E+00 0.351E+00 -.139E+01   -.502E-04 0.612E-03 -.317E-03
   -.105E+02 -.414E+01 -.293E+02   0.114E+02 0.414E+01 0.314E+02   -.568E+00 -.358E+00 -.190E+01   -.156E-03 0.673E-04 -.805E-04
   0.915E+01 0.976E+01 -.323E+02   -.953E+01 -.109E+02 0.343E+02   -.231E+00 0.101E+01 -.143E+01   0.144E-03 0.196E-03 -.345E-03
   0.103E+02 0.180E+02 -.193E+02   -.103E+02 -.191E+02 0.206E+02   0.708E-01 0.862E+00 -.182E+01   -.222E-03 -.136E-03 -.188E-04
   -.281E+01 -.754E+01 0.220E+02   0.316E+01 0.806E+01 -.240E+02   -.198E+00 -.608E+00 0.211E+01   -.191E-03 -.340E-03 0.167E-03
   0.118E+02 -.918E+01 0.130E+02   -.121E+02 0.998E+01 -.147E+02   -.253E+00 -.810E+00 0.214E+01   -.131E-03 0.529E-03 0.361E-04
   -.767E+01 -.983E+01 0.259E+02   0.822E+01 0.110E+02 -.271E+02   -.914E-01 -.849E+00 0.133E+01   -.890E-04 -.229E-03 -.286E-03
   0.213E+01 -.111E+02 0.293E+02   -.232E+01 0.120E+02 -.309E+02   -.225E+00 -.112E+01 0.193E+01   0.135E-03 0.426E-05 0.245E-03
   0.781E+01 -.905E+01 0.337E+02   -.832E+01 0.102E+02 -.355E+02   0.320E+00 -.452E+00 0.112E+01   0.155E-04 0.299E-03 0.740E-04
   0.632E+00 -.177E+02 0.282E+02   -.642E+00 0.188E+02 -.299E+02   -.106E+00 -.808E+00 0.144E+01   0.612E-04 -.806E-04 0.670E-04
   -.148E+02 -.114E+02 -.211E+02   0.151E+02 0.125E+02 0.221E+02   0.423E+00 -.154E+01 -.113E+01   0.122E-04 -.195E-03 0.274E-03
 -----------------------------------------------------------------------------------------------
   0.626E+00 -.164E+01 0.406E-01   0.746E-13 0.114E-12 -.213E-13   -.626E+00 0.164E+01 -.414E-01   0.246E-05 0.421E-03 0.831E-03
 
 
 POSITION                                       TOTAL-FORCE (eV/Angst)
 -----------------------------------------------------------------------------------
      0.96013      0.53214      1.44627         0.348627     -0.209385     -0.266610
      2.96016     10.93175      3.93167        -0.154764     -0.202480      0.038504
      7.16082      2.41546      4.30997        -0.040697      0.304448     -0.334848
      7.27495      6.57758      4.07771         0.028149      0.266324     -0.169009
      7.10921     11.07812      4.18302         0.077658     -0.827350      0.556120
     11.36189      2.56564      4.12430         0.097640     -0.225614     -0.375742
     11.05307      6.47080      4.17404         0.053975      0.595324      0.041808
     11.37502     10.92094      4.05294         0.535095     -0.719635      0.021972
      0.77096      1.89533      7.04489         0.137320     -0.177213     -0.001483
      0.84554      5.96689      6.95016        -0.255797     -0.033675     -0.254439
      0.90896     10.18677      6.83480        -0.078769     -0.219130      0.340104
      4.75252      1.94181      7.03509         0.350852     -0.189899      0.253209
      4.99291      6.14231      7.13860         0.075550     -0.197749     -0.770117
      4.91665     10.33461      7.14611         0.166968     -0.026923     -0.842916
      9.30059      1.64989      7.09202        -0.212999      0.310601     -0.308891
      9.08760      6.03911      6.93347         0.038854     -0.334100     -0.504545
      2.99067      6.72473      4.04413         0.033467     -0.078092      0.243532
      3.31810      2.55216      4.16028        -0.642054     -0.170941     -0.038324
      9.22576     10.07348      6.91180         0.389407      0.381171      0.320577
     11.20118      8.15460      9.58656         0.075302      0.147127      0.224882
     11.31618     12.41763      9.63419         0.019746     -0.315993      0.308420
      1.03851      4.60914      1.47240        -0.099420     -0.239769     -0.124711
      0.92137      8.52106      1.54016        -0.032219      0.441492      0.474585
      5.26221      0.42046      1.33320        -0.648358     -0.103652     -0.232193
      5.21744      4.57280      1.44951        -0.046942      0.116626     -0.214289
      9.19881      0.34641      1.52048         0.327611      0.062460     -0.114763
      9.17544      4.50176      1.36001         0.224158      0.020745      0.101998
      5.15428      8.59666      1.67136         0.021723      0.010782      0.537317
      3.04892      3.89067      9.71517         0.072013      0.167712     -0.170605
      2.81004      8.14508      9.68315         0.152479     -0.030288     -0.136074
      3.00694     11.95737      9.72182        -0.247229      0.511514      0.161616
      7.14869      3.90430      9.58738        -0.242751      0.027942     -0.037402
      7.08039      8.02777      9.60795         0.152703      0.016648     -0.120525
      7.30114     12.45594      9.57677        -0.101294     -0.012340      0.032860
     11.45854      4.01611      9.57697        -0.317712      0.163829     -0.029316
      9.21183      8.86787      1.21279         0.243689     -0.079245      0.613713
     11.39236     12.43101      7.15302        -0.148965      0.657959     -0.308344
      2.94015      4.45877      7.11473         0.240131     -0.446469      0.318542
      3.01322      8.47366      7.16501        -0.378766     -0.116198     -0.179562
      6.94669      0.28583      7.08869         0.133936     -0.337689     -0.054089
      7.22603      4.19909      7.07545        -0.291176      0.432900      0.069975
      7.21240      8.61514      7.07558        -0.439916     -0.644683      0.366897
     11.35239      4.01362      7.01555        -0.253319      0.568788      0.050017
      9.38396     12.40348      4.00816        -0.681131      1.055237      0.054884
      0.87832      0.20686      3.92175         0.392657     -0.433315      0.252861
      1.00329      4.14933      3.93726         0.133767      0.125704      0.323726
      0.81789      8.26039      4.14906         0.152577      0.036973     -0.707957
      5.00551      0.08497      3.83816        -0.027494      0.155751      0.245375
      5.18404      4.25041      3.95462         0.313011      0.157008      0.253459
      5.28119      8.27334      4.33176        -0.555312      0.107633     -1.032760
      2.94695      0.12090      7.19926         0.017121     -0.075911     -0.094846
     11.34003      8.43226      7.11507        -0.260088      0.330768     -0.407225
     11.31480     10.48142      1.55442         0.136234     -0.249380     -0.110805
      3.09733      2.19827      1.65416         0.064977     -0.186523     -0.256219
     11.38708      2.04170      1.53594        -0.624707      0.422628      0.237336
      9.18818      4.10447      3.90889         0.090428      0.064745     -0.009012
      0.92281      2.34881      9.57171         0.280861     -0.517433     -0.055005
      0.62535      6.37787      9.43676         0.541355     -0.144891      0.405455
      0.81588     10.56291      9.43952         0.313651     -0.355928     -0.037720
      5.07856      2.18669      9.60174        -0.197283      0.290844     -0.321695
      4.97837      6.36083      9.55228         0.207515      0.208077      0.683035
      4.93882     10.29786      9.55491         0.449797      0.070999      0.794817
      9.09007      2.19397      9.56480         0.357862     -0.354193      0.197492
      9.33143      6.40152      9.34471        -0.602427     -0.144469      0.611453
      9.24226     10.75055      9.58930         0.041738     -0.300361     -0.467559
      3.03706      6.36730      1.50187         0.156857     -0.089054      0.169983
      3.15580     10.29062      1.44977        -0.505281     -0.008018      0.472834
      7.12535      2.07672      1.71503         0.454873      0.291358      0.103739
      7.30461      6.32476      1.46120        -0.409965     -0.233638      0.324970
      7.15240     10.32311      1.77586        -0.195998      0.651898     -0.687451
     11.30923      6.11982      1.68076        -0.115496      0.321144     -0.254721
      9.09073      8.41686      3.88372         0.705993     -0.463529     -0.176298
 -----------------------------------------------------------------------------------
    total drift:                               -0.000154      0.000499      0.000039


--------------------------------------------------------------------------------------------------------



  FREE ENERGIE OF THE ION-ELECTRON SYSTEM (eV)
  ---------------------------------------------------
  free  energy   TOTEN  =      -300.57488629 eV

  energy  without entropy=     -300.57488629  energy(sigma->0) =     -300.57488629
 


--------------------------------------------------------------------------------------------------------


    POTLOK:  cpu time      0.7381: real time      0.7418


--------------------------------------------------------------------------------------------------------


     LOOP+:  cpu time    181.4895: real time    182.4390
    4ORBIT:  cpu time      0.0000: real time      0.0000



 total charge

# of ion       s       p       d       tot
------------------------------------------
    1        1.313   0.800   0.060   2.173
    2        1.325   0.750   0.048   2.123
    3        1.334   0.723   0.051   2.108
    4        1.318   0.777   0.057   2.152
    5        1.330   0.771   0.058   2.159
    6        1.324   0.752   0.054   2.129
    7        1.330   0.726   0.049   2.106
    8        1.308   0.817   0.063   2.188
    9        1.333   0.739   0.054   2.126
   10        1.327   0.760   0.056   2.144
   11        1.331   0.725   0.052   2.108
   12        1.317   0.765   0.055   2.137
   13        1.330   0.764   0.057   2.151
   14        1.327   0.776   0.062   2.164
   15        1.331   0.744   0.053   2.127
   16        1.318   0.766   0.055   2.139
   17        1.330   0.743   0.049   2.121
   18        1.315   0.785   0.059   2.158
   19        1.324   0.755   0.053   2.131
   20        1.308   0.820   0.066   2.193
   21        1.325   0.769   0.059   2.153
   22        1.318   0.779   0.057   2.153
   23        1.337   0.692   0.044   2.073
   24        1.327   0.764   0.058   2.149
   25        1.332   0.735   0.051   2.117
   26        1.332   0.737   0.052   2.120
   27        1.325   0.755   0.054   2.134
   28        1.325   0.751   0.053   2.129
   29        1.327   0.743   0.051   2.122
   30        1.339   0.711   0.051   2.101
   31        1.321   0.779   0.057   2.157
   32        1.314   0.785   0.057   2.155
   33        1.330   0.727   0.048   2.104
   34        1.321   0.757   0.055   2.133
   35        1.330   0.753   0.058   2.141
   36        1.325   0.736   0.052   2.112
   37        1.480   2.302   0.036   3.817
   38        1.477   2.295   0.030   3.802
   39        1.476   2.299   0.031   3.806
   40        1.477   2.291   0.029   3.796
   41        1.477   2.287   0.028   3.792
   42        1.479   2.295   0.032   3.805
   43        1.478   2.281   0.030   3.790
   44        1.476   2.328   0.036   3.840
   45        1.478   2.299   0.033   3.809
   46        1.475   2.299   0.030   3.804
   47        1.481   2.265   0.026   3.772
   48        1.477   2.314   0.035   3.827
   49        1.476   2.312   0.035   3.823
   50        1.484   2.256   0.027   3.767
   51        1.475   2.300   0.030   3.805
   52        1.477   2.303   0.033   3.813
   53        1.476   2.287   0.028   3.791
   54        1.476   2.289   0.028   3.793
   55        1.475   2.299   0.030   3.803
   56        1.476   2.299   0.032   3.807
   57        1.476   2.313   0.034   3.824
   58        1.474   2.313   0.033   3.820
   59        1.475   2.296   0.030   3.801
   60        1.479   2.284   0.030   3.793
   61        1.478   2.307   0.034   3.819
   62        1.477   2.324   0.036   3.837
   63        1.477   2.297   0.033   3.807
   64        1.475   2.320   0.034   3.829
   65        1.476   2.287   0.028   3.791
   66        1.479   2.284   0.032   3.795
   67        1.478   2.280   0.028   3.787
   68        1.475   2.311   0.033   3.819
   69        1.479   2.286   0.031   3.796
   70        1.471   2.323   0.033   3.827
   71        1.474   2.305   0.029   3.807
   72        1.477   2.277   0.026   3.781
--------------------------------------------------
tot        100.865 109.932   3.087 213.885



 magnetization (x)

# of ion       s       p       d       tot
------------------------------------------
    1       -0.000   0.000  -0.000   0.000
    2       -0.000  -0.000  -0.000  -0.000
    3       -0.000   0.000   0.000   0.000
    4       -0.000   0.000   0.000   0.000
    5       -0.000   0.000   0.000   0.000
    6       -0.000   0.000   0.000   0.000
    7       -0.000   0.000  -0.000   0.000
    8       -0.000  -0.000  -0.000  -0.000
    9       -0.000   0.000   0.000   0.000
   10       -0.000   0.000  -0.000   0.000
   11       -0.000  -0.000  -0.000  -0.000
   12       -0.000   0.000   0.000   0.000
   13       -0.000   0.000   0.000   0.000
   14       -0.000   0.000  -0.000   0.000
   15       -0.000   0.000   0.000   0.000
   16       -0.000   0.000   0.000   0.000
   17       -0.000   0.000   0.000   0.000
   18       -0.000   0.000   0.000   0.000
   19       -0.000   0.000  -0.000  -0.000
   20       -0.000   0.000  -0.000  -0.000
   21       -0.000   0.000  -0.000   0.000
   22       -0.000   0.000   0.000   0.000
   23       -0.000  -0.000  -0.000  -0.000
   24       -0.000   0.000   0.000   0.000
   25       -0.000   0.000   0.000   0.000
   26       -0.000   0.000   0.000   0.000
   27       -0.000   0.000   0.000   0.000
   28       -0.000   0.000   0.000   0.000
   29       -0.000   0.000   0.000   0.000
   30       -0.000   0.000   0.000   0.000
   31       -0.000   0.000   0.000   0.000
   32       -0.000   0.000   0.000   0.000
   33       -0.000   0.000   0.000   0.000
   34       -0.000   0.000   0.000   0.000
   35       -0.000   0.000   0.000   0.000
   36       -0.000   0.000   0.000   0.000
   37       -0.000  -0.000   0.000  -0.000
   38       -0.000  -0.000   0.000  -0.000
   39       -0.000  -0.000   0.000  -0.000
   40       -0.000  -0.000   0.000  -0.000
   41       -0.000  -0.000   0.000  -0.000
   42       -0.000  -0.000   0.000  -0.000
   43       -0.000  -0.000   0.000  -0.000
   44       -0.000  -0.000   0.000  -0.000
   45       -0.000  -0.000  -0.000  -0.000
   46       -0.000  -0.000   0.000  -0.000
   47       -0.000  -0.000  -0.000  -0.000
   48       -0.000  -0.000   0.000  -0.000
   49       -0.000  -0.000   0.000  -0.000
   50       -0.000  -0.000   0.000  -0.000
   51       -0.000  -0.000   0.000  -0.000
   52       -0.000  -0.000  -0.000  -0.000
   53       -0.000  -0.000  -0.000  -0.000
   54       -0.000  -0.000   0.000  -0.000
   55       -0.000  -0.000   0.000  -0.000
   56       -0.000  -0.000   0.000  -0.000
   57       -0.000  -0.000   0.000  -0.000
   58       -0.000  -0.000   0.000  -0.000
   59       -0.000  -0.000  -0.000  -0.000
   60       -0.000  -0.000   0.000  -0.000
   61       -0.000  -0.000   0.000  -0.000
   62       -0.000  -0.000   0.000  -0.000
   63       -0.000  -0.000   0.000  -0.000
   64       -0.000  -0.000   0.000  -0.000
   65       -0.000  -0.000   0.000  -0.000
   66       -0.000  -0.000   0.000  -0.000
   67       -0.000  -0.000  -0.000  -0.000
   68       -0.000  -0.000   0.000  -0.000
   69       -0.000  -0.000   0.000  -0.000
   70       -0.000  -0.000   0.000  -0.000
   71       -0.000  -0.000   0.000  -0.000
   72       -0.000  -0.000   0.000  -0.000
--------------------------------------------------
tot         -0.000  -0.000   0.000  -0.000
 

 total amount of memory used by VASP MPI-rank0   110684. kBytes
=======================================================================

   base      :      30000. kBytes
   nonl-proj :      16332. kBytes
   fftplans  :       6179. kBytes
   grid      :      15593. kBytes
   one-center:        146. kBytes
   wavefun   :      42434. kBytes
 
  
  
 General timing and accounting informations for this job:
 ========================================================
  
                  Total CPU time used (sec):      193.518
                            User time (sec):      187.376
                          System time (sec):        6.142
                         Elapsed time (sec):      195.826
  
                   Maximum memory used (kb):      307676.
                   Average memory used (kb):          N/A
  
                          Minor page faults:        88165
                          Major page faults:           54
                 Voluntary context switches:         6059
