 vasp.6.4.2 20Jul23 (build Oct 12 2023 10:31:02) complex                         
 executed on              LinuxNV date 2024.11.02  01:16:37
 running  128 mpi-ranks, with    1 threads/rank, on    2 nodes
 distrk:  each k-point on   64 cores,    2 groups
 distr:  one band on NCORE=   8 cores,    8 groups


--------------------------------------------------------------------------------------------------------


 INCAR:
   ENCUT = 520.000000
   SIGMA = 0.050000
   EDIFF = 1.00e-06
   ALGO = N
   GGA = PE
   PREC = Accurate
   SYSTEM = 01_AOPT
   ICHARG = 0
   ISMEAR = 0
   ISPIN = 2
   ISTART = 1
   ISYM = -1
   KPAR = 2
   LORBIT = 11
   NBANDS = 220
   NELM = 100
   NELMIN = 5
   NPAR = 8
   LASPH = .TRUE.
   LCHARG = .FALSE.
   LWAVE = .FALSE.
   LREAL = .FALSE.

 POTCAR:    PAW_PBE Ge 05Jan2001                  
 POTCAR:    PAW_PBE Se 06Sep2000                  
 -----------------------------------------------------------------------------
|                                                                             |
|           W    W    AA    RRRRR   N    N  II  N    N   GGGG   !!!           |
|           W    W   A  A   R    R  NN   N  II  NN   N  G    G  !!!           |
|           W    W  A    A  R    R  N N  N  II  N N  N  G       !!!           |
|           W WW W  AAAAAA  RRRRR   N  N N  II  N  N N  G  GGG   !            |
|           WW  WW  A    A  R   R   N   NN  II  N   NN  G    G                |
|           W    W  A    A  R    R  N    N  II  N    N   GGGG   !!!           |
|                                                                             |
|     You use a magnetic or noncollinear calculation, but did not specify     |
|     the initial magnetic moment with the MAGMOM tag. Note that a            |
|     default of 1 will be used for all atoms. This ferromagnetic setup       |
|     may break the symmetry of the crystal, in particular it may rule        |
|     out finding an antiferromagnetic solution. Thence, we recommend         |
|     setting the initial magnetic moment manually or verifying carefully     |
|     that this magnetic setup is desired.                                    |
|                                                                             |
 -----------------------------------------------------------------------------

 POTCAR:    PAW_PBE Ge 05Jan2001                  
   VRHFIN =Ge: s2p2                                                                                 
   LEXCH  = PE                                                                                      
   EATOM  =   104.9960 eV,    7.7170 Ry                                                             
                                                                                                    
   TITEL  = PAW_PBE Ge 05Jan2001                                                                    
   LULTRA =        F    use ultrasoft PP ?                                                          
   IUNSCR =        1    unscreen: 0-lin 1-nonlin 2-no                                               
   RPACOR =    2.170    partial core radius                                                         
   POMASS =   72.610; ZVAL   =    4.000    mass and valenz                                          
   RCORE  =    2.300    outmost cutoff radius                                                       
   RWIGS  =    2.300; RWIGS  =    1.217    wigner-seitz radius (au A)                               
   ENMAX  =  173.807; ENMIN  =  130.355 eV                                                          
   ICORE  =        3    local potential                                                             
   LCOR   =        T    correct aug charges                                                         
   LPAW   =        T    paw PP                                                                      
   EAUG   =  385.843                                                                                
   DEXC   =    0.000                                                                                
   RMAX   =    2.342    core radius for proj-oper                                                   
   RAUG   =    1.300    factor for augmentation sphere                                              
   RDEP   =    2.318    radius for radial grids                                                     
   RDEPT  =    2.103    core radius for aug-charge                                                  
                                                                                                    
   Atomic configuration                                                                             
   10 entries                                                                                       
     n  l   j            E        occ.                                                              
     1  0  0.50    -10959.8463   2.0000                                                             
     2  0  0.50     -1371.6056   2.0000                                                             
     2  1  1.50     -1198.4791   6.0000                                                             
     3  0  0.50      -168.4733   2.0000                                                             
     3  1  1.50      -115.6019   6.0000                                                             
     3  2  2.50       -29.3106  10.0000                                                             
     4  0  0.50       -11.7309   2.0000                                                             
     4  1  0.50        -3.8952   2.0000                                                             
     4  2  1.50        -4.0817   0.0000                                                             
     4  3  2.50        -4.0817   0.0000                                                             
   Description                                                                                      
     l       E           TYP  RCUT    TYP  RCUT                                                     
     0    -11.7309493     23  2.300                                                                 
     0     -7.4578696     23  2.300                                                                 
     1     -3.8952261     23  2.300                                                                 
     1      6.1178114     23  2.300                                                                 
     2     -4.0817478     23  2.300                                                                 
     3     -1.3605826      7  2.300                                                                 
  local pseudopotential read in
  partial core-charges read in
  partial kinetic energy density read in
  atomic valenz-charges read in
  non local Contribution for L=            0  read in
    real space projection operators read in
  non local Contribution for L=            0  read in
    real space projection operators read in
  non local Contribution for L=            1  read in
    real space projection operators read in
  non local Contribution for L=            1  read in
    real space projection operators read in
  non local Contribution for L=            2  read in
    real space projection operators read in
    PAW grid and wavefunctions read in
 
   number of l-projection  operators is LMAX  =            5
   number of lm-projection operators is LMMAX =           13
 
 POTCAR:    PAW_PBE Se 06Sep2000                  
   VRHFIN =Se: s2p4                                                                                 
   LEXCH  = PE                                                                                      
   EATOM  =   257.1286 eV,   18.8984 Ry                                                             
                                                                                                    
   TITEL  = PAW_PBE Se 06Sep2000                                                                    
   LULTRA =        F    use ultrasoft PP ?                                                          
   IUNSCR =        1    unscreen: 0-lin 1-nonlin 2-no                                               
   RPACOR =    1.900    partial core radius                                                         
   POMASS =   78.960; ZVAL   =    6.000    mass and valenz                                          
   RCORE  =    2.100    outmost cutoff radius                                                       
   RWIGS  =    2.200; RWIGS  =    1.164    wigner-seitz radius (au A)                               
   ENMAX  =  211.555; ENMIN  =  158.666 eV                                                          
   ICORE  =        3    local potential                                                             
   LCOR   =        T    correct aug charges                                                         
   LPAW   =        T    paw PP                                                                      
   EAUG   =  446.842                                                                                
   DEXC   =    0.000                                                                                
   RMAX   =    2.147    core radius for proj-oper                                                   
   RAUG   =    1.300    factor for augmentation sphere                                              
   RDEP   =    2.177    radius for radial grids                                                     
   RDEPT  =    1.928    core radius for aug-charge                                                  
                                                                                                    
   Atomic configuration                                                                             
   10 entries                                                                                       
     n  l   j            E        occ.                                                              
     1  0  0.50    -12503.4787   2.0000                                                             
     2  0  0.50     -1606.9547   2.0000                                                             
     2  1  1.50     -1413.3140   6.0000                                                             
     3  0  0.50      -213.4885   2.0000                                                             
     3  1  1.50      -152.9538   6.0000                                                             
     3  2  2.50       -53.1221  10.0000                                                             
     4  0  0.50       -17.2865   2.0000                                                             
     4  1  0.50        -6.5110   4.0000                                                             
     4  2  2.50        -6.8029   0.0000                                                             
     4  3  2.50        -6.8029   0.0000                                                             
   Description                                                                                      
     l       E           TYP  RCUT    TYP  RCUT                                                     
     0    -17.2865377     23  2.100                                                                 
     0    -15.3094411     23  2.100                                                                 
     1     -6.5110275     23  2.100                                                                 
     1     -0.0695192     23  2.100                                                                 
     2     -6.8029130     23  2.100                                                                 
     3     -1.3605826      7  2.100                                                                 
  local pseudopotential read in
  partial core-charges read in
  partial kinetic energy density read in
  atomic valenz-charges read in
  non local Contribution for L=            0  read in
    real space projection operators read in
  non local Contribution for L=            0  read in
    real space projection operators read in
  non local Contribution for L=            1  read in
    real space projection operators read in
  non local Contribution for L=            1  read in
    real space projection operators read in
  non local Contribution for L=            2  read in
    real space projection operators read in
    PAW grid and wavefunctions read in
 
   number of l-projection  operators is LMAX  =            5
   number of lm-projection operators is LMMAX =           13
 
 -----------------------------------------------------------------------------
|                                                                             |
|               ----> ADVICE to this user running VASP <----                  |
|                                                                             |
|     You have a (more or less) 'large supercell' and for larger cells it     |
|     might be more efficient to use real-space projection operators.         |
|     Therefore, try LREAL= Auto in the INCAR file.                           |
|     Mind: For very accurate calculation, you might also keep the            |
|     reciprocal projection scheme (i.e. LREAL=.FALSE.).                      |
|                                                                             |
 -----------------------------------------------------------------------------

  PAW_PBE Ge 05Jan2001                  :
 energy of atom  1       EATOM= -104.9960
 kinetic energy error for atom=    0.0002 (will be added to EATOM!!)
  PAW_PBE Se 06Sep2000                  :
 energy of atom  2       EATOM= -257.1286
 kinetic energy error for atom=    0.0007 (will be added to EATOM!!)
 
 
 POSCAR: Ge Se
  positions in cartesian coordinates
  No initial velocities read in
 exchange correlation table for  LEXCH =        8
   RHO(1)=    0.500       N(1)  =     2000
   RHO(2)=  100.500       N(2)  =     4000
 


--------------------------------------------------------------------------------------------------------


 ion  position               nearest neighbor table
   1  0.085  0.027  0.127-  45 2.46  54 2.65  67 2.84
   2  0.262  0.864  0.367-  67 2.61  50 2.68  48 2.69
   3  0.562  0.207  0.352-  68 2.39  56 2.68  49 2.79
   4  0.584  0.525  0.379-  69 2.56  72 2.58
   5  0.581  0.890  0.375-  44 2.48  70 2.66
   6  0.919  0.198  0.360-  55 2.58  46 2.70
   7  0.895  0.536  0.372-  71 2.59  47 2.60  72 2.66
   8  0.912  0.877  0.384-  45 2.61  53 2.70
   9  0.064  0.129  0.629-  51 2.52  57 2.60  37 2.71
  10  0.082  0.473  0.611-  38 2.54  43 2.65  58 2.80
  11  0.073  0.825  0.634-  59 2.49  39 2.67  51 2.80
  12  0.419  0.176  0.638-  40 2.58  60 2.60  41 2.61
  13  0.395  0.488  0.629-  41 2.60  38 2.65  61 2.71
  14  0.421  0.825  0.601-  62 2.57  42 2.64  39 2.86
  15  0.757  0.143  0.598-  37 2.49  63 2.59  40 2.69
  16  0.777  0.503  0.621-  52 2.52  64 2.55  43 2.61
  17  0.227  0.562  0.396-  50 2.58  47 2.65  66 2.75
  18  0.248  0.201  0.384-  49 2.64  54 2.67  48 2.80
  19  0.721  0.789  0.612-  52 2.55  42 2.56  65 2.63
  20  0.928  0.664  0.889-  58 2.53  52 2.58  59 2.71
  21  0.881  0.968  0.870-  65 2.57  59 2.57  37 2.64
  22  0.068  0.393  0.126-  46 2.53  66 2.62  71 2.65
  23  0.076  0.712  0.136-  47 2.62  67 2.67  53 2.67
  24  0.400  0.043  0.127-  54 2.61  48 2.65  68 2.73
  25  0.385  0.397  0.124-  69 2.56  49 2.57  66 2.62
  26  0.742  0.033  0.112-  44 2.56  55 2.65
  27  0.759  0.364  0.119-  71 2.68  56 2.71  55 2.78
  28  0.432  0.704  0.123-  70 2.53  50 2.67  69 2.84
  29  0.209  0.305  0.853-  38 2.52  57 2.52  60 2.66
  30  0.241  0.649  0.861-  39 2.47  58 2.55  61 2.56
  31  0.268  0.992  0.858-  62 2.46  51 2.46  60 2.77
  32  0.583  0.336  0.869-  63 2.58  41 2.61  64 2.65
  33  0.567  0.643  0.883-  64 2.58  42 2.62  61 2.77
  34  0.577  0.976  0.863-  62 2.57  65 2.59  40 2.61
  35  0.896  0.315  0.877-  57 2.66  43 2.70  63 2.75
  36  0.721  0.717  0.115-  70 2.56  53 2.61  72 2.70
  37  0.890  0.998  0.634-  15 2.49  21 2.64   9 2.71
  38  0.239  0.344  0.633-  29 2.52  10 2.54  13 2.65
  39  0.240  0.690  0.642-  30 2.47  11 2.67  14 2.86
  40  0.572  0.038  0.637-  12 2.58  34 2.61  15 2.69
  41  0.544  0.343  0.638-  13 2.60  12 2.61  32 2.61
  42  0.558  0.669  0.648-  19 2.56  33 2.62  14 2.64
  43  0.914  0.346  0.636-  16 2.61  10 2.65  35 2.70
  44  0.726  0.022  0.342-   5 2.48  26 2.56
  45  0.062  0.019  0.348-   1 2.46   8 2.61
  46  0.075  0.348  0.349-  22 2.53   6 2.70
  47  0.049  0.676  0.367-   7 2.60  23 2.62  17 2.65
  48  0.396  0.032  0.365-  24 2.65   2 2.69  18 2.80
  49  0.392  0.353  0.351-  25 2.57  18 2.64   3 2.79
  50  0.386  0.689  0.358-  17 2.58  28 2.67   2 2.68
  51  0.217  0.997  0.643-  31 2.46   9 2.52  11 2.80
  52  0.882  0.671  0.663-  16 2.52  19 2.55  20 2.58
  53  0.897  0.828  0.147-  36 2.61  23 2.67   8 2.70
  54  0.238  0.174  0.145-  24 2.61   1 2.65  18 2.67
  55  0.891  0.184  0.129-   6 2.58  26 2.65  27 2.78
  56  0.733  0.337  0.360-   3 2.68  27 2.71
  57  0.055  0.174  0.858-  29 2.52   9 2.60  35 2.66
  58  0.076  0.528  0.856-  20 2.53  30 2.55  10 2.80
  59  0.045  0.844  0.855-  11 2.49  21 2.57  20 2.71
  60  0.383  0.182  0.869-  12 2.60  29 2.66  31 2.77
  61  0.390  0.509  0.873-  30 2.56  13 2.71  33 2.77
  62  0.410  0.859  0.830-  31 2.46  14 2.57  34 2.57
  63  0.722  0.188  0.823-  32 2.58  15 2.59  35 2.75
  64  0.713  0.501  0.840-  16 2.55  33 2.58  32 2.65
  65  0.727  0.833  0.844-  21 2.57  34 2.59  19 2.63
  66  0.225  0.531  0.150-  25 2.62  22 2.62  17 2.75
  67  0.235  0.855  0.133-   2 2.61  23 2.67   1 2.84
  68  0.570  0.182  0.138-   3 2.39  24 2.73
  69  0.553  0.513  0.151-   4 2.56  25 2.56  28 2.84
  70  0.569  0.854  0.138-  28 2.53  36 2.56   5 2.66
  71  0.901  0.525  0.138-   7 2.59  22 2.65  27 2.68
  72  0.730  0.670  0.352-   4 2.58   7 2.66  36 2.70
 

IMPORTANT INFORMATION: All symmetrisations will be switched off!
NOSYMM: (Re-)initialisation of all symmetry stuff for point group C_1.


----------------------------------------------------------------------------------------

                                     Primitive cell                                     

  volume of cell :    1722.7543

  direct lattice vectors                    reciprocal lattice vectors
    12.448330039 -0.000000763 -0.000000818     0.080332060  0.000000005  0.000000007
    -0.000000766 12.503272316  0.000002154     0.000000005  0.079979063 -0.000000018
    -0.000000936  0.000002454 11.068494533     0.000000006 -0.000000016  0.090346523

  length of vectors
    12.448330039 12.503272316 11.068494533     0.080332060  0.079979063  0.090346523

  position of ions in fractional coordinates (direct lattice)
     0.085346556  0.026760305  0.127064252
     0.261950152  0.863722557  0.366549724
     0.561963921  0.207188247  0.351830028
     0.584488310  0.524829322  0.379141372
     0.580688544  0.889943853  0.374591496
     0.919254299  0.197713162  0.359501974
     0.894500462  0.535793417  0.371838657
     0.911751673  0.877288208  0.383567752
     0.063951220  0.128825978  0.628959371
     0.082344972  0.472581150  0.611074453
     0.073355477  0.824874704  0.633745276
     0.418655743  0.176242644  0.637821665
     0.395075775  0.488392836  0.629150997
     0.421388091  0.825428554  0.600901068
     0.756839051  0.143169751  0.597779445
     0.776593785  0.502813436  0.620981322
     0.226504764  0.561692152  0.395931357
     0.248327155  0.200582284  0.383530117
     0.720865148  0.789246091  0.612413825
     0.927871879  0.663543717  0.889409019
     0.880878191  0.968299236  0.869896632
     0.067833408  0.393254685  0.126441141
     0.075780857  0.711611326  0.136206285
     0.400262780  0.043498794  0.126683161
     0.384927938  0.396980765  0.124454135
     0.742391229  0.032882464  0.112341199
     0.759359000  0.364320669  0.118704391
     0.432355598  0.703948740  0.122636021
     0.209156005  0.304926516  0.853315223
     0.240813259  0.648936627  0.860546213
     0.267659497  0.992362475  0.858260076
     0.583229541  0.335693420  0.869139153
     0.567005597  0.642756134  0.882796889
     0.577404640  0.976400791  0.862578933
     0.895796515  0.314900697  0.876619031
     0.720745507  0.717499343  0.115048080
     0.890050553  0.998069794  0.633790787
     0.239458379  0.344068382  0.632585575
     0.239943025  0.690322086  0.641991976
     0.571669702  0.037556530  0.636861394
     0.544070595  0.343216195  0.637794276
     0.557660336  0.668981922  0.647898263
     0.913534004  0.345568828  0.636148037
     0.726369175  0.022275917  0.342205708
     0.062116119  0.019085534  0.347507727
     0.074815256  0.348491694  0.349339160
     0.048729648  0.675887704  0.367495657
     0.396170297  0.032079004  0.365258209
     0.392227207  0.353240537  0.351057500
     0.386010794  0.688763807  0.357716048
     0.217114717  0.997249682  0.643267619
     0.881695891  0.671200879  0.662768947
     0.896622413  0.828367378  0.146568335
     0.237926448  0.174028540  0.144879465
     0.890693147  0.184418513  0.129460567
     0.732580201  0.337391928  0.359824603
     0.054718032  0.174212752  0.857666829
     0.075835331  0.528149669  0.855651241
     0.044940719  0.843649726  0.855116936
     0.382795277  0.181964857  0.869008728
     0.390161474  0.509095026  0.872634416
     0.410458409  0.858810910  0.829783042
     0.721921859  0.187870541  0.823204469
     0.713036001  0.501237023  0.839913867
     0.727139744  0.833310962  0.844487226
     0.224905089  0.530578854  0.150188837
     0.234583333  0.854678413  0.133162312
     0.569525231  0.182453009  0.137976666
     0.552973355  0.512839728  0.151057752
     0.568514569  0.853699601  0.138266767
     0.901423918  0.524509655  0.138318346
     0.729845904  0.669791535  0.352491443

  ion indices of the primitive-cell ions
   primitive index   ion index
                 1           1
                 2           2
                 3           3
                 4           4
                 5           5
                 6           6
                 7           7
                 8           8
                 9           9
                10          10
                11          11
                12          12
                13          13
                14          14
                15          15
                16          16
                17          17
                18          18
                19          19
                20          20
                21          21
                22          22
                23          23
                24          24
                25          25
                26          26
                27          27
                28          28
                29          29
                30          30
                31          31
                32          32
                33          33
                34          34
                35          35
                36          36
                37          37
                38          38
                39          39
                40          40
                41          41
                42          42
                43          43
                44          44
                45          45
                46          46
                47          47
                48          48
                49          49
                50          50
                51          51
                52          52
                53          53
                54          54
                55          55
                56          56
                57          57
                58          58
                59          59
                60          60
                61          61
                62          62
                63          63
                64          64
                65          65
                66          66
                67          67
                68          68
                69          69
                70          70
                71          71
                72          72

----------------------------------------------------------------------------------------

 
 
 KPOINTS: KPOINTS created by Atomic Simulation Env

Automatic generation of k-mesh.
 Grid dimensions read from file:
 generate k-points for:    2    2    2

 Generating k-lattice:

  Cartesian coordinates                     Fractional coordinates (reciprocal lattice)
     0.040166030  0.000000002  0.000000003     0.500000000  0.000000000 -0.000000000
     0.000000002  0.039989531 -0.000000009     0.000000000  0.500000000  0.000000000
     0.000000003 -0.000000008  0.045173262     0.000000000  0.000000000  0.500000000

  Length of vectors
     0.040166030  0.039989531  0.045173262

  Shift w.r.t. Gamma in fractional coordinates (k-lattice)
     0.000000000  0.000000000  0.000000000

 
 Subroutine IBZKPT returns following result:
 ===========================================
 
 Found      8 irreducible k-points:
 
 Following reciprocal coordinates:
            Coordinates               Weight
  0.000000  0.000000  0.000000      1.000000
  0.500000  0.000000  0.000000      1.000000
  0.000000  0.500000  0.000000      1.000000
  0.500000  0.500000  0.000000      1.000000
  0.000000  0.000000  0.500000      1.000000
  0.500000  0.000000  0.500000      1.000000
  0.000000  0.500000  0.500000      1.000000
  0.500000  0.500000  0.500000      1.000000
 
 Following cartesian coordinates:
            Coordinates               Weight
  0.000000  0.000000  0.000000      1.000000
  0.040166  0.000000  0.000000      1.000000
  0.000000  0.039990 -0.000000      1.000000
  0.040166  0.039990 -0.000000      1.000000
  0.000000 -0.000000  0.045173      1.000000
  0.040166 -0.000000  0.045173      1.000000
  0.000000  0.039990  0.045173      1.000000
  0.040166  0.039990  0.045173      1.000000
 
 -----------------------------------------------------------------------------
|                                                                             |
|           W    W    AA    RRRRR   N    N  II  N    N   GGGG   !!!           |
|           W    W   A  A   R    R  NN   N  II  NN   N  G    G  !!!           |
|           W    W  A    A  R    R  N N  N  II  N N  N  G       !!!           |
|           W WW W  AAAAAA  RRRRR   N  N N  II  N  N N  G  GGG   !            |
|           WW  WW  A    A  R   R   N   NN  II  N   NN  G    G                |
|           W    W  A    A  R    R  N    N  II  N    N   GGGG   !!!           |
|                                                                             |
|     The number of bands has been changed from the values supplied in        |
|     the INCAR file. This is a result of running the parallel version.       |
|     The orbitals not found in the WAVECAR file will be initialized with     |
|     random numbers, which is usually adequate. For correlated               |
|     calculations, however, you should redo the groundstate calculation.     |
|     I found NBANDS = 220. Now, NBANDS = 224.                                |
|                                                                             |
 -----------------------------------------------------------------------------



--------------------------------------------------------------------------------------------------------




 Dimension of arrays:
   k-points           NKPTS =      8   k-points in BZ     NKDIM =      8   number of bands    NBANDS=    224
   number of dos      NEDOS =    301   number of ions     NIONS =     72
   non local maximal  LDIM  =      5   non local SUM 2l+1 LMDIM =     13
   total plane-waves  NPLWV = 774144
   max r-space proj   IRMAX =      1   max aug-charges    IRDMAX=  24620
   dimension x,y,z NGX =    96 NGY =   96 NGZ =   84
   dimension x,y,z NGXF=   192 NGYF=  192 NGZF=  168
   support grid    NGXF=   192 NGYF=  192 NGZF=  168
   ions per type =              36  36
   NGX,Y,Z   is equivalent  to a cutoff of  12.82, 12.76, 12.62 a.u.
   NGXF,Y,Z  is equivalent  to a cutoff of  25.64, 25.53, 25.23 a.u.

 SYSTEM =  01_AOPT                                 
 POSCAR =  Ge Se                                   

 Startparameter for this run:
   NWRITE =      2    write-flag & timer
   PREC   = accura    normal or accurate (medium, high low for compatibility)
   ISTART =      0    job   : 0-new  1-cont  2-samecut
   ICHARG =      2    charge: 1-file 2-atom 10-const
   ISPIN  =      2    spin polarized calculation?
   LNONCOLLINEAR =      F non collinear calculations
   LSORBIT =      F    spin-orbit coupling
   INIWAV =      1    electr: 0-lowe 1-rand  2-diag
   LASPH  =      T    aspherical Exc in radial PAW
 Electronic Relaxation 1
   ENCUT  =  520.0 eV  38.22 Ry    6.18 a.u.  23.15 23.25 20.58*2*pi/ulx,y,z
   ENINI  =  520.0     initial cutoff
   ENAUG  =  446.8 eV  augmentation charge cutoff
   NELM   =    100;   NELMIN=  5; NELMDL=  0     # of ELM steps 
   EDIFF  = 0.1E-05   stopping-criterion for ELM
   LREAL  =      F    real-space projection
   NLSPLINE    = F    spline interpolate recip. space projectors
   LCOMPAT=      F    compatible to vasp.4.4
   GGA_COMPAT  = T    GGA compatible to vasp.4.4-vasp.4.6
   LMAXPAW     = -100 max onsite density
   LMAXMIX     =    2 max onsite mixed and CHGCAR
   VOSKOWN=      0    Vosko Wilk Nusair interpolation
   ROPT   =    0.00000   0.00000
 Ionic relaxation
   EDIFFG = 0.1E-04   stopping-criterion for IOM
   NSW    =      0    number of steps for IOM
   NBLOCK =      1;   KBLOCK =      1    inner block; outer block 
   IBRION =     -1    ionic relax: 0-MD 1-quasi-New 2-CG
   NFREE  =      0    steps in history (QN), initial steepest desc. (CG)
   ISIF   =      2    stress and relaxation
   IWAVPR =     10    prediction:  0-non 1-charg 2-wave 3-comb
   ISYM   =     -1    0-nonsym 1-usesym 2-fastsym
   LCORR  =      T    Harris-Foulkes like correction to forces

   POTIM  = 0.5000    time-step for ionic-motion
   TEIN   =    0.0    initial temperature
   TEBEG  =    0.0;   TEEND  =   0.0 temperature during run
   SMASS  =  -3.00    Nose mass-parameter (am)
   estimated Nose-frequenzy (Omega)   =  0.10E-29 period in steps = 0.13E+47 mass=  -0.354E-26a.u.
   SCALEE = 1.0000    scale energy and forces
   NPACO  =    256;   APACO  = 10.0  distance and # of slots for P.C.
   PSTRESS=    0.0 pullay stress

  Mass of Ions in am
   POMASS =  72.61 78.96
  Ionic Valenz
   ZVAL   =   4.00  6.00
  Atomic Wigner-Seitz radii
   RWIGS  =  -1.00 -1.00
  virtual crystal weights 
   VCA    =   1.00  1.00
   NELECT =     360.0000    total number of electrons
   NUPDOWN=      -1.0000    fix difference up-down

 DOS related values:
   EMIN   =  10.00;   EMAX   =-10.00  energy-range for DOS
   EFERMI =   0.00;   METHOD = LEGACY      
   ISMEAR =     0;   SIGMA  =   0.05  broadening in eV -4-tet -1-fermi 0-gaus

 Electronic relaxation 2 (details)
   IALGO  =     38    algorithm
   LDIAG  =      T    sub-space diagonalisation (order eigenvalues)
   LSUBROT=      F    optimize rotation matrix (better conditioning)
   TURBO    =      0    0=normal 1=particle mesh
   IRESTART =      0    0=no restart 2=restart with 2 vectors
   NREBOOT  =      0    no. of reboots
   NMIN     =      0    reboot dimension
   EREF     =   0.00    reference energy to select bands
   IMIX   =      4    mixing-type and parameters
     AMIX     =   0.40;   BMIX     =  1.00
     AMIX_MAG =   1.60;   BMIX_MAG =  1.00
     AMIN     =   0.10
     WC   =   100.;   INIMIX=   1;  MIXPRE=   1;  MAXMIX= -45

 Intra band minimization:
   WEIMIN = 0.0000     energy-eigenvalue tresh-hold
   EBREAK =  0.11E-08  absolut break condition
   DEPER  =   0.30     relativ break condition  

   TIME   =   0.40     timestep for ELM

  volume/ion in A,a.u.               =      23.93       161.47
  Fermi-wavevector in a.u.,A,eV,Ry     =   0.971482  1.835834 12.840857  0.943776
  Thomas-Fermi vector in A             =   2.101702
 
 Write flags
   LWAVE        =      F    write WAVECAR
   LDOWNSAMPLE  =      F    k-point downsampling of WAVECAR
   LCHARG       =      F    write CHGCAR
   LVTOT        =      F    write LOCPOT, total local potential
   LVHAR        =      F    write LOCPOT, Hartree potential only
   LELF         =      F    write electronic localiz. function (ELF)
   LORBIT       =     11    0 simple, 1 ext, 2 COOP (PROOUT), +10 PAW based schemes


 Dipole corrections
   LMONO  =      F    monopole corrections only (constant potential shift)
   LDIPOL =      F    correct potential (dipole corrections)
   IDIPOL =      0    1-x, 2-y, 3-z, 4-all directions 
   EPSILON=  1.0000000 bulk dielectric constant

 Exchange correlation treatment:
   GGA     =    PE    GGA type
   LEXCH   =     8    internal setting for exchange type
   LIBXC   =     F    Libxc                    
   VOSKOWN =     0    Vosko Wilk Nusair interpolation
   LHFCALC =     F    Hartree Fock is set to
   LHFONE  =     F    Hartree Fock one center treatment
   AEXX    =    0.0000 exact exchange contribution

 Linear response parameters
   LEPSILON=     F    determine dielectric tensor
   LRPA    =     F    only Hartree local field effects (RPA)
   LNABLA  =     F    use nabla operator in PAW spheres
   LVEL    =     F    velocity operator in full k-point grid
   CSHIFT  =0.1000    complex shift for real part using Kramers Kronig
   OMEGAMAX=  -1.0    maximum frequency
   DEG_THRESHOLD= 0.2000000E-02 threshold for treating states as degnerate
   RTIME   =   -0.100 relaxation time in fs
  (WPLASMAI=    0.000 imaginary part of plasma frequency in eV, 0.658/RTIME)
   DFIELD  = 0.0000000 0.0000000 0.0000000 field for delta impulse in time
 
  Optional k-point grid parameters
   LKPOINTS_OPT  =     F    use optional k-point grid
   KPOINTS_OPT_MODE=     1    mode for optional k-point grid
 
 Orbital magnetization related:
   ORBITALMAG=     F  switch on orbital magnetization
   LCHIMAG   =     F  perturbation theory with respect to B field
   DQ        =  0.001000  dq finite difference perturbation B field
   LLRAUG    =     F  two centre corrections for induced B field
   LBONE     =     F  B-component reconstruction in AE one-centre
   LVGVCALC  =     T  calculate vGv susceptibility
   LVGVAPPL  =     F  apply vGv susceptibility instead of pGv for G=0

 Random number generation:
   RANDOM_GENERATOR = DEFAULT
   PCG_SEED         = not used


--------------------------------------------------------------------------------------------------------


 Static calculation
 charge density and potential will be updated during run
 spin polarized calculation
 Variant of blocked Davidson
 Davidson routine will perform the subspace rotation
 perform sub-space diagonalisation
    after iterative eigenvector-optimisation
 modified Broyden-mixing scheme, WC =      100.0
 initial mixing is a Kerker type mixing with AMIX =  0.4000 and BMIX =      1.0000
 Hartree-type preconditioning will be used
 using additional bands            44
 reciprocal scheme for non local part
 use partial core corrections
 calculate Harris-corrections to forces 
   (improved forces if not selfconsistent)
 use gradient corrections 
 use of overlap-Matrix (Vanderbilt PP)
 Gauss-broadening in eV      SIGMA  =   0.05


--------------------------------------------------------------------------------------------------------


  energy-cutoff  :      520.00
  volume of cell :     1722.75
      direct lattice vectors                 reciprocal lattice vectors
    12.448330039 -0.000000763 -0.000000818     0.080332060  0.000000005  0.000000007
    -0.000000766 12.503272316  0.000002154     0.000000005  0.079979063 -0.000000018
    -0.000000936  0.000002454 11.068494533     0.000000006 -0.000000016  0.090346523

  length of vectors
    12.448330039 12.503272316 11.068494533     0.080332060  0.079979063  0.090346523


 
 k-points in units of 2pi/SCALE and weight: KPOINTS created by Atomic Simulation Env
   0.00000000  0.00000000  0.00000000       0.125
   0.04016603  0.00000000  0.00000000       0.125
   0.00000000  0.03998953 -0.00000001       0.125
   0.04016603  0.03998953 -0.00000001       0.125
   0.00000000 -0.00000001  0.04517326       0.125
   0.04016603 -0.00000001  0.04517327       0.125
   0.00000001  0.03998952  0.04517325       0.125
   0.04016604  0.03998953  0.04517326       0.125
 
 k-points in reciprocal lattice and weights: KPOINTS created by Atomic Simulation Env
   0.00000000  0.00000000  0.00000000       0.125
   0.50000000  0.00000000  0.00000000       0.125
   0.00000000  0.50000000  0.00000000       0.125
   0.50000000  0.50000000  0.00000000       0.125
   0.00000000  0.00000000  0.50000000       0.125
   0.50000000  0.00000000  0.50000000       0.125
   0.00000000  0.50000000  0.50000000       0.125
   0.50000000  0.50000000  0.50000000       0.125
 
 position of ions in fractional coordinates (direct lattice) 
   0.08534656  0.02676031  0.12706425
   0.26195015  0.86372256  0.36654972
   0.56196392  0.20718825  0.35183003
   0.58448831  0.52482932  0.37914137
   0.58068854  0.88994385  0.37459150
   0.91925430  0.19771316  0.35950197
   0.89450046  0.53579342  0.37183866
   0.91175167  0.87728821  0.38356775
   0.06395122  0.12882598  0.62895937
   0.08234497  0.47258115  0.61107445
   0.07335548  0.82487470  0.63374528
   0.41865574  0.17624264  0.63782167
   0.39507578  0.48839284  0.62915100
   0.42138809  0.82542855  0.60090107
   0.75683905  0.14316975  0.59777945
   0.77659378  0.50281344  0.62098132
   0.22650476  0.56169215  0.39593136
   0.24832716  0.20058228  0.38353012
   0.72086515  0.78924609  0.61241383
   0.92787188  0.66354372  0.88940902
   0.88087819  0.96829924  0.86989663
   0.06783341  0.39325468  0.12644114
   0.07578086  0.71161133  0.13620628
   0.40026278  0.04349879  0.12668316
   0.38492794  0.39698077  0.12445413
   0.74239123  0.03288246  0.11234120
   0.75935900  0.36432067  0.11870439
   0.43235560  0.70394874  0.12263602
   0.20915600  0.30492652  0.85331522
   0.24081326  0.64893663  0.86054621
   0.26765950  0.99236248  0.85826008
   0.58322954  0.33569342  0.86913915
   0.56700560  0.64275613  0.88279689
   0.57740464  0.97640079  0.86257893
   0.89579652  0.31490070  0.87661903
   0.72074551  0.71749934  0.11504808
   0.89005055  0.99806979  0.63379079
   0.23945838  0.34406838  0.63258558
   0.23994303  0.69032209  0.64199198
   0.57166970  0.03755653  0.63686139
   0.54407059  0.34321619  0.63779428
   0.55766034  0.66898192  0.64789826
   0.91353400  0.34556883  0.63614804
   0.72636918  0.02227592  0.34220571
   0.06211612  0.01908553  0.34750773
   0.07481526  0.34849169  0.34933916
   0.04872965  0.67588770  0.36749566
   0.39617030  0.03207900  0.36525821
   0.39222721  0.35324054  0.35105750
   0.38601079  0.68876381  0.35771605
   0.21711472  0.99724968  0.64326762
   0.88169589  0.67120088  0.66276895
   0.89662241  0.82836738  0.14656834
   0.23792645  0.17402854  0.14487947
   0.89069315  0.18441851  0.12946057
   0.73258020  0.33739193  0.35982460
   0.05471803  0.17421275  0.85766683
   0.07583533  0.52814967  0.85565124
   0.04494072  0.84364973  0.85511694
   0.38279528  0.18196486  0.86900873
   0.39016147  0.50909503  0.87263442
   0.41045841  0.85881091  0.82978304
   0.72192186  0.18787054  0.82320447
   0.71303600  0.50123702  0.83991387
   0.72713974  0.83331096  0.84448723
   0.22490509  0.53057885  0.15018884
   0.23458333  0.85467841  0.13316231
   0.56952523  0.18245301  0.13797667
   0.55297336  0.51283973  0.15105775
   0.56851457  0.85369960  0.13826677
   0.90142392  0.52450965  0.13831835
   0.72984590  0.66979154  0.35249144
 
 position of ions in cartesian coordinates  (Angst):
   1.06242196  0.33459163  1.40640997
   3.26084094 10.79935903  4.05715527
   6.99551187  2.59053151  3.89422872
   7.27590263  6.56208441  4.19652485
   7.22860161 11.12721082  4.14616537
  11.44318041  2.47206168  3.97914531
  11.13503621  6.69917123  4.11569456
  11.34978471 10.96897362  4.24551871
   0.79608521  1.61074778  6.96163358
   1.02505645  5.90881224  6.76367519
   0.91315196 10.31363455  7.01460784
   5.21156413  2.20361101  7.05972565
   4.91803268  6.10650987  6.96375510
   5.24557683 10.32055914  6.65107162
   9.42138163  1.79009128  6.61651821
   9.66729478  6.28681424  6.87332882
   2.81960526  7.02299073  4.38236509
   3.09125787  2.50793567  4.24510123
   8.97356610  9.86815975  6.77850019
  11.55045404  8.29646926  9.84441953
  10.96546089 12.10691049  9.62844748
   0.84441223  4.91697067  1.39951386
   0.94334445  8.89747047  1.50759999
   4.98260304  0.54387727  1.40219164
   4.79170960  4.96355863  1.37752045
   9.24153091  0.41113811  1.24344741
   9.45275106  4.55520025  1.31387907
   5.38210453  8.80166277  1.35739729
   2.60364194  3.81258120  9.44491536
   2.99772162  8.11383329  9.52495225
   3.33191220 12.40778017  9.49964888
   7.26023274  4.19726793  9.62006221
   7.05827149  8.03655671  9.77123346
   7.18772197 12.20820666  9.54745184
  11.15116961  3.93729063  9.70285290
   8.97207729  8.97108940  1.27341000
  11.07964168 12.47913930  7.01511128
   2.98085608  4.30198204  7.00177052
   2.98688884  8.63128642  7.10588597
   7.11633249  0.46958065  7.04909647
   6.77276947  4.29132670  7.05942275
   6.94193880  8.36446431  7.17125936
  11.37197192  4.32074203  7.04120106
   9.04208289  0.27852215  3.78770146
   0.77324161  0.23863243  3.84638737
   0.93132441  4.35728735  3.86665927
   0.60660188  8.45080889  4.06762509
   4.93165825  0.40109312  4.04285824
   4.88257312  4.41666319  3.88567846
   4.80518891  8.61180203  3.95937929
   2.70271428 12.46888576  7.12000609
  10.97564031  8.39220832  7.33585519
  11.16145095 10.35730258  1.62229187
   2.96178668  2.17592640  1.60359775
  11.08764199  2.30583453  1.43293325
   9.11939953  4.21850348  3.98271678
   0.68114718  2.17823154  9.49308094
   0.94402202  6.60360117  9.47077216
   0.55943545 10.54838433  9.46485891
   4.76516100  2.27515800  9.61861844
   4.85685760  6.36535559  9.65875004
   5.10952030 10.73794839  9.18445057
   8.98672065  2.34899800  9.11163397
   8.87610630  6.26710451  9.29658254
   9.05167409 10.41911540  9.34720345
   2.79969223  6.63397210  1.66236528
   2.92016998 10.68627709  1.47390797
   7.08963777  2.28125957  1.52719390
   6.88359430  6.41217472  1.67198256
   7.07705620 10.67403849  1.53040633
  11.22122191  6.55808670  1.53097625
   9.08536185  8.37458627  3.90155045
 


--------------------------------------------------------------------------------------------------------


 k-point   1 :   0.0000 0.0000 0.0000  plane waves:   46361
 k-point   2 :   0.5000 0.0000 0.0000  plane waves:   46390
 k-point   3 :   0.0000 0.5000 0.0000  plane waves:   46366
 k-point   4 :   0.5000 0.5000 0.0000  plane waves:   46484
 k-point   5 :   0.0000 0.0000 0.5000  plane waves:   46410
 k-point   6 :   0.5000 0.0000 0.5000  plane waves:   46372
 k-point   7 :   0.0000 0.5000 0.5000  plane waves:   46400
 k-point   8 :   0.5000 0.5000 0.5000  plane waves:   46384

 maximum and minimum number of plane-waves per node :      5860     5744

 maximum number of plane-waves:     46484
 maximum index in each direction: 
   IXMAX=   23   IYMAX=   23   IZMAX=   20
   IXMIN=  -23   IYMIN=  -23   IZMIN=  -21


 parallel 3D FFT for wavefunctions:
    minimum data exchange during FFTs selected (reduces bandwidth)
 parallel 3D FFT for charge:
    minimum data exchange during FFTs selected (reduces bandwidth)


 total amount of memory used by VASP MPI-rank0   110764. kBytes
=======================================================================

   base      :      30000. kBytes
   nonl-proj :      16355. kBytes
   fftplans  :       6179. kBytes
   grid      :      15593. kBytes
   one-center:        146. kBytes
   wavefun   :      42491. kBytes
 
     INWAV:  cpu time      0.0000: real time      0.0001
 Broyden mixing: mesh for mixing (old mesh)
   NGX = 47   NGY = 47   NGZ = 41
  (NGX  =192   NGY  =192   NGZ  =168)
  gives a total of  90569 points

 initial charge density was supplied:
 charge density of overlapping atoms calculated
 number of electron     360.0000000 magnetization      72.0000000
 keeping initial charge density in first step


--------------------------------------------------------------------------------------------------------


 Maximum index for augmentation-charges           688 (set IRDMAX)


--------------------------------------------------------------------------------------------------------


 First call to EWALD:  gamma=   0.148
 Maximum number of real-space cells 3x 3x 3
 Maximum number of reciprocal cells 3x 3x 3

    FEWALD:  cpu time      0.0076: real time      0.0076


--------------------------------------- Ionic step        1  -------------------------------------------




--------------------------------------- Iteration      1(   1)  ---------------------------------------


    POTLOK:  cpu time      0.1432: real time      0.1441
    SETDIJ:  cpu time      0.5998: real time      0.6015
     EDDAV:  cpu time      8.6176: real time      8.6599
       DOS:  cpu time      0.0015: real time      0.0015
    --------------------------------------------
      LOOP:  cpu time      9.3621: real time      9.4069

 eigenvalue-minimisations  :  7168
 total energy-change (2. order) : 0.1817724E+04  (-0.1420083E+05)
 number of electron     360.0000000 magnetization      72.0000000
 augmentation part      360.0000000 magnetization      72.0000000

 Free energy of the ion-electron system (eV)
  ---------------------------------------------------
  alpha Z        PSCENC =       796.68940128
  Ewald energy   TEWEN  =    -12865.11380465
  -Hartree energ DENC   =     -1108.30709820
  -exchange      EXHF   =         0.00000000
  -V(xc)+E(xc)   XCENC  =      -293.70579207
  PAW double counting   =     10738.42099860    -9719.93139476
  entropy T*S    EENTRO =        -0.01729555
  eigenvalues    EBANDS =      1233.23724034
  atomic energy  EATOM  =     13036.45147835
  Solvation  Ediel_sol  =         0.00000000
  ---------------------------------------------------
  free energy    TOTEN  =      1817.72373334 eV

  energy without entropy =     1817.74102889  energy(sigma->0) =     1817.73238111


--------------------------------------------------------------------------------------------------------




--------------------------------------- Iteration      1(   2)  ---------------------------------------


     EDDAV:  cpu time      9.7542: real time      9.8016
       DOS:  cpu time      0.0013: real time      0.0013
    --------------------------------------------
      LOOP:  cpu time      9.7555: real time      9.8029

 eigenvalue-minimisations  :  8480
 total energy-change (2. order) :-0.1881798E+04  (-0.1805481E+04)
 number of electron     360.0000000 magnetization      72.0000000
 augmentation part      360.0000000 magnetization      72.0000000

 Free energy of the ion-electron system (eV)
  ---------------------------------------------------
  alpha Z        PSCENC =       796.68940128
  Ewald energy   TEWEN  =    -12865.11380465
  -Hartree energ DENC   =     -1108.30709820
  -exchange      EXHF   =         0.00000000
  -V(xc)+E(xc)   XCENC  =      -293.70579207
  PAW double counting   =     10738.42099860    -9719.93139476
  entropy T*S    EENTRO =        -0.01418221
  eigenvalues    EBANDS =      -648.56388222
  atomic energy  EATOM  =     13036.45147835
  Solvation  Ediel_sol  =         0.00000000
  ---------------------------------------------------
  free energy    TOTEN  =       -64.07427588 eV

  energy without entropy =      -64.06009367  energy(sigma->0) =      -64.06718478


--------------------------------------------------------------------------------------------------------




--------------------------------------- Iteration      1(   3)  ---------------------------------------


     EDDAV:  cpu time      9.7833: real time      9.8315
       DOS:  cpu time      0.0012: real time      0.0012
    --------------------------------------------
      LOOP:  cpu time      9.7845: real time      9.8328

 eigenvalue-minimisations  :  8528
 total energy-change (2. order) :-0.2174267E+03  (-0.2115733E+03)
 number of electron     360.0000000 magnetization      72.0000000
 augmentation part      360.0000000 magnetization      72.0000000

 Free energy of the ion-electron system (eV)
  ---------------------------------------------------
  alpha Z        PSCENC =       796.68940128
  Ewald energy   TEWEN  =    -12865.11380465
  -Hartree energ DENC   =     -1108.30709820
  -exchange      EXHF   =         0.00000000
  -V(xc)+E(xc)   XCENC  =      -293.70579207
  PAW double counting   =     10738.42099860    -9719.93139476
  entropy T*S    EENTRO =        -0.00007724
  eigenvalues    EBANDS =      -866.00469347
  atomic energy  EATOM  =     13036.45147835
  Solvation  Ediel_sol  =         0.00000000
  ---------------------------------------------------
  free energy    TOTEN  =      -281.50098216 eV

  energy without entropy =     -281.50090492  energy(sigma->0) =     -281.50094354


--------------------------------------------------------------------------------------------------------




--------------------------------------- Iteration      1(   4)  ---------------------------------------


     EDDAV:  cpu time     10.0265: real time     10.0851
       DOS:  cpu time      0.0011: real time      0.0011
    --------------------------------------------
      LOOP:  cpu time     10.0276: real time     10.0863

 eigenvalue-minimisations  :  8800
 total energy-change (2. order) :-0.8099453E+01  (-0.8006980E+01)
 number of electron     360.0000000 magnetization      72.0000000
 augmentation part      360.0000000 magnetization      72.0000000

 Free energy of the ion-electron system (eV)
  ---------------------------------------------------
  alpha Z        PSCENC =       796.68940128
  Ewald energy   TEWEN  =    -12865.11380465
  -Hartree energ DENC   =     -1108.30709820
  -exchange      EXHF   =         0.00000000
  -V(xc)+E(xc)   XCENC  =      -293.70579207
  PAW double counting   =     10738.42099860    -9719.93139476
  entropy T*S    EENTRO =        -0.00000416
  eigenvalues    EBANDS =      -874.10421976
  atomic energy  EATOM  =     13036.45147835
  Solvation  Ediel_sol  =         0.00000000
  ---------------------------------------------------
  free energy    TOTEN  =      -289.60043537 eV

  energy without entropy =     -289.60043121  energy(sigma->0) =     -289.60043329


--------------------------------------------------------------------------------------------------------




--------------------------------------- Iteration      1(   5)  ---------------------------------------


     EDDAV:  cpu time     10.1953: real time     10.2492
       DOS:  cpu time      0.0010: real time      0.0010
    CHARGE:  cpu time      0.4360: real time      0.4377
    MIXING:  cpu time      0.0072: real time      0.0073
    --------------------------------------------
      LOOP:  cpu time     10.6395: real time     10.6951

 eigenvalue-minimisations  :  9016
 total energy-change (2. order) :-0.2867280E+00  (-0.2858851E+00)
 number of electron     359.9999997 magnetization      48.7738810
 augmentation part      -66.7918391 magnetization      48.9878658

 Broyden mixing:
  rms(total) = 0.29110E+01    rms(broyden)= 0.29110E+01
  rms(prec ) = 0.30704E+01
  weight for this iteration     100.00

 Free energy of the ion-electron system (eV)
  ---------------------------------------------------
  alpha Z        PSCENC =       796.68940128
  Ewald energy   TEWEN  =    -12865.11380465
  -Hartree energ DENC   =     -1108.30709820
  -exchange      EXHF   =         0.00000000
  -V(xc)+E(xc)   XCENC  =      -293.70579207
  PAW double counting   =     10738.42099860    -9719.93139476
  entropy T*S    EENTRO =        -0.00000420
  eigenvalues    EBANDS =      -874.39094769
  atomic energy  EATOM  =     13036.45147835
  Solvation  Ediel_sol  =         0.00000000
  ---------------------------------------------------
  free energy    TOTEN  =      -289.88716334 eV

  energy without entropy =     -289.88715915  energy(sigma->0) =     -289.88716125


--------------------------------------------------------------------------------------------------------




--------------------------------------- Iteration      1(   6)  ---------------------------------------


    POTLOK:  cpu time      0.1353: real time      0.1366
    SETDIJ:  cpu time      0.6039: real time      0.6059
     EDDAV:  cpu time      9.2822: real time      9.3264
       DOS:  cpu time      0.0010: real time      0.0010
    CHARGE:  cpu time      0.4188: real time      0.4216
    MIXING:  cpu time      0.0075: real time      0.0075
    --------------------------------------------
      LOOP:  cpu time     10.4487: real time     10.4991

 eigenvalue-minimisations  :  7960
 total energy-change (2. order) : 0.3126751E+00  (-0.2632801E+01)
 number of electron     359.9999997 magnetization      27.9817829
 augmentation part      -66.1824535 magnetization      29.1603425

 Broyden mixing:
  rms(total) = 0.17210E+01    rms(broyden)= 0.17210E+01
  rms(prec ) = 0.17579E+01
  weight for this iteration     100.00

 eigenvalues of (default mixing * dielectric matrix)
  average eigenvalue GAMMA=   1.0061
  1.0061

 Free energy of the ion-electron system (eV)
  ---------------------------------------------------
  alpha Z        PSCENC =       796.68940128
  Ewald energy   TEWEN  =    -12865.11380465
  -Hartree energ DENC   =     -1161.33638383
  -exchange      EXHF   =         0.00000000
  -V(xc)+E(xc)   XCENC  =      -287.15584871
  PAW double counting   =     13025.10133821   -12010.13301985
  entropy T*S    EENTRO =        -0.00000323
  eigenvalues    EBANDS =      -824.07764579
  atomic energy  EATOM  =     13036.45147835
  Solvation  Ediel_sol  =         0.00000000
  ---------------------------------------------------
  free energy    TOTEN  =      -289.57448821 eV

  energy without entropy =     -289.57448498  energy(sigma->0) =     -289.57448660


--------------------------------------------------------------------------------------------------------




--------------------------------------- Iteration      1(   7)  ---------------------------------------


    POTLOK:  cpu time      0.1315: real time      0.1324
    SETDIJ:  cpu time      0.6043: real time      0.6062
     EDDAV:  cpu time      9.4642: real time      9.5130
       DOS:  cpu time      0.0010: real time      0.0010
    CHARGE:  cpu time      0.4258: real time      0.4274
    MIXING:  cpu time      0.0073: real time      0.0074
    --------------------------------------------
      LOOP:  cpu time     10.6342: real time     10.6873

 eigenvalue-minimisations  :  8048
 total energy-change (2. order) :-0.7258842E+01  (-0.8651038E+00)
 number of electron     359.9999997 magnetization       9.1566318
 augmentation part      -66.1738194 magnetization       9.8282414

 Broyden mixing:
  rms(total) = 0.91230E+00    rms(broyden)= 0.91230E+00
  rms(prec ) = 0.92890E+00
  weight for this iteration     100.00

 eigenvalues of (default mixing * dielectric matrix)
  average eigenvalue GAMMA=   1.4581
  0.8612  2.0550

 Free energy of the ion-electron system (eV)
  ---------------------------------------------------
  alpha Z        PSCENC =       796.68940128
  Ewald energy   TEWEN  =    -12865.11380465
  -Hartree energ DENC   =     -1177.71803450
  -exchange      EXHF   =         0.00000000
  -V(xc)+E(xc)   XCENC  =      -290.12802819
  PAW double counting   =     15105.03837358   -14091.69338793
  entropy T*S    EENTRO =        -0.00000000
  eigenvalues    EBANDS =      -810.35932834
  atomic energy  EATOM  =     13036.45147835
  Solvation  Ediel_sol  =         0.00000000
  ---------------------------------------------------
  free energy    TOTEN  =      -296.83333041 eV

  energy without entropy =     -296.83333041  energy(sigma->0) =     -296.83333041


--------------------------------------------------------------------------------------------------------




--------------------------------------- Iteration      1(   8)  ---------------------------------------


    POTLOK:  cpu time      0.1318: real time      0.1325
    SETDIJ:  cpu time      0.6048: real time      0.6069
     EDDAV:  cpu time      9.5472: real time      9.5935
       DOS:  cpu time      0.0037: real time      0.0037
    CHARGE:  cpu time      0.4242: real time      0.4261
    MIXING:  cpu time      0.0083: real time      0.0084
    --------------------------------------------
      LOOP:  cpu time     10.7200: real time     10.7710

 eigenvalue-minimisations  :  8136
 total energy-change (2. order) :-0.3227897E+01  (-0.1712813E+00)
 number of electron     359.9999997 magnetization       4.2802640
 augmentation part      -66.1882596 magnetization       4.5861611

 Broyden mixing:
  rms(total) = 0.32837E+00    rms(broyden)= 0.32837E+00
  rms(prec ) = 0.33357E+00
  weight for this iteration     100.00

 eigenvalues of (default mixing * dielectric matrix)
  average eigenvalue GAMMA=   1.3621
  2.5092  0.9232  0.6538

 Free energy of the ion-electron system (eV)
  ---------------------------------------------------
  alpha Z        PSCENC =       796.68940128
  Ewald energy   TEWEN  =    -12865.11380465
  -Hartree energ DENC   =     -1182.29016521
  -exchange      EXHF   =         0.00000000
  -V(xc)+E(xc)   XCENC  =      -289.80558778
  PAW double counting   =     16897.44576207   -15885.05280720
  entropy T*S    EENTRO =        -0.00000000
  eigenvalues    EBANDS =      -808.38550391
  atomic energy  EATOM  =     13036.45147835
  Solvation  Ediel_sol  =         0.00000000
  ---------------------------------------------------
  free energy    TOTEN  =      -300.06122707 eV

  energy without entropy =     -300.06122707  energy(sigma->0) =     -300.06122707


--------------------------------------------------------------------------------------------------------




--------------------------------------- Iteration      1(   9)  ---------------------------------------


    POTLOK:  cpu time      0.1309: real time      0.1316
    SETDIJ:  cpu time      0.6045: real time      0.6066
     EDDAV:  cpu time     10.3601: real time     10.4091
       DOS:  cpu time      0.0009: real time      0.0009
    CHARGE:  cpu time      0.4207: real time      0.4222
    MIXING:  cpu time      0.0079: real time      0.0079
    --------------------------------------------
      LOOP:  cpu time     11.5250: real time     11.5784

 eigenvalue-minimisations  :  9096
 total energy-change (2. order) :-0.3820756E+00  (-0.4300261E-01)
 number of electron     359.9999997 magnetization       2.2744141
 augmentation part      -66.2226827 magnetization       2.4244217

 Broyden mixing:
  rms(total) = 0.14640E+00    rms(broyden)= 0.14640E+00
  rms(prec ) = 0.14830E+00
  weight for this iteration     100.00

 eigenvalues of (default mixing * dielectric matrix)
  average eigenvalue GAMMA=   1.3297
  2.6363  1.2303  0.8314  0.6209

 Free energy of the ion-electron system (eV)
  ---------------------------------------------------
  alpha Z        PSCENC =       796.68940128
  Ewald energy   TEWEN  =    -12865.11380465
  -Hartree energ DENC   =     -1181.53446101
  -exchange      EXHF   =         0.00000000
  -V(xc)+E(xc)   XCENC  =      -289.82315949
  PAW double counting   =     17192.65112338   -16180.60460838
  entropy T*S    EENTRO =        -0.00000000
  eigenvalues    EBANDS =      -809.15927215
  atomic energy  EATOM  =     13036.45147835
  Solvation  Ediel_sol  =         0.00000000
  ---------------------------------------------------
  free energy    TOTEN  =      -300.44330269 eV

  energy without entropy =     -300.44330269  energy(sigma->0) =     -300.44330269


--------------------------------------------------------------------------------------------------------




--------------------------------------- Iteration      1(  10)  ---------------------------------------


    POTLOK:  cpu time      0.1333: real time      0.1342
    SETDIJ:  cpu time      0.6020: real time      0.6038
     EDDAV:  cpu time      9.4873: real time      9.5409
       DOS:  cpu time      0.0008: real time      0.0008
    CHARGE:  cpu time      0.4136: real time      0.4152
    MIXING:  cpu time      0.0077: real time      0.0077
    --------------------------------------------
      LOOP:  cpu time     10.6446: real time     10.7026

 eigenvalue-minimisations  :  8128
 total energy-change (2. order) :-0.9866138E-01  (-0.9056321E-02)
 number of electron     359.9999997 magnetization       0.7536864
 augmentation part      -66.2221862 magnetization       0.8214821

 Broyden mixing:
  rms(total) = 0.72987E-01    rms(broyden)= 0.72987E-01
  rms(prec ) = 0.74091E-01
  weight for this iteration     100.00

 eigenvalues of (default mixing * dielectric matrix)
  average eigenvalue GAMMA=   1.3749
  2.7006  1.7499  0.9716  0.8261  0.6262

 Free energy of the ion-electron system (eV)
  ---------------------------------------------------
  alpha Z        PSCENC =       796.68940128
  Ewald energy   TEWEN  =    -12865.11380465
  -Hartree energ DENC   =     -1181.85688865
  -exchange      EXHF   =         0.00000000
  -V(xc)+E(xc)   XCENC  =      -289.81297712
  PAW double counting   =     17198.73554554   -16186.70338361
  entropy T*S    EENTRO =        -0.00000000
  eigenvalues    EBANDS =      -808.93133519
  atomic energy  EATOM  =     13036.45147835
  Solvation  Ediel_sol  =         0.00000000
  ---------------------------------------------------
  free energy    TOTEN  =      -300.54196406 eV

  energy without entropy =     -300.54196406  energy(sigma->0) =     -300.54196406


--------------------------------------------------------------------------------------------------------




--------------------------------------- Iteration      1(  11)  ---------------------------------------


    POTLOK:  cpu time      0.1302: real time      0.1308
    SETDIJ:  cpu time      0.6063: real time      0.6083
     EDDAV:  cpu time     10.2636: real time     10.3397
       DOS:  cpu time      0.0008: real time      0.0008
    CHARGE:  cpu time      0.4186: real time      0.4205
    MIXING:  cpu time      0.0077: real time      0.0077
    --------------------------------------------
      LOOP:  cpu time     11.4272: real time     11.5078

 eigenvalue-minimisations  :  9008
 total energy-change (2. order) :-0.3115300E-01  (-0.3566464E-02)
 number of electron     359.9999997 magnetization       0.2053318
 augmentation part      -66.2085330 magnetization       0.2243617

 Broyden mixing:
  rms(total) = 0.28919E-01    rms(broyden)= 0.28919E-01
  rms(prec ) = 0.29554E-01
  weight for this iteration     100.00

 eigenvalues of (default mixing * dielectric matrix)
  average eigenvalue GAMMA=   1.4008
  2.8935  2.1717  1.1643  0.8540  0.6980  0.6232

 Free energy of the ion-electron system (eV)
  ---------------------------------------------------
  alpha Z        PSCENC =       796.68940128
  Ewald energy   TEWEN  =    -12865.11380465
  -Hartree energ DENC   =     -1182.92506740
  -exchange      EXHF   =         0.00000000
  -V(xc)+E(xc)   XCENC  =      -289.77494057
  PAW double counting   =     17121.05120966   -16108.98939731
  entropy T*S    EENTRO =        -0.00000000
  eigenvalues    EBANDS =      -807.96199643
  atomic energy  EATOM  =     13036.45147835
  Solvation  Ediel_sol  =         0.00000000
  ---------------------------------------------------
  free energy    TOTEN  =      -300.57311707 eV

  energy without entropy =     -300.57311707  energy(sigma->0) =     -300.57311707


--------------------------------------------------------------------------------------------------------




--------------------------------------- Iteration      1(  12)  ---------------------------------------


    POTLOK:  cpu time      0.1321: real time      0.1335
    SETDIJ:  cpu time      0.6059: real time      0.6078
     EDDAV:  cpu time      9.9503: real time      9.9976
       DOS:  cpu time      0.0009: real time      0.0009
    CHARGE:  cpu time      0.4247: real time      0.4266
    MIXING:  cpu time      0.0084: real time      0.0084
    --------------------------------------------
      LOOP:  cpu time     11.1223: real time     11.1749

 eigenvalue-minimisations  :  8488
 total energy-change (2. order) :-0.3390676E-02  (-0.4507454E-03)
 number of electron     359.9999997 magnetization       0.0650389
 augmentation part      -66.2083604 magnetization       0.0703967

 Broyden mixing:
  rms(total) = 0.11503E-01    rms(broyden)= 0.11503E-01
  rms(prec ) = 0.12113E-01
  weight for this iteration     100.00

 eigenvalues of (default mixing * dielectric matrix)
  average eigenvalue GAMMA=   1.3622
  2.9945  2.3281  1.1895  0.8801  0.8801  0.6084  0.6545

 Free energy of the ion-electron system (eV)
  ---------------------------------------------------
  alpha Z        PSCENC =       796.68940128
  Ewald energy   TEWEN  =    -12865.11380465
  -Hartree energ DENC   =     -1183.00337905
  -exchange      EXHF   =         0.00000000
  -V(xc)+E(xc)   XCENC  =      -289.77802233
  PAW double counting   =     17085.74157965   -16073.65701527
  entropy T*S    EENTRO =        -0.00000000
  eigenvalues    EBANDS =      -807.90674572
  atomic energy  EATOM  =     13036.45147835
  Solvation  Ediel_sol  =         0.00000000
  ---------------------------------------------------
  free energy    TOTEN  =      -300.57650774 eV

  energy without entropy =     -300.57650774  energy(sigma->0) =     -300.57650774


--------------------------------------------------------------------------------------------------------




--------------------------------------- Iteration      1(  13)  ---------------------------------------


    POTLOK:  cpu time      0.1308: real time      0.1315
    SETDIJ:  cpu time      0.6049: real time      0.6070
     EDDAV:  cpu time     10.9770: real time     11.0291
       DOS:  cpu time      0.0008: real time      0.0008
    CHARGE:  cpu time      0.4215: real time      0.4231
    MIXING:  cpu time      0.0081: real time      0.0081
    --------------------------------------------
      LOOP:  cpu time     12.1431: real time     12.1996

 eigenvalue-minimisations  :  9728
 total energy-change (2. order) :-0.1805267E-03  (-0.7507966E-04)
 number of electron     359.9999997 magnetization       0.0164083
 augmentation part      -66.2095339 magnetization       0.0172266

 Broyden mixing:
  rms(total) = 0.46055E-02    rms(broyden)= 0.46055E-02
  rms(prec ) = 0.48361E-02
  weight for this iteration     100.00

 eigenvalues of (default mixing * dielectric matrix)
  average eigenvalue GAMMA=   1.3481
  3.0518  2.4306  1.0809  1.0809  1.0182  0.8648  0.6488  0.6091

 Free energy of the ion-electron system (eV)
  ---------------------------------------------------
  alpha Z        PSCENC =       796.68940128
  Ewald energy   TEWEN  =    -12865.11380465
  -Hartree energ DENC   =     -1182.92253230
  -exchange      EXHF   =         0.00000000
  -V(xc)+E(xc)   XCENC  =      -289.78660026
  PAW double counting   =     17071.93717770   -16059.84162711
  entropy T*S    EENTRO =        -0.00000000
  eigenvalues    EBANDS =      -807.99018127
  atomic energy  EATOM  =     13036.45147835
  Solvation  Ediel_sol  =         0.00000000
  ---------------------------------------------------
  free energy    TOTEN  =      -300.57668827 eV

  energy without entropy =     -300.57668827  energy(sigma->0) =     -300.57668827


--------------------------------------------------------------------------------------------------------




--------------------------------------- Iteration      1(  14)  ---------------------------------------


    POTLOK:  cpu time      0.1296: real time      0.1302
    SETDIJ:  cpu time      0.6058: real time      0.6079
     EDDAV:  cpu time      9.7518: real time      9.7988
       DOS:  cpu time      0.0007: real time      0.0007
    CHARGE:  cpu time      0.4251: real time      0.4267
    MIXING:  cpu time      0.0080: real time      0.0081
    --------------------------------------------
      LOOP:  cpu time     10.9210: real time     10.9724

 eigenvalue-minimisations  :  8344
 total energy-change (2. order) :-0.2117363E-04  (-0.9579084E-05)
 number of electron     359.9999997 magnetization       0.0052656
 augmentation part      -66.2091814 magnetization       0.0055834

 Broyden mixing:
  rms(total) = 0.17847E-02    rms(broyden)= 0.17847E-02
  rms(prec ) = 0.19006E-02
  weight for this iteration     100.00

 eigenvalues of (default mixing * dielectric matrix)
  average eigenvalue GAMMA=   1.3283
  3.0782  2.4551  1.4352  1.1636  0.8876  0.8876  0.7913  0.6129  0.6432

 Free energy of the ion-electron system (eV)
  ---------------------------------------------------
  alpha Z        PSCENC =       796.68940128
  Ewald energy   TEWEN  =    -12865.11380465
  -Hartree energ DENC   =     -1182.93517286
  -exchange      EXHF   =         0.00000000
  -V(xc)+E(xc)   XCENC  =      -289.78635690
  PAW double counting   =     17067.59185854   -16055.49358098
  entropy T*S    EENTRO =        -0.00000000
  eigenvalues    EBANDS =      -807.98053222
  atomic energy  EATOM  =     13036.45147835
  Solvation  Ediel_sol  =         0.00000000
  ---------------------------------------------------
  free energy    TOTEN  =      -300.57670944 eV

  energy without entropy =     -300.57670944  energy(sigma->0) =     -300.57670944


--------------------------------------------------------------------------------------------------------




--------------------------------------- Iteration      1(  15)  ---------------------------------------


    POTLOK:  cpu time      0.1304: real time      0.1311
    SETDIJ:  cpu time      0.6071: real time      0.6092
     EDDAV:  cpu time     10.0561: real time     10.1101
       DOS:  cpu time      0.0009: real time      0.0009
    CHARGE:  cpu time      0.4128: real time      0.4144
    MIXING:  cpu time      0.0090: real time      0.0090
    --------------------------------------------
      LOOP:  cpu time     11.2163: real time     11.2748

 eigenvalue-minimisations  :  8672
 total energy-change (2. order) :-0.3649556E-05  (-0.1988951E-05)
 number of electron     359.9999997 magnetization       0.0015225
 augmentation part      -66.2093263 magnetization       0.0017316

 Broyden mixing:
  rms(total) = 0.85067E-03    rms(broyden)= 0.85067E-03
  rms(prec ) = 0.90133E-03
  weight for this iteration     100.00

 eigenvalues of (default mixing * dielectric matrix)
  average eigenvalue GAMMA=   1.2995
  3.0897  2.4329  1.6810  1.1064  0.9567  0.9567  0.8350  0.7004  0.6182  0.6182

 Free energy of the ion-electron system (eV)
  ---------------------------------------------------
  alpha Z        PSCENC =       796.68940128
  Ewald energy   TEWEN  =    -12865.11380465
  -Hartree energ DENC   =     -1182.92079363
  -exchange      EXHF   =         0.00000000
  -V(xc)+E(xc)   XCENC  =      -289.78688008
  PAW double counting   =     17066.93745184   -16054.83823280
  entropy T*S    EENTRO =        -0.00000000
  eigenvalues    EBANDS =      -807.99533340
  atomic energy  EATOM  =     13036.45147835
  Solvation  Ediel_sol  =         0.00000000
  ---------------------------------------------------
  free energy    TOTEN  =      -300.57671309 eV

  energy without entropy =     -300.57671309  energy(sigma->0) =     -300.57671309


--------------------------------------------------------------------------------------------------------




--------------------------------------- Iteration      1(  16)  ---------------------------------------


    POTLOK:  cpu time      0.1303: real time      0.1310
    SETDIJ:  cpu time      0.6133: real time      0.6153
     EDDAV:  cpu time      6.8755: real time      6.9088
       DOS:  cpu time      0.0008: real time      0.0008
    --------------------------------------------
      LOOP:  cpu time      7.6198: real time      7.6559

 eigenvalue-minimisations  :  5112
 total energy-change (2. order) :-0.6716330E-06  (-0.1799183E-06)
 number of electron     359.9999997 magnetization       0.0015225
 augmentation part      -66.2093263 magnetization       0.0017316

 Free energy of the ion-electron system (eV)
  ---------------------------------------------------
  alpha Z        PSCENC =       796.68940128
  Ewald energy   TEWEN  =    -12865.11380465
  -Hartree energ DENC   =     -1182.91306522
  -exchange      EXHF   =         0.00000000
  -V(xc)+E(xc)   XCENC  =      -289.78727817
  PAW double counting   =     17066.79300845   -16054.69341599
  entropy T*S    EENTRO =        -0.00000000
  eigenvalues    EBANDS =      -808.00303781
  atomic energy  EATOM  =     13036.45147835
  Solvation  Ediel_sol  =         0.00000000
  ---------------------------------------------------
  free energy    TOTEN  =      -300.57671377 eV

  energy without entropy =     -300.57671377  energy(sigma->0) =     -300.57671377


--------------------------------------------------------------------------------------------------------




 average (electrostatic) potential at core
  the test charge radii are     1.1631  1.0808
  (the norm of the test charge is              1.0000)
       1 -33.3810       2 -33.4914       3 -33.1696       4 -33.5576       5 -33.7213
       6 -33.5239       7 -33.5164       8 -33.7071       9 -33.4401      10 -33.5443
      11 -33.5301      12 -33.2788      13 -33.4880      14 -33.6882      15 -33.3818
      16 -33.3653      17 -33.5677      18 -33.4472      19 -33.5484      20 -33.4569
      21 -33.5181      22 -33.2849      23 -33.5068      24 -33.4183      25 -33.2277
      26 -33.6389      27 -33.6253      28 -33.6384      29 -33.2631      30 -33.1555
      31 -33.2622      32 -33.3811      33 -33.6694      34 -33.3627      35 -33.6280
      36 -33.5925      37 -54.9991      38 -54.9950      39 -54.8334      40 -54.8075
      41 -54.6811      42 -55.0789      43 -54.8778      44 -54.9568      45 -54.8438
      46 -54.6662      47 -54.9215      48 -54.8729      49 -54.6042      50 -54.9120
      51 -54.8759      52 -55.0549      53 -54.7574      54 -54.6475      55 -54.8638
      56 -54.6611      57 -54.8870      58 -54.8123      59 -54.9043      60 -54.7254
      61 -54.7998      62 -54.9810      63 -54.7457      64 -54.8662      65 -55.0118
      66 -54.7521      67 -54.7996      68 -54.5976      69 -54.8434      70 -55.1671
      71 -54.9052      72 -54.8773
 
 
 
 E-fermi :   3.4263     XC(G=0):  -9.3712     alpha+bet : -8.8187

 Fermi energy:         3.4262953215

 spin component 1

 k-point     1 :       0.0000    0.0000    0.0000
  band No.  band energies     occupation 
      1     -10.9318      1.00000
      2     -10.5451      1.00000
      3     -10.4236      1.00000
      4     -10.3832      1.00000
      5     -10.3311      1.00000
      6     -10.2777      1.00000
      7     -10.0968      1.00000
      8     -10.0479      1.00000
      9      -9.9869      1.00000
     10      -9.9293      1.00000
     11      -9.9060      1.00000
     12      -9.8830      1.00000
     13      -9.8587      1.00000
     14      -9.7945      1.00000
     15      -9.7164      1.00000
     16      -9.6392      1.00000
     17      -9.6217      1.00000
     18      -9.5824      1.00000
     19      -9.5411      1.00000
     20      -9.5111      1.00000
     21      -9.4377      1.00000
     22      -9.4169      1.00000
     23      -9.3946      1.00000
     24      -9.3081      1.00000
     25      -9.2743      1.00000
     26      -9.2635      1.00000
     27      -9.2257      1.00000
     28      -9.2042      1.00000
     29      -9.1625      1.00000
     30      -9.1569      1.00000
     31      -9.1234      1.00000
     32      -9.1017      1.00000
     33      -9.0164      1.00000
     34      -8.9936      1.00000
     35      -8.9222      1.00000
     36      -8.8684      1.00000
     37      -5.4880      1.00000
     38      -5.4466      1.00000
     39      -5.3287      1.00000
     40      -5.3077      1.00000
     41      -5.1842      1.00000
     42      -5.0991      1.00000
     43      -5.0536      1.00000
     44      -5.0009      1.00000
     45      -4.7960      1.00000
     46      -4.7848      1.00000
     47      -4.6486      1.00000
     48      -4.5142      1.00000
     49      -4.5071      1.00000
     50      -4.4784      1.00000
     51      -4.4733      1.00000
     52      -4.4156      1.00000
     53      -4.3934      1.00000
     54      -4.3535      1.00000
     55      -4.3145      1.00000
     56      -4.2724      1.00000
     57      -4.2589      1.00000
     58      -4.2391      1.00000
     59      -4.2195      1.00000
     60      -4.1585      1.00000
     61      -4.1249      1.00000
     62      -3.9959      1.00000
     63      -3.9870      1.00000
     64      -3.9322      1.00000
     65      -3.8760      1.00000
     66      -3.7809      1.00000
     67      -3.7071      1.00000
     68      -3.6742      1.00000
     69      -3.4804      1.00000
     70      -3.4405      1.00000
     71      -2.4818      1.00000
     72      -2.4065      1.00000
     73      -1.8014      1.00000
     74      -1.5832      1.00000
     75      -1.5430      1.00000
     76      -1.4835      1.00000
     77      -1.4287      1.00000
     78      -1.3708      1.00000
     79      -1.3344      1.00000
     80      -1.2454      1.00000
     81      -1.1725      1.00000
     82      -1.1447      1.00000
     83      -1.1066      1.00000
     84      -1.0936      1.00000
     85      -0.9784      1.00000
     86      -0.8781      1.00000
     87      -0.8207      1.00000
     88      -0.7556      1.00000
     89      -0.7289      1.00000
     90      -0.6442      1.00000
     91      -0.5981      1.00000
     92      -0.5862      1.00000
     93      -0.5535      1.00000
     94      -0.2972      1.00000
     95      -0.1498      1.00000
     96      -0.1309      1.00000
     97      -0.0487      1.00000
     98      -0.0122      1.00000
     99       0.0030      1.00000
    100       0.0853      1.00000
    101       0.0952      1.00000
    102       0.1344      1.00000
    103       0.1630      1.00000
    104       0.2077      1.00000
    105       0.2160      1.00000
    106       0.2628      1.00000
    107       0.2833      1.00000
    108       0.3264      1.00000
    109       0.3903      1.00000
    110       0.4424      1.00000
    111       0.4599      1.00000
    112       0.5173      1.00000
    113       0.5370      1.00000
    114       0.5622      1.00000
    115       0.6065      1.00000
    116       0.6442      1.00000
    117       0.6719      1.00000
    118       0.7036      1.00000
    119       0.7300      1.00000
    120       0.7586      1.00000
    121       0.7875      1.00000
    122       0.8320      1.00000
    123       0.8685      1.00000
    124       0.9042      1.00000
    125       0.9523      1.00000
    126       0.9843      1.00000
    127       1.0200      1.00000
    128       1.0379      1.00000
    129       1.0884      1.00000
    130       1.1049      1.00000
    131       1.1179      1.00000
    132       1.1489      1.00000
    133       1.2384      1.00000
    134       1.3273      1.00000
    135       1.3523      1.00000
    136       1.3591      1.00000
    137       1.4070      1.00000
    138       1.4217      1.00000
    139       1.4856      1.00000
    140       1.5060      1.00000
    141       1.5151      1.00000
    142       1.5691      1.00000
    143       1.5927      1.00000
    144       1.6568      1.00000
    145       1.7570      1.00000
    146       1.7789      1.00000
    147       1.7911      1.00000
    148       1.8161      1.00000
    149       1.8779      1.00000
[...]
   -.243E+01 -.117E+02 -.202E+02   0.230E+01 0.138E+02 0.223E+02   0.883E-01 -.250E+01 -.280E+01   0.542E-04 -.133E-04 -.147E-03
   -.357E+00 0.159E+02 0.186E+02   0.475E+00 -.185E+02 -.210E+02   0.402E+00 0.215E+01 0.275E+01   -.222E-03 -.226E-06 -.193E-03
   -.234E+01 0.853E+01 0.187E+02   0.244E+01 -.987E+01 -.198E+02   0.295E+00 0.116E+01 0.145E+01   -.132E-03 0.727E-04 0.304E-03
   0.578E+01 0.157E+02 0.183E+02   -.572E+01 -.170E+02 -.202E+02   -.482E+00 0.114E+01 0.173E+01   -.317E-03 0.404E-04 0.265E-03
   0.316E+01 0.204E+01 0.195E+02   -.308E+01 -.270E+01 -.213E+02   -.663E-01 0.910E+00 0.106E+01   -.698E-04 -.328E-03 0.262E-03
   0.759E+00 0.133E+02 0.210E+02   -.833E+00 -.145E+02 -.225E+02   0.245E+00 0.526E+00 0.143E+01   -.997E-04 -.130E-03 0.252E-03
   -.249E+02 -.566E+01 0.270E+02   0.267E+02 0.580E+01 -.285E+02   -.190E+01 -.949E-01 0.168E+01   0.249E-03 -.806E-04 0.123E-03
   0.624E+01 0.147E+02 0.263E+02   -.659E+01 -.163E+02 -.275E+02   0.121E+00 0.168E+01 0.120E+01   0.106E-03 0.120E-03 -.219E-03
   0.501E+00 0.161E+02 0.161E+02   -.641E+00 -.174E+02 -.173E+02   0.212E+00 0.154E+01 0.176E+01   -.213E-03 0.320E-03 -.370E-03
   -.147E+02 -.319E+01 -.196E+02   0.154E+02 0.438E+01 0.210E+02   -.123E+00 -.137E+01 -.116E+01   -.326E-03 0.111E-03 0.138E-03
   -.724E+01 -.144E+01 -.225E+02   0.824E+01 0.180E+01 0.243E+02   -.125E+01 -.509E+00 -.113E+01   -.678E-04 -.913E-04 0.113E-03
   0.966E+00 0.352E+01 -.183E+02   -.610E+00 -.307E+01 0.198E+02   -.774E+00 -.864E+00 -.128E+01   -.402E-03 0.507E-03 -.256E-04
   -.113E+01 -.171E+02 -.273E+02   0.942E+00 0.184E+02 0.289E+02   0.555E+00 -.769E+00 -.164E+01   -.118E-03 -.435E-03 0.227E-03
   -.111E+01 0.384E+01 -.240E+02   0.142E+01 -.370E+01 0.256E+02   0.103E+00 -.111E+01 -.200E+01   0.445E-03 -.306E-03 -.433E-04
   -.279E+01 -.118E+02 -.164E+02   0.312E+01 0.129E+02 0.179E+02   -.301E+00 -.144E+01 -.130E+01   0.236E-03 0.480E-04 -.237E-03
   -.214E+02 0.149E+01 -.123E+02   0.226E+02 -.141E+01 0.136E+02   -.797E+00 0.133E+00 -.157E+01   0.304E-04 0.206E-03 0.254E-03
   -.113E+02 -.366E+01 0.278E+02   0.125E+02 0.343E+01 -.301E+02   -.130E+01 0.195E-01 0.164E+01   0.683E-04 0.262E-03 0.452E-03
   -.232E+02 -.551E+00 0.244E+02   0.249E+02 0.774E+00 -.257E+02   -.106E+01 -.245E+00 0.846E+00   0.203E-04 -.416E-03 -.138E-03
   -.218E+01 -.202E+02 0.159E+02   0.241E+01 0.213E+02 -.170E+02   -.535E+00 -.291E+00 0.126E+01   -.119E-03 0.299E-04 -.475E-03
   0.126E+02 -.211E+02 0.296E+02   -.129E+02 0.228E+02 -.310E+02   -.805E-02 -.170E+01 0.155E+01   0.122E-03 0.168E-03 -.853E-03
   -.152E+02 0.179E+01 0.286E+02   0.164E+02 -.188E+01 -.303E+02   -.121E+01 0.740E-01 0.175E+01   -.144E-03 0.161E-03 -.432E-03
   -.503E+01 -.649E+01 -.225E+02   0.541E+01 0.663E+01 0.239E+02   -.573E+00 0.444E+00 -.209E+01   0.131E-03 0.635E-04 0.282E-03
   0.503E+01 0.146E+02 -.319E+02   -.516E+01 -.163E+02 0.338E+02   -.218E+00 0.129E+01 -.208E+01   0.221E-03 -.296E-04 0.618E-04
   0.543E+01 0.265E+02 -.166E+02   -.545E+01 -.282E+02 0.178E+02   -.378E-01 0.109E+01 -.168E+01   0.587E-04 0.463E-05 0.238E-03
   -.256E+02 -.124E+02 -.344E+02   0.272E+02 0.128E+02 0.365E+02   -.159E+01 -.678E+00 -.163E+01   0.287E-04 0.614E-04 0.309E-03
   -.118E+02 -.238E+01 -.319E+02   0.127E+02 0.262E+01 0.338E+02   -.104E+01 -.633E+00 -.231E+01   -.117E-03 -.832E-04 0.713E-04
   0.110E+01 0.148E+02 -.229E+02   -.109E+01 -.162E+02 0.241E+02   0.324E+00 0.148E+01 -.192E+01   -.320E-03 -.802E-05 0.132E-03
   0.587E+01 0.171E+02 -.333E+02   -.589E+01 -.191E+02 0.346E+02   0.455E+00 0.133E+01 -.122E+01   0.890E-04 0.216E-03 0.460E-03
   -.549E+01 0.935E+01 -.303E+02   0.549E+01 -.108E+02 0.315E+02   0.906E+00 0.164E+01 -.678E+00   -.522E-04 -.223E-03 0.158E-03
   -.181E+02 0.595E+01 -.320E+02   0.196E+02 -.600E+01 0.337E+02   -.128E+01 0.457E-01 -.115E+01   0.296E-03 -.935E-04 -.153E-04
   0.297E+01 0.457E+01 -.250E+02   -.319E+01 -.595E+01 0.260E+02   -.119E+00 0.138E+01 -.102E+01   -.119E-03 0.313E-03 0.770E-04
   -.427E+01 -.622E+01 0.228E+02   0.429E+01 0.755E+01 -.237E+02   -.199E+00 -.123E+01 0.126E+01   -.273E-03 -.241E-03 -.356E-03
   -.776E+01 0.507E+00 0.335E+02   0.837E+01 -.639E+00 -.352E+02   -.824E+00 0.774E-01 0.209E+01   0.157E-03 -.627E-04 -.434E-03
   -.170E+01 -.124E+02 0.451E+02   0.165E+01 0.135E+02 -.476E+02   -.949E-01 -.144E+01 0.126E+01   -.187E-05 -.268E-05 -.316E-04
   -.199E+02 0.527E+01 0.219E+02   0.211E+02 -.530E+01 -.233E+02   -.930E+00 0.504E+00 0.125E+01   0.103E-03 -.715E-04 -.325E-03
   0.859E+01 -.162E+02 0.184E+02   -.892E+01 0.175E+02 -.196E+02   0.308E+00 -.109E+01 0.157E+01   0.199E-04 0.803E-04 -.267E-03
   0.119E+02 -.115E+01 0.305E+02   -.123E+02 0.230E+01 -.319E+02   0.234E+00 -.171E+01 0.162E+01   0.434E-05 -.358E-03 -.445E-04
   0.475E+01 -.166E+02 -.155E+02   -.467E+01 0.178E+02 0.165E+02   -.132E+00 -.102E+01 -.112E+01   0.463E-04 -.299E-03 0.335E-03
 -----------------------------------------------------------------------------------------------
   -.142E+02 0.624E+00 0.282E+00   -.128E-12 0.178E-13 0.174E-12   0.142E+02 -.623E+00 -.281E+00   0.399E-03 -.955E-03 0.467E-03
 
 
 POSITION                                       TOTAL-FORCE (eV/Angst)
 -----------------------------------------------------------------------------------
      1.06242      0.33459      1.40641         0.367291      0.043960     -0.525552
      3.26084     10.79936      4.05716        -0.157231      0.263763     -0.314314
      6.99551      2.59053      3.89423         0.055444      0.297463      0.915992
      7.27590      6.56208      4.19652         0.180476     -0.288828     -0.041745
      7.22860     11.12721      4.14617        -0.393142     -0.001876     -0.090808
     11.44318      2.47206      3.97915         0.199914      0.322656     -0.045383
     11.13504      6.69917      4.11569        -0.071432     -0.153716     -0.356352
     11.34978     10.96897      4.24552        -0.139549      0.101561     -0.511978
      0.79609      1.61075      6.96163        -0.285795      0.349126      0.014884
      1.02506      5.90881      6.76368        -0.277732      0.192101      0.250709
      0.91315     10.31363      7.01461         0.481554      0.081626     -0.306914
      5.21156      2.20361      7.05973        -0.000040      0.130581      0.129040
      4.91803      6.10651      6.96376         0.114133     -0.282453      0.414627
      5.24558     10.32056      6.65107        -0.161062     -0.334561      0.272518
      9.42138      1.79009      6.61652        -0.593428      0.569557     -0.049855
      9.66729      6.28681      6.87333        -0.437103     -0.463405     -0.455006
      2.81961      7.02299      4.38237        -0.049835     -0.297220     -0.481330
      3.09126      2.50794      4.24510        -0.103188      0.477398     -0.522501
      8.97357      9.86816      6.77850         0.106565      0.445616      0.059640
     11.55045      8.29647      9.84442        -0.048704      0.315503      0.118217
     10.96546     12.10691      9.62845         0.187624      0.229358     -0.141788
      0.84441      4.91697      1.39951         0.193413     -0.146546     -0.206740
      0.94334      8.89747      1.50760         0.124967     -0.143151      0.064016
      4.98260      0.54388      1.40219         0.083962      0.353031      0.326664
      4.79171      4.96356      1.37752        -0.079097     -0.502680     -0.000342
      9.24153      0.41114      1.24345        -0.172637      0.592609      0.139092
      9.45275      4.55520      1.31388        -0.007639     -0.093239      0.705567
      5.38210      8.80166      1.35740        -0.556524     -0.448131      0.235727
      2.60364      3.81258      9.44492         0.581789      0.404301      0.724918
      2.99772      8.11383      9.52495         0.047217      0.501063      0.849476
      3.33191     12.40778      9.49965        -0.445508      0.714238      0.821232
      7.26023      4.19727      9.62006        -0.183305     -0.019252     -0.412498
      7.05827      8.03656      9.77123        -0.289483     -0.248747     -0.307154
      7.18772     12.20821      9.54745         0.041710      0.565258      0.071672
     11.15117      3.93729      9.70285        -0.041599     -0.339825     -0.662252
      8.97208      8.97109      1.27341         0.519418     -0.469948      0.304558
     11.07964     12.47914      7.01511         0.399382     -0.173964      0.312279
      2.98086      4.30198      7.00177        -0.419442     -0.130122     -0.226154
      2.98689      8.63129      7.10589         0.007190      0.247200     -0.777405
      7.11633      0.46958      7.04910         0.170946     -0.630688     -0.092831
      6.77277      4.29133      7.05942        -0.057257      0.039343      0.179892
      6.94194      8.36446      7.17126        -0.232782      0.066253      0.029754
     11.37197      4.32074      7.04120         0.072072      0.309588      0.559874
      9.04208      0.27852      3.78770         0.539664     -0.180049      0.225350
      0.77324      0.23863      3.84639        -0.252916     -0.152059      0.715811
      0.93132      4.35729      3.86666        -0.417863     -0.412278      0.219577
      0.60660      8.45081      4.06763         0.368407      0.542267     -0.103148
      4.93166      0.40109      4.04286         0.409372     -0.972157     -0.368834
      4.88257      4.41666      3.88568         0.032529     -0.382188      0.215395
      4.80519      8.61180      3.95938         0.432874      0.209753     -0.271570
      2.70271     12.46889      7.12001        -0.117273     -0.218122     -0.623732
     10.97564      8.39221      7.33586         0.575611     -0.023140     -0.431136
     11.16145     10.35730      1.62229        -0.302110      0.798581      0.149855
      2.96179      2.17593      1.60360        -0.220485     -0.035362      0.164311
     11.08764      2.30583      1.43293        -0.022186     -0.016906      0.015266
      9.11940      4.21850      3.98272        -0.194962      0.585421     -0.663481
      0.68115      2.17823      9.49308        -0.344626     -0.393537     -0.227642
      0.94402      6.60360      9.47077        -0.052042     -0.634779     -0.471478
      0.55944     10.54838      9.46486         0.010649     -0.333743      0.557692
      4.76516      2.27516      9.61862        -0.142800     -0.394515     -0.435584
      4.85686      6.36536      9.65875         0.332850      0.048781     -0.693068
      5.10952     10.73795      9.18445         0.436140     -0.653756      0.029020
      8.98672      2.34900      9.11163         0.907739      0.181646      0.574922
      8.87611      6.26710      9.29658         0.214207     -0.004379      0.549191
      9.05167     10.41912      9.34720        -0.340740      0.000101     -0.048091
      2.79969      6.63397      1.66237        -0.177902      0.098591      0.399181
      2.92017     10.68628      1.47391        -0.216623     -0.054547      0.372157
      7.08964      2.28126      1.52719        -0.141477     -0.389968     -1.229157
      6.88359      6.41217      1.67198         0.215853      0.474938     -0.140494
      7.07706     10.67404      1.53041        -0.025734      0.228195      0.393111
     11.22122      6.55809      1.53098        -0.182386     -0.557986      0.262931
      9.08536      8.37459      3.90155        -0.055324      0.196400     -0.107802
 -----------------------------------------------------------------------------------
    total drift:                                0.001070     -0.000042      0.000553


--------------------------------------------------------------------------------------------------------



  FREE ENERGIE OF THE ION-ELECTRON SYSTEM (eV)
  ---------------------------------------------------
  free  energy   TOTEN  =      -300.57671377 eV

  energy  without entropy=     -300.57671377  energy(sigma->0) =     -300.57671377
 


--------------------------------------------------------------------------------------------------------


    POTLOK:  cpu time      0.7331: real time      0.7359


--------------------------------------------------------------------------------------------------------


     LOOP+:  cpu time    182.3186: real time    183.2466
    4ORBIT:  cpu time      0.0000: real time      0.0000



 total charge

# of ion       s       p       d       tot
------------------------------------------
    1        1.329   0.757   0.055   2.141
    2        1.325   0.750   0.051   2.125
    3        1.311   0.810   0.064   2.185
    4        1.332   0.729   0.051   2.112
    5        1.317   0.757   0.052   2.125
    6        1.326   0.733   0.051   2.110
    7        1.313   0.770   0.059   2.143
    8        1.339   0.699   0.046   2.085
    9        1.317   0.785   0.055   2.157
   10        1.321   0.755   0.052   2.128
   11        1.325   0.762   0.056   2.142
   12        1.311   0.796   0.059   2.166
   13        1.326   0.749   0.055   2.129
   14        1.327   0.735   0.053   2.115
   15        1.322   0.784   0.059   2.165
   16        1.306   0.823   0.062   2.191
   17        1.322   0.742   0.055   2.120
   18        1.332   0.722   0.053   2.106
   19        1.312   0.796   0.061   2.169
   20        1.322   0.779   0.058   2.159
   21        1.318   0.779   0.057   2.154
   22        1.313   0.788   0.055   2.156
   23        1.324   0.753   0.056   2.132
   24        1.319   0.751   0.054   2.124
   25        1.324   0.781   0.059   2.164
   26        1.323   0.736   0.052   2.111
   27        1.326   0.715   0.045   2.087
   28        1.331   0.739   0.051   2.121
   29        1.317   0.807   0.060   2.183
   30        1.308   0.839   0.064   2.211
   31        1.310   0.834   0.063   2.206
   32        1.325   0.759   0.058   2.141
   33        1.313   0.760   0.054   2.127
   34        1.319   0.789   0.057   2.165
   35        1.321   0.730   0.047   2.098
   36        1.325   0.756   0.056   2.136
   37        1.476   2.313   0.034   3.822
   38        1.476   2.319   0.038   3.833
   39        1.475   2.305   0.031   3.811
   40        1.475   2.300   0.030   3.805
   41        1.477   2.301   0.031   3.808
   42        1.477   2.300   0.034   3.811
   43        1.481   2.278   0.029   3.787
   44        1.475   2.309   0.034   3.818
   45        1.474   2.314   0.032   3.821
   46        1.475   2.288   0.027   3.790
   47        1.476   2.299   0.031   3.806
   48        1.481   2.273   0.032   3.785
   49        1.475   2.295   0.028   3.798
   50        1.477   2.293   0.030   3.799
   51        1.476   2.320   0.034   3.830
   52        1.474   2.330   0.038   3.842
   53        1.473   2.297   0.027   3.797
   54        1.476   2.291   0.028   3.795
   55        1.476   2.288   0.029   3.793
   56        1.480   2.258   0.025   3.763
   57        1.478   2.302   0.032   3.812
   58        1.476   2.305   0.031   3.812
   59        1.477   2.310   0.034   3.821
   60        1.481   2.272   0.029   3.781
   61        1.478   2.284   0.029   3.791
   62        1.475   2.336   0.037   3.848
   63        1.476   2.297   0.029   3.802
   64        1.473   2.316   0.032   3.821
   65        1.475   2.316   0.035   3.826
   66        1.476   2.296   0.030   3.802
   67        1.481   2.269   0.028   3.778
   68        1.474   2.312   0.030   3.817
   69        1.476   2.299   0.030   3.805
   70        1.479   2.311   0.036   3.826
   71        1.480   2.285   0.032   3.797
   72        1.474   2.299   0.029   3.802
--------------------------------------------------
tot        100.704 110.325   3.116 214.145



 magnetization (x)

# of ion       s       p       d       tot
------------------------------------------
    1       -0.000   0.000   0.000   0.000
    2       -0.000   0.000   0.000   0.000
    3       -0.000  -0.000  -0.000  -0.000
    4       -0.000  -0.000   0.000  -0.000
    5       -0.000   0.000   0.000   0.000
    6       -0.000   0.000  -0.000   0.000
    7       -0.000   0.000   0.000   0.000
    8       -0.000   0.000   0.000   0.000
    9       -0.000  -0.000  -0.000  -0.000
   10       -0.000   0.000  -0.000   0.000
   11       -0.000   0.000   0.000   0.000
   12       -0.000  -0.000  -0.000  -0.000
   13       -0.000   0.000  -0.000   0.000
   14       -0.000   0.000   0.000   0.000
   15       -0.000   0.000   0.000   0.000
   16       -0.000   0.000   0.000   0.000
   17       -0.000  -0.000   0.000  -0.000
   18       -0.000  -0.000  -0.000  -0.000
   19       -0.000   0.000   0.000   0.000
   20       -0.000   0.000   0.000   0.000
   21       -0.000   0.000   0.000   0.000
   22       -0.000  -0.000  -0.000  -0.000
   23       -0.000   0.000   0.000   0.000
   24       -0.000   0.000  -0.000   0.000
   25        0.000  -0.000  -0.000  -0.000
   26       -0.000   0.000   0.000   0.000
   27       -0.000  -0.000  -0.000  -0.000
   28       -0.000   0.000   0.000   0.000
   29       -0.000  -0.000  -0.000  -0.000
   30       -0.000   0.000   0.000   0.000
   31       -0.000   0.000  -0.000   0.000
   32       -0.000  -0.000  -0.000  -0.000
   33       -0.000   0.000   0.000   0.000
   34       -0.000   0.000   0.000   0.000
   35       -0.000  -0.000  -0.000  -0.000
   36       -0.000   0.000   0.000   0.000
   37       -0.000  -0.000   0.000  -0.000
   38       -0.000  -0.000  -0.000  -0.000
   39       -0.000  -0.000   0.000  -0.000
   40       -0.000  -0.000   0.000  -0.000
   41       -0.000  -0.000  -0.000  -0.000
   42       -0.000  -0.000   0.000  -0.000
   43       -0.000  -0.000  -0.000  -0.000
   44       -0.000  -0.000   0.000  -0.000
   45       -0.000  -0.000   0.000  -0.000
   46       -0.000  -0.000  -0.000  -0.000
   47       -0.000  -0.000   0.000  -0.000
   48       -0.000  -0.000   0.000  -0.000
   49       -0.000  -0.000  -0.000  -0.000
   50       -0.000  -0.000   0.000  -0.000
   51       -0.000  -0.000   0.000  -0.000
   52       -0.000  -0.000   0.000  -0.000
   53       -0.000  -0.000   0.000  -0.000
   54       -0.000  -0.000  -0.000  -0.000
   55       -0.000  -0.000  -0.000  -0.000
   56       -0.000  -0.000  -0.000  -0.000
   57       -0.000  -0.000  -0.000  -0.000
   58       -0.000  -0.000   0.000  -0.000
   59       -0.000  -0.000   0.000  -0.000
   60       -0.000  -0.000  -0.000  -0.000
   61       -0.000  -0.000   0.000  -0.000
   62       -0.000  -0.000   0.000  -0.000
   63       -0.000  -0.000  -0.000  -0.000
   64       -0.000  -0.000   0.000  -0.000
   65       -0.000  -0.000   0.000  -0.000
   66       -0.000  -0.000  -0.000  -0.000
   67       -0.000  -0.000   0.000  -0.000
   68       -0.000  -0.000  -0.000  -0.000
   69       -0.000  -0.000  -0.000  -0.000
   70       -0.000  -0.000   0.000  -0.000
   71       -0.000  -0.000   0.000  -0.000
   72       -0.000  -0.000   0.000  -0.000
--------------------------------------------------
tot         -0.000  -0.000   0.000  -0.000
 

 total amount of memory used by VASP MPI-rank0   110764. kBytes
=======================================================================

   base      :      30000. kBytes
   nonl-proj :      16355. kBytes
   fftplans  :       6179. kBytes
   grid      :      15593. kBytes
   one-center:        146. kBytes
   wavefun   :      42491. kBytes
 
  
  
 General timing and accounting informations for this job:
 ========================================================
  
                  Total CPU time used (sec):      193.987
                            User time (sec):      187.642
                          System time (sec):        6.345
                         Elapsed time (sec):      196.471
  
                   Maximum memory used (kb):      308476.
                   Average memory used (kb):          N/A
  
                          Minor page faults:        99316
                          Major page faults:           36
                 Voluntary context switches:         8697
