 running  128 mpi-ranks, with    1 threads/rank, on    2 nodes
 distrk:  each k-point on   64 cores,    2 groups
 distr:  one band on    8 cores,    8 groups
 vasp.6.4.2 20Jul23 (build Oct 12 2023 10:31:02) complex                         
 POSCAR found type information on POSCAR GeSe
 POSCAR found :  2 types and      72 ions
 Reading from existing POTCAR
 -----------------------------------------------------------------------------
|                                                                             |
|           W    W    AA    RRRRR   N    N  II  N    N   GGGG   !!!           |
|           W    W   A  A   R    R  NN   N  II  NN   N  G    G  !!!           |
|           W    W  A    A  R    R  N N  N  II  N N  N  G       !!!           |
|           W WW W  AAAAAA  RRRRR   N  N N  II  N  N N  G  GGG   !            |
|           WW  WW  A    A  R   R   N   NN  II  N   NN  G    G                |
|           W    W  A    A  R    R  N    N  II  N    N   GGGG   !!!           |
|                                                                             |
|     You use a magnetic or noncollinear calculation, but did not specify     |
|     the initial magnetic moment with the MAGMOM tag. Note that a            |
|     default of 1 will be used for all atoms. This ferromagnetic setup       |
|     may break the symmetry of the crystal, in particular it may rule        |
|     out finding an antiferromagnetic solution. Thence, we recommend         |
|     setting the initial magnetic moment manually or verifying carefully     |
|     that this magnetic setup is desired.                                    |
|                                                                             |
 -----------------------------------------------------------------------------

 scaLAPACK will be used
 Reading from existing POTCAR
 -----------------------------------------------------------------------------
|                                                                             |
|               ----> ADVICE to this user running VASP <----                  |
|                                                                             |
|     You have a (more or less) 'large supercell' and for larger cells it     |
|     might be more efficient to use real-space projection operators.         |
|     Therefore, try LREAL= Auto in the INCAR file.                           |
|     Mind: For very accurate calculation, you might also keep the            |
|     reciprocal projection scheme (i.e. LREAL=.FALSE.).                      |
|                                                                             |
 -----------------------------------------------------------------------------

 LDA part: xc-table for Pade appr. of Perdew
 -----------------------------------------------------------------------------
|                                                                             |
|           W    W    AA    RRRRR   N    N  II  N    N   GGGG   !!!           |
|           W    W   A  A   R    R  NN   N  II  NN   N  G    G  !!!           |
|           W    W  A    A  R    R  N N  N  II  N N  N  G       !!!           |
|           W WW W  AAAAAA  RRRRR   N  N N  II  N  N N  G  GGG   !            |
|           WW  WW  A    A  R   R   N   NN  II  N   NN  G    G                |
|           W    W  A    A  R    R  N    N  II  N    N   GGGG   !!!           |
|                                                                             |
|     The number of bands has been changed from the values supplied in        |
|     the INCAR file. This is a result of running the parallel version.       |
|     The orbitals not found in the WAVECAR file will be initialized with     |
|     random numbers, which is usually adequate. For correlated               |
|     calculations, however, you should redo the groundstate calculation.     |
|     I found NBANDS = 220. Now, NBANDS = 224.                                |
|                                                                             |
 -----------------------------------------------------------------------------

 POSCAR, INCAR and KPOINTS ok, starting setup
 FFT: planning ... GRIDC
 FFT: planning ... GRID_SOFT
 FFT: planning ... GRID
 WAVECAR not read
 WARNING: random wavefunctions but no delay for mixing, default for NELMDL
 entering main loop
       N       E                     dE             d eps       ncg     rms          rms(c)
DAV:   1     0.181233669945E+04    0.18123E+04   -0.14190E+05  7168   0.135E+03
DAV:   2    -0.650034473995E+02   -0.18773E+04   -0.18026E+04  8472   0.205E+02
DAV:   3    -0.281634019718E+03   -0.21663E+03   -0.21068E+03  8624   0.690E+01
DAV:   4    -0.289521883446E+03   -0.78879E+01   -0.78030E+01  8776   0.130E+01
DAV:   5    -0.289799343979E+03   -0.27746E+00   -0.27674E+00  9080   0.210E+00    0.291E+01
DAV:   6    -0.289505394451E+03    0.29395E+00   -0.26634E+01  7968   0.760E+00    0.172E+01
DAV:   7    -0.296774750948E+03   -0.72694E+01   -0.85468E+00  7984   0.446E+00    0.909E+00
DAV:   8    -0.300001269967E+03   -0.32265E+01   -0.17297E+00  8184   0.224E+00    0.330E+00
DAV:   9    -0.300376122989E+03   -0.37485E+00   -0.42185E-01  9048   0.101E+00    0.147E+00
DAV:  10    -0.300481583746E+03   -0.10546E+00   -0.94866E-02  8184   0.463E-01    0.727E-01
DAV:  11    -0.300512743164E+03   -0.31159E-01   -0.36100E-02  8920   0.279E-01    0.283E-01
DAV:  12    -0.300515952271E+03   -0.32091E-02   -0.44931E-03  8536   0.118E-01    0.104E-01
DAV:  13    -0.300516053451E+03   -0.10118E-03   -0.61453E-04  9856   0.381E-02    0.428E-02
DAV:  14    -0.300516068740E+03   -0.15289E-04   -0.88792E-05  8280   0.183E-02    0.163E-02
DAV:  15    -0.300516071420E+03   -0.26806E-05   -0.14324E-05  8616   0.814E-03    0.735E-03
DAV:  16    -0.300516072028E+03   -0.60813E-06   -0.14274E-06  4872   0.255E-03
   1 F= -.30051607E+03 E0= -.30051607E+03  d E =-.253547E-11  mag=     0.0004
