 vasp.6.4.1 05Apr23 (build May 18 2023 13:19:41) complex                         
 executed on    LinuxNV_CrayMPICH date 2023.12.21  12:24:05
 running  256 mpi-ranks, with    1 threads/rank, on    7 nodes
 distrk:  each k-point on  128 cores,    2 groups
 distr:  one band on NCORE=   4 cores,   32 groups


--------------------------------------------------------------------------------------------------------


 INCAR:
   AMIX = 0.200000
   BMIX = 0.000100
   SIGMA = 0.010000
   EDIFF = 1.00e-06
   EDIFFG = -1.00e-02
   ALGO = N
   GGA = PE
   PREC = Normal
   SYSTEM = 01_AOPT
   IBRION = 1
   ICHARG = 1
   ISIF = 2
   ISMEAR = 0
   ISPIN = 1
   ISTART = 1
   KPAR = 2
   NBANDS = 896
   NPAR = 32
   NSW = 400
   IVDW = 11
   LCHARG = .TRUE.
   LWAVE = .FALSE.
   LREAL = .FALSE.

 POTCAR:   PAW_PBE C 08Apr2002                    
 POTCAR:    PAW_PBE S 17Jan2003                   
 POTCAR:   PAW_PBE O 08Apr2002                    
 POTCAR:   PAW_PBE C 08Apr2002                    
   VRHFIN =C: s2p2                                                                                  
   LEXCH  = PE                                                                                      
   EATOM  =   147.1560 eV,   10.8157 Ry                                                             
                                                                                                    
   TITEL  = PAW_PBE C 08Apr2002                                                                     
   LULTRA =        F    use ultrasoft PP ?                                                          
   IUNSCR =        0    unscreen: 0-lin 1-nonlin 2-no                                               
   RPACOR =     .000    partial core radius                                                         
   POMASS =   12.011; ZVAL   =    4.000    mass and valenz                                          
   RCORE  =    1.500    outmost cutoff radius                                                       
   RWIGS  =    1.630; RWIGS  =     .863    wigner-seitz radius (au A)                               
   ENMAX  =  400.000; ENMIN  =  300.000 eV                                                          
   ICORE  =        2    local potential                                                             
   LCOR   =        T    correct aug charges                                                         
   LPAW   =        T    paw PP                                                                      
   EAUG   =  644.873                                                                                
   DEXC   =     .000                                                                                
   RMAX   =    2.266    core radius for proj-oper                                                   
   RAUG   =    1.300    factor for augmentation sphere                                              
   RDEP   =    1.501    radius for radial grids                                                     
   RDEPT  =    1.300    core radius for aug-charge                                                  
   QCUT   =   -5.516; QGAM   =   11.032    optimization parameters                                  
                                                                                                    
   Description                                                                                      
     l     E      TYP  RCUT    TYP  RCUT                                                            
     0   .000     23  1.200                                                                         
     0   .000     23  1.200                                                                         
     1   .000     23  1.500                                                                         
     1  2.500     23  1.500                                                                         
     2   .000      7  1.500                                                                         
  local pseudopotential read in
  atomic valenz-charges read in
  non local Contribution for L=            0  read in
    real space projection operators read in
  non local Contribution for L=            0  read in
    real space projection operators read in
  non local Contribution for L=            1  read in
    real space projection operators read in
  non local Contribution for L=            1  read in
    real space projection operators read in
    PAW grid and wavefunctions read in
 
   number of l-projection  operators is LMAX  =            4
   number of lm-projection operators is LMMAX =            8
 
 POTCAR:    PAW_PBE S 17Jan2003                   
   VRHFIN =S : s2p4                                                                                 
   LEXCH  = PE                                                                                      
   EATOM  =   276.8230 eV,   20.3459 Ry                                                             
                                                                                                    
   TITEL  = PAW_PBE S 17Jan2003                                                                     
   LULTRA =        F    use ultrasoft PP ?                                                          
   IUNSCR =        1    unscreen: 0-lin 1-nonlin 2-no                                               
   RPACOR =    1.500    partial core radius                                                         
   POMASS =   32.066; ZVAL   =    6.000    mass and valenz                                          
   RCORE  =    1.900    outmost cutoff radius                                                       
   RWIGS  =    2.200; RWIGS  =    1.164    wigner-seitz radius (au A)                               
   ENMAX  =  280.000; ENMIN  =  194.016 eV                                                          
   ICORE  =        2    local potential                                                             
   LCOR   =        T    correct aug charges                                                         
   LPAW   =        T    paw PP                                                                      
   EAUG   =  335.092                                                                                
   DEXC   =     .000                                                                                
   RMAX   =    2.867    core radius for proj-oper                                                   
   RAUG   =    1.300    factor for augmentation sphere                                              
   RDEP   =    1.954    radius for radial grids                                                     
   QCUT   =   -4.360; QGAM   =    8.721    optimization parameters                                  
                                                                                                    
   Description                                                                                      
     l     E      TYP  RCUT    TYP  RCUT                                                            
     0   .000     23  1.900                                                                         
     0   .000     23  1.900                                                                         
     1   .000     23  1.900                                                                         
     1   .000     23  1.900                                                                         
     2   .000     23  1.900                                                                         
  local pseudopotential read in
  partial core-charges read in
  atomic valenz-charges read in
  non local Contribution for L=            0  read in
    real space projection operators read in
  non local Contribution for L=            0  read in
    real space projection operators read in
  non local Contribution for L=            1  read in
    real space projection operators read in
  non local Contribution for L=            1  read in
    real space projection operators read in
    PAW grid and wavefunctions read in
 
   number of l-projection  operators is LMAX  =            4
   number of lm-projection operators is LMMAX =            8
 
 POTCAR:   PAW_PBE O 08Apr2002                    
   VRHFIN =O: s2p4                                                                                  
   LEXCH  = PE                                                                                      
   EATOM  =   432.3788 eV,   31.7789 Ry                                                             
                                                                                                    
   TITEL  = PAW_PBE O 08Apr2002                                                                     
   LULTRA =        F    use ultrasoft PP ?                                                          
   IUNSCR =        0    unscreen: 0-lin 1-nonlin 2-no                                               
   RPACOR =     .000    partial core radius                                                         
   POMASS =   16.000; ZVAL   =    6.000    mass and valenz                                          
   RCORE  =    1.520    outmost cutoff radius                                                       
   RWIGS  =    1.550; RWIGS  =     .820    wigner-seitz radius (au A)                               
   ENMAX  =  400.000; ENMIN  =  300.000 eV                                                          
   ICORE  =        2    local potential                                                             
   LCOR   =        T    correct aug charges                                                         
   LPAW   =        T    paw PP                                                                      
   EAUG   =  605.392                                                                                
   DEXC   =     .000                                                                                
   RMAX   =    2.264    core radius for proj-oper                                                   
   RAUG   =    1.300    factor for augmentation sphere                                              
   RDEP   =    1.550    radius for radial grids                                                     
   QCUT   =   -5.520; QGAM   =   11.041    optimization parameters                                  
                                                                                                    
   Description                                                                                      
     l     E      TYP  RCUT    TYP  RCUT                                                            
     0   .000     23  1.200                                                                         
     0  -.700     23  1.200                                                                         
     1   .000     23  1.520                                                                         
     1   .600     23  1.520                                                                         
     2   .000      7  1.500                                                                         
  local pseudopotential read in
  atomic valenz-charges read in
  non local Contribution for L=            0  read in
    real space projection operators read in
  non local Contribution for L=            0  read in
    real space projection operators read in
  non local Contribution for L=            1  read in
    real space projection operators read in
  non local Contribution for L=            1  read in
    real space projection operators read in
    PAW grid and wavefunctions read in
 
   number of l-projection  operators is LMAX  =            4
   number of lm-projection operators is LMMAX =            8
 
 -----------------------------------------------------------------------------
|                                                                             |
|               ----> ADVICE to this user running VASP <----                  |
|                                                                             |
|     You have a (more or less) 'large supercell' and for larger cells it     |
|     might be more efficient to use real-space projection operators.         |
|     Therefore, try LREAL= Auto in the INCAR file.                           |
|     Mind: If you want to do very accurate calculations, keep the            |
|     reciprocal projection scheme (i.e. LREAL=.FALSE.).                      |
|                                                                             |
 -----------------------------------------------------------------------------

 PAW_PBE C 08Apr2002                    :
 energy of atom  1       EATOM= -147.1560
 kinetic energy error for atom=    0.0288 (will be added to EATOM!!)
  PAW_PBE S 17Jan2003                   :
 energy of atom  2       EATOM= -276.8230
 kinetic energy error for atom=    0.0046 (will be added to EATOM!!)
 PAW_PBE O 08Apr2002                    :
 energy of atom  3       EATOM= -432.3788
 kinetic energy error for atom=    0.1156 (will be added to EATOM!!)
 
 
 POSCAR:  C  S  O
  positions in direct lattice
  velocities in cartesian coordinates
 exchange correlation table for  LEXCH =        8
   RHO(1)=    0.500       N(1)  =     2000
   RHO(2)=  100.500       N(2)  =     4000
 


--------------------------------------------------------------------------------------------------------


 ion  position               nearest neighbor table
   1  0.371  0.538  0.002-  85 1.42 363 1.42 288 1.43
   2  0.369  0.544  0.063- 108 1.42  85 1.42   3 1.43
   3  0.338  0.595  0.061-   4 1.42   8 1.42   2 1.43
   4  0.321  0.611  0.030-   3 1.42 288 1.42   5 1.43
   5  0.278  0.629  0.028- 310 1.42  10 1.42   4 1.43
   6  0.366  0.549  0.123- 131 1.42 108 1.42   7 1.43
   7  0.335  0.599  0.122-   8 1.42  16 1.42   6 1.43
   8  0.317  0.614  0.090-   7 1.42   3 1.42   9 1.43
   9  0.274  0.629  0.089-  10 1.42  18 1.42   8 1.43
  10  0.254  0.627  0.057-   9 1.42   5 1.42  11 1.43
  11  0.212  0.603  0.056-  12 1.42  20 1.42  10 1.43
  12  0.196  0.584  0.024-  11 1.42 311 1.42  13 1.43
  13  0.168  0.528  0.023- 329 1.42  22 1.42  12 1.43
  14  0.364  0.554  0.184- 154 1.42 131 1.42  15 1.43
  15  0.331  0.602  0.182-  16 1.42  28 1.42  14 1.43
  16  0.313  0.616  0.151-  15 1.42   7 1.42  17 1.43
  17  0.270  0.629  0.149-  18 1.42  30 1.42  16 1.43
  18  0.250  0.626  0.118-  17 1.42   9 1.42  19 1.43
  19  0.209  0.600  0.116-  20 1.42  32 1.42  18 1.43
  20  0.193  0.580  0.085-  19 1.42  11 1.42  21 1.43
  21  0.166  0.522  0.083-  22 1.42  34 1.42  20 1.43
  22  0.159  0.492  0.052-  21 1.42  13 1.42  23 1.43
  23  0.155  0.420  0.050-  24 1.42  36 1.42  22 1.43
  24  0.159  0.388  0.019-  23 1.42 330 1.42  25 1.43
  25  0.178  0.324  0.017- 344 1.42  38 1.42  24 1.43
  26  0.361  0.559  0.244- 177 1.42 154 1.42  27 1.43
  27  0.328  0.605  0.242-  28 1.42  45 1.42  26 1.43
  28  0.309  0.619  0.211-  27 1.42  15 1.42  29 1.43
  29  0.266  0.629  0.209-  30 1.42  47 1.42  28 1.43
  30  0.246  0.625  0.178-  29 1.42  17 1.42  31 1.43
  31  0.205  0.596  0.176-  32 1.42  49 1.42  30 1.43
  32  0.190  0.575  0.145-  31 1.42  19 1.42  33 1.43
  33  0.164  0.517  0.143-  34 1.42  51 1.42  32 1.43
  34  0.158  0.485  0.112-  33 1.42  21 1.42  35 1.43
  35  0.155  0.414  0.110-  36 1.42  53 1.42  34 1.43
  36  0.160  0.382  0.079-  35 1.42  23 1.42  37 1.43
  37  0.181  0.319  0.078-  38 1.42  55 1.42  36 1.43
  38  0.195  0.295  0.046-  37 1.42  25 1.42  39 1.43
  39  0.233  0.260  0.045-  40 1.42  57 1.42  38 1.43
  40  0.253  0.252  0.013-  39 1.42 345 1.42  41 1.43
  41  0.297  0.254  0.012- 355 1.42  59 1.42  40 1.43
  42  0.371  0.538  0.336-  43 1.42  64 1.42 199 1.43
  43  0.359  0.564  0.305-  42 1.42 177 1.42  44 1.43
  44  0.324  0.608  0.303-  45 1.42  66 1.42  43 1.43
  45  0.305  0.621  0.272-  44 1.42  27 1.42  46 1.43
  46  0.262  0.628  0.270-  47 1.42  68 1.42  45 1.43
  47  0.242  0.623  0.239-  46 1.42  29 1.42  48 1.43
  48  0.202  0.592  0.237-  49 1.42  70 1.42  47 1.43
  49  0.187  0.571  0.206-  48 1.42  31 1.42  50 1.43
  50  0.163  0.510  0.204-  51 1.42  72 1.42  49 1.43
  51  0.157  0.479  0.173-  50 1.42  33 1.42  52 1.43
  52  0.156  0.408  0.171-  53 1.42  74 1.42  51 1.43
  53  0.161  0.376  0.140-  52 1.42  35 1.42  54 1.43
  54  0.183  0.314  0.138-  55 1.42  76 1.42  53 1.43
  55  0.198  0.291  0.107-  54 1.42  37 1.42  56 1.43
  56  0.237  0.258  0.105-  57 1.42  78 1.42  55 1.43
  57  0.257  0.251  0.074-  56 1.42  39 1.42  58 1.43
  58  0.300  0.255  0.072-  59 1.42  80 1.42  57 1.43
  59  0.320  0.266  0.041-  58 1.42  41 1.42  60 1.43
  60  0.355  0.308  0.039-  61 1.42  82 1.42  59 1.43
  61  0.368  0.333  0.008-  60 1.42 356 1.42  62 1.43
  62  0.385  0.399  0.006- 362 1.42  84 1.42  61 1.43
  63  0.369  0.543  0.396-  87 1.42  64 1.42 221 1.42
  64  0.356  0.569  0.365-  42 1.42  63 1.42  65 1.42
  65  0.321  0.611  0.363-  66 1.42  89 1.42  64 1.42
  66  0.302  0.622  0.332-  65 1.42  44 1.42  67 1.43
  67  0.258  0.628  0.330-  68 1.42  91 1.42  66 1.43
  68  0.238  0.621  0.299-  67 1.42  46 1.42  69 1.43
  69  0.199  0.588  0.297-  70 1.42  93 1.42  68 1.43
  70  0.184  0.566  0.266-  69 1.42  48 1.42  71 1.43
  71  0.161  0.504  0.264-  72 1.42  95 1.42  70 1.43
  72  0.156  0.473  0.233-  71 1.42  50 1.42  73 1.43
  73  0.157  0.401  0.231-  74 1.42  97 1.42  72 1.43
  74  0.162  0.369  0.200-  73 1.42  52 1.42  75 1.43
  75  0.186  0.309  0.198-  76 1.42  99 1.42  74 1.43
  76  0.201  0.287  0.167-  75 1.42  54 1.42  77 1.43
  77  0.241  0.256  0.165-  78 1.42 101 1.42  76 1.43
  78  0.261  0.250  0.134-  77 1.42  56 1.42  79 1.43
  79  0.304  0.257  0.132-  80 1.42 103 1.42  78 1.43
  80  0.323  0.269  0.101-  79 1.42  58 1.42  81 1.43
  81  0.358  0.312  0.099-  82 1.42 105 1.42  80 1.43
  82  0.370  0.339  0.068-  81 1.42  60 1.42  83 1.43
  83  0.386  0.406  0.067-  84 1.42 107 1.42  82 1.43
  84  0.388  0.438  0.035-  83 1.42  62 1.42  85 1.43
  85  0.380  0.509  0.034-   1 1.42   2 1.42  84 1.43
  86  0.367  0.547  0.456- 243 1.41  87 1.42 110 1.44
  87  0.354  0.573  0.425-  63 1.42  86 1.42  88 1.43
  88  0.317  0.612  0.424-  89 1.42 112 1.42  87 1.43
  89  0.298  0.623  0.393-  88 1.42  65 1.42  90 1.43
  90  0.254  0.626  0.391- 114 1.42  91 1.42  89 1.43
  91  0.234  0.619  0.360-  90 1.42  67 1.42  92 1.43
  92  0.196  0.584  0.358-  93 1.42 116 1.42  91 1.43
  93  0.181  0.560  0.327-  92 1.42  69 1.42  94 1.43
  94  0.160  0.498  0.325-  95 1.42 118 1.42  93 1.43
  95  0.155  0.466  0.294-  94 1.42  71 1.42  96 1.43
  96  0.157  0.395  0.292-  97 1.42 120 1.42  95 1.43
  97  0.164  0.363  0.261-  96 1.42  73 1.42  98 1.43
  98  0.189  0.304  0.259-  99 1.42 122 1.42  97 1.43
  99  0.204  0.283  0.228-  98 1.42  75 1.42 100 1.43
 100  0.244  0.254  0.226- 124 1.42 101 1.42  99 1.43
 101  0.265  0.249  0.195- 100 1.42  77 1.42 102 1.43
 102  0.308  0.259  0.193- 103 1.42 126 1.42 101 1.43
 103  0.327  0.272  0.162-  79 1.42 102 1.42 104 1.43
 104  0.361  0.317  0.160- 105 1.42 128 1.42 103 1.43
 105  0.372  0.344  0.129- 104 1.42  81 1.42 106 1.43
 106  0.387  0.412  0.127- 107 1.42 130 1.42 105 1.43
 107  0.388  0.445  0.096- 106 1.42  83 1.42 108 1.43
 108  0.378  0.515  0.094-   2 1.42   6 1.42 107 1.43
 109  0.366  0.555  0.517- 110 1.40 133 1.41 265 1.47
 110  0.351  0.577  0.486- 109 1.40 111 1.43  86 1.44
 111  0.313  0.614  0.484- 135 1.42 112 1.42 110 1.43
 112  0.294  0.623  0.453- 111 1.42  88 1.42 113 1.42
 113  0.250  0.624  0.451- 114 1.42 137 1.42 112 1.42
 114  0.230  0.616  0.420-  90 1.42 113 1.42 115 1.43
 115  0.193  0.579  0.418- 116 1.42 139 1.42 114 1.43
 116  0.179  0.555  0.387- 115 1.42  92 1.42 117 1.43
 117  0.159  0.492  0.385- 118 1.42 141 1.42 116 1.43
 118  0.155  0.459  0.354- 117 1.42  94 1.42 119 1.43
 119  0.158  0.388  0.352- 120 1.42 143 1.42 118 1.43
 120  0.165  0.357  0.321- 119 1.42  96 1.42 121 1.43
 121  0.192  0.300  0.319- 122 1.42 145 1.42 120 1.43
 122  0.208  0.279  0.288- 121 1.42  98 1.42 123 1.43
 123  0.248  0.252  0.286- 147 1.42 124 1.42 122 1.43
 124  0.268  0.249  0.255- 100 1.42 123 1.42 125 1.43
 125  0.312  0.261  0.253- 126 1.42 149 1.42 124 1.43
 126  0.330  0.275  0.222- 125 1.42 102 1.42 127 1.43
 127  0.363  0.322  0.220- 151 1.42 128 1.42 126 1.43
 128  0.374  0.350  0.189- 104 1.42 127 1.42 129 1.43
 129  0.387  0.418  0.187- 130 1.42 153 1.42 128 1.43
 130  0.388  0.451  0.156- 129 1.42 106 1.42 131 1.43
 131  0.377  0.521  0.154-   6 1.42  14 1.42 130 1.43
 132  0.363  0.560  0.578- 156 1.42 133 1.43 287 1.43
 133  0.348  0.582  0.546- 109 1.41 132 1.43 134 1.43
 134  0.309  0.616  0.544- 135 1.42 158 1.42 133 1.43
 135  0.290  0.624  0.513- 134 1.42 111 1.42 136 1.43
 136  0.246  0.623  0.512- 137 1.42 160 1.42 135 1.43
 137  0.227  0.613  0.481- 136 1.42 113 1.42 138 1.43
 138  0.190  0.574  0.479- 139 1.42 162 1.42 137 1.43
 139  0.176  0.550  0.447- 138 1.42 115 1.42 140 1.43
 140  0.158  0.485  0.446- 141 1.42 164 1.42 139 1.43
 141  0.154  0.453  0.414- 140 1.42 117 1.42 142 1.43
 142  0.159  0.382  0.413- 143 1.42 166 1.42 141 1.43
 143  0.167  0.351  0.381- 142 1.42 119 1.42 144 1.43
 144  0.194  0.295  0.380- 168 1.42 145 1.42 143 1.43
 145  0.211  0.276  0.349- 144 1.42 121 1.42 146 1.43
 146  0.252  0.251  0.347- 147 1.42 170 1.42 145 1.43
 147  0.272  0.249  0.316- 146 1.42 123 1.42 148 1.43
 148  0.316  0.263  0.314- 172 1.42 149 1.42 147 1.43
 149  0.334  0.278  0.283- 125 1.42 148 1.42 150 1.43
 150  0.366  0.327  0.281- 174 1.42 151 1.42 149 1.43
 151  0.376  0.356  0.250- 127 1.42 150 1.42 152 1.43
 152  0.387  0.425  0.248- 153 1.42 176 1.42 151 1.43
 153  0.387  0.458  0.217- 152 1.42 129 1.42 154 1.43
 154  0.375  0.526  0.215-  14 1.42  26 1.42 153 1.43
 155  0.359  0.564  0.638- 179 1.42 156 1.42 309 1.42
 156  0.345  0.587  0.607- 132 1.42 155 1.42 157 1.43
 157  0.306  0.620  0.605- 158 1.42 181 1.42 156 1.43
 158  0.286  0.626  0.574- 157 1.42 134 1.42 159 1.43
 159  0.242  0.622  0.572- 160 1.42 183 1.42 158 1.43
 160  0.223  0.611  0.541- 136 1.42 159 1.42 161 1.43
 161  0.187  0.570  0.539- 162 1.42 185 1.42 160 1.43
 162  0.174  0.544  0.508- 161 1.42 138 1.42 163 1.43
 163  0.156  0.479  0.506- 164 1.42 187 1.42 162 1.43
 164  0.154  0.446  0.475- 163 1.42 140 1.42 165 1.43
 165  0.160  0.375  0.473- 166 1.42 189 1.42 164 1.43
 166  0.169  0.345  0.442- 165 1.42 142 1.42 167 1.43
 167  0.197  0.291  0.440- 168 1.42 191 1.42 166 1.43
 168  0.214  0.273  0.409- 167 1.42 144 1.42 169 1.43
 169  0.256  0.251  0.407- 170 1.42 193 1.42 168 1.43
 170  0.276  0.249  0.376- 169 1.42 146 1.42 171 1.43
 171  0.319  0.266  0.374- 195 1.42 172 1.42 170 1.43
 172  0.337  0.282  0.343- 148 1.42 171 1.42 173 1.43
 173  0.368  0.333  0.341- 197 1.42 174 1.42 172 1.43
 174  0.378  0.362  0.310- 150 1.42 173 1.42 175 1.43
 175  0.388  0.431  0.308- 199 1.42 176 1.42 174 1.43
 176  0.387  0.464  0.277- 152 1.42 175 1.42 177 1.43
 177  0.373  0.532  0.275-  26 1.42  43 1.42 176 1.43
 178  0.356  0.569  0.698- 179 1.42 201 1.42 328 1.43
 179  0.341  0.591  0.667- 178 1.42 155 1.42 180 1.43
 180  0.302  0.622  0.665- 203 1.42 181 1.42 179 1.43
 181  0.282  0.628  0.634- 157 1.42 180 1.42 182 1.43
 182  0.238  0.620  0.632- 183 1.42 205 1.42 181 1.43
 183  0.219  0.608  0.601- 182 1.42 159 1.42 184 1.43
 184  0.184  0.565  0.599- 185 1.42 207 1.42 183 1.43
 185  0.172  0.539  0.568- 184 1.42 161 1.42 186 1.43
 186  0.156  0.472  0.567- 187 1.42 209 1.42 185 1.43
 187  0.154  0.439  0.535- 186 1.42 163 1.42 188 1.43
 188  0.162  0.369  0.534- 189 1.42 211 1.42 187 1.43
 189  0.171  0.340  0.502- 188 1.42 165 1.42 190 1.43
 190  0.200  0.287  0.501- 191 1.42 213 1.42 189 1.43
 191  0.218  0.269  0.469- 190 1.42 167 1.42 192 1.43
 192  0.260  0.250  0.468- 215 1.42 193 1.42 191 1.43
 193  0.280  0.250  0.437- 192 1.42 169 1.42 194 1.43
 194  0.323  0.270  0.435- 195 1.42 217 1.42 193 1.43
 195  0.340  0.286  0.404- 194 1.42 171 1.42 196 1.43
 196  0.370  0.338  0.402- 219 1.41 197 1.42 195 1.43
 197  0.380  0.367  0.370- 173 1.42 198 1.42 196 1.42
 198  0.388  0.438  0.368- 199 1.42 221 1.42 197 1.42
 199  0.386  0.470  0.337- 175 1.42 198 1.42  42 1.43
 200  0.354  0.574  0.759- 201 1.42 223 1.42 343 1.43
 201  0.338  0.595  0.728- 200 1.42 178 1.42 202 1.43
 202  0.298  0.624  0.726- 225 1.42 203 1.42 201 1.43
 203  0.278  0.629  0.695- 180 1.42 202 1.42 204 1.43
 204  0.234  0.619  0.693- 205 1.42 227 1.42 203 1.43
 205  0.216  0.606  0.662- 204 1.42 182 1.42 206 1.43
 206  0.181  0.560  0.660- 207 1.42 229 1.42 205 1.43
 207  0.170  0.533  0.629- 184 1.42 206 1.42 208 1.43
 208  0.155  0.466  0.627- 209 1.42 231 1.42 207 1.43
 209  0.154  0.433  0.596- 208 1.42 186 1.42 210 1.43
 210  0.164  0.363  0.594- 211 1.42 233 1.42 209 1.43
 211  0.173  0.334  0.563- 210 1.42 188 1.42 212 1.43
 212  0.204  0.283  0.561- 213 1.42 235 1.42 211 1.43
 213  0.221  0.267  0.530- 212 1.42 190 1.42 214 1.43
 214  0.264  0.250  0.528- 215 1.42 237 1.42 213 1.43
 215  0.284  0.251  0.497- 214 1.42 192 1.42 216 1.43
 216  0.326  0.274  0.495- 217 1.42 239 1.42 215 1.43
 217  0.343  0.292  0.464- 216 1.42 194 1.42 218 1.43
 218  0.372  0.345  0.462- 241 1.41 219 1.43 217 1.43
 219  0.382  0.374  0.431- 196 1.41 218 1.43 220 1.43
 220  0.389  0.444  0.429- 243 1.41 221 1.42 219 1.43
 221  0.386  0.477  0.398- 220 1.42 198 1.42  63 1.42
 222  0.351  0.578  0.819- 223 1.42 245 1.42 354 1.43
 223  0.335  0.599  0.788- 222 1.42 200 1.42 224 1.43
 224  0.294  0.625  0.786- 225 1.42 247 1.42 223 1.43
 225  0.274  0.629  0.755- 224 1.42 202 1.42 226 1.43
 226  0.230  0.617  0.753- 227 1.42 249 1.42 225 1.43
 227  0.212  0.603  0.722- 226 1.42 204 1.42 228 1.43
 228  0.179  0.555  0.720- 229 1.42 251 1.42 227 1.43
 229  0.168  0.528  0.689- 228 1.42 206 1.42 230 1.43
 230  0.155  0.459  0.687- 231 1.42 253 1.42 229 1.43
 231  0.154  0.426  0.656- 230 1.42 208 1.42 232 1.43
 232  0.165  0.357  0.655- 233 1.42 255 1.42 231 1.43
 233  0.176  0.329  0.623- 232 1.42 210 1.42 234 1.43
 234  0.207  0.280  0.622- 235 1.42 257 1.42 233 1.43
 235  0.225  0.264  0.590- 234 1.42 212 1.42 236 1.43
 236  0.268  0.250  0.588- 237 1.42 259 1.42 235 1.43
 237  0.288  0.253  0.557- 236 1.42 238 1.42 214 1.42
 238  0.330  0.277  0.555- 239 1.42 237 1.42 261 1.42
 239  0.346  0.297  0.524- 216 1.42 238 1.42 240 1.43
 240  0.374  0.351  0.522- 241 1.40 239 1.43 263 1.44
 241  0.383  0.380  0.491- 240 1.40 218 1.41 242 1.47
 242  0.395  0.451  0.489- 243 1.45 241 1.47 265 1.50 365 2.05
 243  0.386  0.483  0.458-  86 1.41 220 1.41 242 1.45
 244  0.348  0.583  0.880- 245 1.42 267 1.42 361 1.43
 245  0.331  0.602  0.849- 244 1.42 222 1.42 246 1.43
 246  0.290  0.627  0.847- 247 1.42 269 1.42 245 1.43
 247  0.270  0.629  0.816- 246 1.42 224 1.42 248 1.43
 248  0.227  0.615  0.814- 249 1.42 271 1.42 247 1.43
 249  0.209  0.599  0.783- 248 1.42 226 1.42 250 1.43
 250  0.177  0.550  0.781- 251 1.42 273 1.42 249 1.43
 251  0.166  0.522  0.750- 250 1.42 228 1.42 252 1.43
 252  0.155  0.453  0.748- 253 1.42 275 1.42 251 1.43
 253  0.155  0.420  0.717- 252 1.42 230 1.42 254 1.43
 254  0.167  0.352  0.715- 255 1.42 277 1.42 253 1.43
 255  0.178  0.324  0.684- 254 1.42 232 1.42 256 1.43
 256  0.211  0.276  0.682- 257 1.42 279 1.42 255 1.43
 257  0.229  0.262  0.651- 256 1.42 234 1.42 258 1.43
 258  0.273  0.249  0.649- 259 1.42 281 1.42 257 1.43
 259  0.293  0.253  0.618- 236 1.42 258 1.42 260 1.43
 260  0.334  0.279  0.616- 261 1.42 283 1.42 259 1.43
 261  0.350  0.300  0.585- 260 1.42 238 1.42 262 1.43
 262  0.376  0.357  0.583- 285 1.42 263 1.42 261 1.43
 263  0.384  0.388  0.552- 264 1.41 262 1.42 240 1.44
 264  0.389  0.458  0.551- 263 1.41 287 1.41 265 1.46
 265  0.391  0.494  0.519- 264 1.46 109 1.47 242 1.50 365 2.04
 266  0.345  0.587  0.940- 267 1.42 289 1.42 364 1.43
 267  0.328  0.605  0.909- 266 1.42 244 1.42 268 1.43
 268  0.286  0.628  0.907- 269 1.42 291 1.42 267 1.43
 269  0.266  0.629  0.876- 268 1.42 246 1.42 270 1.43
 270  0.223  0.612  0.874- 271 1.42 293 1.42 269 1.43
 271  0.205  0.596  0.843- 270 1.42 248 1.42 272 1.43
 272  0.174  0.545  0.841- 273 1.42 295 1.42 271 1.43
 273  0.164  0.516  0.810- 272 1.42 250 1.42 274 1.43
 274  0.154  0.447  0.808- 275 1.42 297 1.42 273 1.43
 275  0.155  0.414  0.777- 274 1.42 252 1.42 276 1.43
 276  0.169  0.346  0.775- 277 1.42 299 1.42 275 1.43
 277  0.181  0.319  0.744- 276 1.42 254 1.42 278 1.43
 278  0.215  0.273  0.742- 279 1.42 301 1.42 277 1.43
 279  0.233  0.259  0.711- 278 1.42 256 1.42 280 1.43
 280  0.277  0.249  0.709- 281 1.42 303 1.42 279 1.43
 281  0.297  0.254  0.678- 280 1.42 258 1.42 282 1.43
 282  0.337  0.282  0.676- 283 1.42 305 1.42 281 1.43
 283  0.353  0.303  0.645- 282 1.42 260 1.42 284 1.42
 284  0.378  0.362  0.644- 307 1.42 285 1.42 283 1.42
 285  0.385  0.393  0.612- 262 1.42 284 1.42 286 1.42
 286  0.387  0.464  0.611- 287 1.42 309 1.42 285 1.42
 287  0.384  0.497  0.580- 264 1.41 286 1.42 132 1.43
 288  0.341  0.591  0.001- 289 1.42   4 1.42   1 1.43
 289  0.324  0.609  0.969- 288 1.42 266 1.42 290 1.43
 290  0.282  0.628  0.968- 291 1.42 310 1.42 289 1.43
 291  0.262  0.629  0.936- 290 1.42 268 1.42 292 1.43
 292  0.219  0.609  0.935- 293 1.42 312 1.42 291 1.43
 293  0.202  0.592  0.903- 292 1.42 270 1.42 294 1.43
 294  0.172  0.540  0.902- 295 1.42 314 1.42 293 1.43
 295  0.163  0.510  0.871- 294 1.42 272 1.42 296 1.43
 296  0.154  0.440  0.869- 297 1.42 316 1.42 295 1.43
 297  0.156  0.407  0.838- 296 1.42 274 1.42 298 1.43
 298  0.171  0.340  0.836- 299 1.42 318 1.42 297 1.43
 299  0.183  0.314  0.805- 298 1.42 276 1.42 300 1.43
 300  0.218  0.270  0.803- 301 1.42 320 1.42 299 1.43
 301  0.237  0.257  0.772- 300 1.42 278 1.42 302 1.43
 302  0.281  0.250  0.770- 303 1.42 322 1.42 301 1.43
 303  0.301  0.255  0.739- 302 1.42 280 1.42 304 1.43
 304  0.340  0.286  0.737- 305 1.42 324 1.42 303 1.43
 305  0.356  0.308  0.706- 304 1.42 282 1.42 306 1.43
 306  0.379  0.368  0.704- 307 1.42 326 1.42 305 1.43
 307  0.386  0.399  0.673- 306 1.42 284 1.42 308 1.43
 308  0.387  0.471  0.671- 309 1.42 328 1.42 307 1.43
 309  0.382  0.503  0.640- 308 1.42 286 1.42 155 1.42
 310  0.258  0.628  0.997-   5 1.42 290 1.42 311 1.43
 311  0.216  0.606  0.995- 312 1.42  12 1.42 310 1.43
 312  0.199  0.588  0.964- 311 1.42 292 1.42 313 1.43
 313  0.170  0.534  0.962- 314 1.42 329 1.42 312 1.43
 314  0.161  0.504  0.931- 313 1.42 294 1.42 315 1.43
 315  0.154  0.434  0.929- 316 1.42 331 1.42 314 1.43
 316  0.157  0.401  0.898- 315 1.42 296 1.42 317 1.43
 317  0.174  0.335  0.896- 318 1.42 333 1.42 316 1.43
 318  0.186  0.309  0.865- 317 1.42 298 1.42 319 1.43
 319  0.222  0.267  0.863- 320 1.42 335 1.42 318 1.43
 320  0.241  0.256  0.832- 319 1.42 300 1.42 321 1.43
 321  0.285  0.250  0.830- 322 1.42 337 1.42 320 1.43
 322  0.305  0.257  0.799- 321 1.42 302 1.42 323 1.43
 323  0.344  0.290  0.797- 324 1.42 339 1.42 322 1.43
 324  0.358  0.312  0.766- 323 1.42 304 1.42 325 1.43
 325  0.381  0.374  0.764- 326 1.42 341 1.42 324 1.43
 326  0.386  0.406  0.733- 325 1.42 306 1.42 327 1.43
 327  0.386  0.477  0.731- 328 1.42 343 1.42 326 1.43
 328  0.380  0.509  0.700- 308 1.42 327 1.42 178 1.43
 329  0.160  0.498  0.991-  13 1.42 313 1.42 330 1.43
 330  0.155  0.427  0.990- 331 1.42  24 1.42 329 1.43
 331  0.158  0.394  0.958- 330 1.42 315 1.42 332 1.43
 332  0.176  0.329  0.957- 333 1.42 344 1.42 331 1.43
 333  0.189  0.304  0.926- 332 1.42 317 1.42 334 1.43
 334  0.225  0.264  0.924- 335 1.42 346 1.42 333 1.43
 335  0.245  0.254  0.893- 334 1.42 319 1.42 336 1.43
 336  0.289  0.251  0.891- 337 1.42 348 1.42 335 1.43
 337  0.308  0.259  0.860- 336 1.42 321 1.42 338 1.43
 338  0.347  0.294  0.858- 339 1.42 350 1.42 337 1.43
 339  0.361  0.318  0.827- 338 1.42 323 1.42 340 1.43
 340  0.382  0.380  0.825- 341 1.42 352 1.42 339 1.43
 341  0.387  0.412  0.794- 340 1.42 325 1.42 342 1.43
 342  0.385  0.484  0.792- 343 1.42 354 1.42 341 1.43
 343  0.378  0.515  0.761- 342 1.42 327 1.42 200 1.43
 344  0.192  0.300  0.986-  25 1.42 332 1.42 345 1.43
 345  0.229  0.262  0.984- 346 1.42  40 1.42 344 1.43
 346  0.249  0.253  0.953- 345 1.42 334 1.42 347 1.43
 347  0.293  0.252  0.951- 348 1.42 355 1.42 346 1.43
 348  0.312  0.261  0.920- 347 1.42 336 1.42 349 1.43
 349  0.350  0.299  0.918- 350 1.42 357 1.42 348 1.43
 350  0.364  0.323  0.887- 349 1.42 338 1.42 351 1.43
 351  0.383  0.386  0.885- 352 1.42 359 1.42 350 1.43
 352  0.387  0.419  0.854- 351 1.42 340 1.42 353 1.43
 353  0.384  0.490  0.852- 354 1.42 361 1.42 352 1.43
 354  0.377  0.521  0.821- 353 1.42 342 1.42 222 1.43
 355  0.316  0.264  0.980-  41 1.42 347 1.42 356 1.43
 356  0.353  0.303  0.979- 357 1.42  61 1.42 355 1.43
 357  0.366  0.328  0.947- 356 1.42 349 1.42 358 1.43
 358  0.384  0.393  0.946- 359 1.42 362 1.42 357 1.43
 359  0.388  0.425  0.915- 358 1.42 351 1.42 360 1.43
 360  0.383  0.496  0.913- 361 1.42 364 1.42 359 1.43
 361  0.375  0.527  0.882- 360 1.42 353 1.42 244 1.43
 362  0.388  0.432  0.975-  62 1.42 358 1.42 363 1.43
 363  0.381  0.503  0.973- 364 1.42   1 1.42 362 1.43
 364  0.373  0.533  0.942- 363 1.42 360 1.42 266 1.43
 365  0.451  0.490  0.504- 366 1.49 265 2.04 242 2.05
 366  0.462  0.545  0.481- 365 1.49
 
  LATTYP: Found a simple orthorhombic cell.
 ALAT       =    19.9214134216
 B/A-ratio  =     1.6250001197
 C/A-ratio  =     2.0303804144
  
  Lattice vectors:
  
 A1 = (   0.0000000000, -19.9214134216,   0.0000000000)
 A2 = (  32.3722991943,   0.0000000000,   0.0000000000)
 A3 = (   0.0000000000,   0.0000000000,  40.4480476379)


Analysis of symmetry for initial positions (statically):
=====================================================================
 Subroutine PRICEL returns:
 Original cell was already a primitive cell.
 

 Routine SETGRP: Setting up the symmetry group for a 
 simple orthorhombic supercell.


 Subroutine GETGRP returns: Found  1 space group operations
 (whereof  1 operations were pure point group operations)
 out of a pool of  8 trial point group operations.


The static configuration has the point symmetry C_1 .


Analysis of symmetry for dynamics (positions and initial velocities):
=====================================================================
 Subroutine PRICEL returns:
 Original cell was already a primitive cell.
 

 Routine SETGRP: Setting up the symmetry group for a 
 simple orthorhombic supercell.


 Subroutine GETGRP returns: Found  1 space group operations
 (whereof  1 operations were pure point group operations)
 out of a pool of  8 trial point group operations.


The dynamic configuration has the point symmetry C_1 .


Analysis of constrained symmetry for selective dynamics:
=====================================================================
 Subroutine PRICEL returns:
 Original cell was already a primitive cell.
 

 Routine SETGRP: Setting up the symmetry group for a 
 simple orthorhombic supercell.


 Subroutine GETGRP returns: Found  1 space group operations
 (whereof  1 operations were pure point group operations)
 out of a pool of  8 trial point group operations.


The constrained configuration has the point symmetry C_1 .


 Subroutine INISYM returns: Found  1 space group operations
 (whereof  1 operations are pure point group operations),
 and found     1 'primitive' translations


----------------------------------------------------------------------------------------

                                     Primitive cell                                     

  volume of cell :   26085.0250

  direct lattice vectors                    reciprocal lattice vectors
    32.372299194  0.000000000  0.000000000     0.030890608  0.000000000  0.000000000
     0.000000000 19.921413422  0.000000000     0.000000000  0.050197241  0.000000000
     0.000000000  0.000000000 40.448047638     0.000000000  0.000000000  0.024723072

  length of vectors
    32.372299194 19.921413422 40.448047638     0.030890608  0.050197241  0.024723072

  position of ions in fractional coordinates (direct lattice)
     0.370909113  0.538136432  0.002434068
     0.368716801  0.543628840  0.062869913
     0.338042888  0.594897627  0.061062719
     0.320504336  0.611360954  0.029902625
     0.277839010  0.628830290  0.028080329
     0.366391771  0.548978777  0.123300767
     0.334665640  0.598527338  0.121500956
     0.316791440  0.614010722  0.090342635
     0.273782824  0.629087299  0.088519034
     0.253574485  0.626972327  0.057358966
     0.212108600  0.603058447  0.055542312
     0.195601889  0.583985194  0.024380204
     0.168027782  0.528263504  0.022567176
     0.363940883  0.554173863  0.183720736
     0.331208208  0.601945924  0.181932341
     0.313025833  0.616452850  0.150779864
     0.269723675  0.629142927  0.148961510
     0.249573098  0.625888528  0.117802568
     0.208641866  0.599661100  0.115990678
     0.192549259  0.579672634  0.084826050
     0.166182275  0.522436785  0.083005938
     0.158919227  0.491698696  0.051850988
     0.154927730  0.420488119  0.050033682
     0.158666156  0.388114033  0.018879735
     0.178242660  0.324079231  0.017074785
     0.361434745  0.559231001  0.244130880
     0.327715842  0.605174470  0.242361672
     0.309217304  0.618668804  0.211221526
     0.265676076  0.628947827  0.209414765
     0.245599297  0.624583831  0.178249104
     0.205255106  0.596067974  0.176440473
     0.189589135  0.575202249  0.145276261
     0.164459621  0.516504632  0.143447728
     0.157863528  0.485374248  0.112292058
     0.155384974  0.413984328  0.110473970
     0.159800800  0.381842189  0.079314682
     0.180708748  0.318930176  0.077502613
     0.194847656  0.295320201  0.046354706
     0.232962298  0.259592616  0.044535857
     0.252634960  0.251563354  0.013391354
     0.296613647  0.253703233  0.011591169
     0.370956453  0.537514108  0.335635709
     0.358897759  0.564147149  0.304541772
     0.324214546  0.608142058  0.302803598
     0.305400910  0.620606809  0.271661410
     0.261677616  0.628414966  0.269873373
     0.241680740  0.623011845  0.238709556
     0.201956210  0.592249176  0.236896983
     0.186744020  0.570530870  0.205733555
     0.162883562  0.510451614  0.203892876
     0.156952407  0.478980021  0.172730951
     0.155988585  0.407500005  0.170910771
     0.161066524  0.375628008  0.139753242
     0.183283395  0.313901533  0.137934548
     0.197913262  0.291106758  0.106782536
     0.236753233  0.257515188  0.104964646
     0.256586053  0.250599604  0.073816016
     0.300495496  0.255197438  0.072013923
     0.319613927  0.266244798  0.040873749
     0.355490976  0.307640779  0.039059459
     0.368206830  0.333328643  0.007915911
     0.385400998  0.399142559  0.006116769
     0.368989565  0.542760464  0.396035318
     0.356322771  0.568830533  0.364926115
     0.320713700  0.610650458  0.363237714
     0.301618107  0.622225319  0.332120361
     0.257733106  0.627511278  0.330343401
     0.237846590  0.621067361  0.299193631
     0.198786507  0.588120305  0.297363890
     0.184018377  0.565639065  0.266187401
     0.161430433  0.504288945  0.264334057
     0.156159005  0.472528715  0.233168348
     0.156704009  0.401027399  0.231344427
     0.162473468  0.369472544  0.200191632
     0.185967092  0.309011203  0.198369326
     0.201057569  0.287038730  0.167212050
     0.240574332  0.255596940  0.165400962
     0.260543074  0.249806108  0.134249022
     0.304329938  0.256853388  0.132441679
     0.323211181  0.268985725  0.101300469
     0.358184896  0.312368888  0.099485697
     0.370357205  0.338775987  0.068345415
     0.386144655  0.405517079  0.066549879
     0.388009712  0.438344409  0.035404156
     0.379910315  0.508625725  0.033587615
     0.367246796  0.546965650  0.456427325
     0.353753292  0.572706343  0.425412524
     0.317168254  0.612359464  0.423708777
     0.297856849  0.623151448  0.392649918
     0.253865175  0.625996006  0.390836161
     0.234100962  0.618652111  0.359665346
     0.195739395  0.583673617  0.357812970
     0.181410970  0.560499855  0.326631751
     0.160059153  0.497973612  0.324771416
     0.155470626  0.465981398  0.293604909
     0.157493237  0.394548951  0.291775861
     0.163964423  0.363358737  0.260618418
     0.188724043  0.304257595  0.258796104
     0.204280621  0.283129250  0.227649847
     0.244443013  0.253874684  0.225852322
     0.264514994  0.249204981  0.194689060
     0.308122154  0.258693161  0.192875177
     0.326733077  0.271886955  0.161729305
     0.360762933  0.317217453  0.159911508
     0.372370990  0.344309924  0.128774880
     0.386716138  0.411905360  0.126975375
     0.387898610  0.444835551  0.095835621
     0.378323646  0.514620782  0.094019929
     0.365625863  0.554795041  0.517091155
     0.351247826  0.576830428  0.486205650
     0.313433611  0.613640302  0.484226410
     0.293932228  0.623084845  0.453093412
     0.250032460  0.623921558  0.451251565
     0.230398613  0.615829101  0.420087513
     0.192670000  0.579041262  0.418232201
     0.178849572  0.555149139  0.387072907
     0.158726907  0.491548788  0.385214735
     0.154845556  0.459339192  0.354033025
     0.158340476  0.388081713  0.352200451
     0.165487673  0.357284515  0.321047007
     0.191525158  0.299619589  0.319229987
     0.207568026  0.279427050  0.288094763
     0.248333456  0.252474549  0.286312253
     0.268491041  0.248849477  0.255140485
     0.311879581  0.260767852  0.253322047
     0.330192828  0.274972973  0.222168998
     0.363230447  0.322206851  0.220341367
     0.374247011  0.349941130  0.189197139
     0.387136008  0.418295911  0.187385217
     0.387623861  0.451288475  0.156254625
     0.376586507  0.520503180  0.154443969
     0.362591321  0.559565952  0.577707018
     0.348015749  0.581583153  0.546256735
     0.309494494  0.616154423  0.544477104
     0.289955745  0.624139227  0.513397834
     0.245853650  0.622837242  0.511590848
     0.226569862  0.613092529  0.480515126
     0.189567686  0.574415535  0.478659425
     0.176319589  0.549660900  0.447486217
     0.157529961  0.485081168  0.445645826
     0.154275244  0.452670424  0.414469742
     0.159261510  0.381609441  0.412640203
     0.167088145  0.351257713  0.381492008
     0.194360292  0.295121623  0.379677866
     0.210889809  0.275921861  0.348532122
     0.252228747  0.251441323  0.346753474
     0.272462746  0.248858793  0.315611805
     0.315612821  0.263169557  0.313802930
     0.333589601  0.278335830  0.282610351
     0.365595968  0.327361784  0.280761236
     0.376022327  0.355669931  0.249610894
     0.387469973  0.424707876  0.247776999
     0.387229678  0.457707799  0.216658071
     0.374745283  0.526270346  0.214858239
     0.359379541  0.564270924  0.638071813
     0.344949599  0.586936048  0.606746501
     0.305723874  0.619815594  0.604904317
     0.285878751  0.625761232  0.573777845
     0.241979911  0.621532544  0.571980503
     0.222814968  0.610651791  0.540847993
     0.186694756  0.569807905  0.539040728
     0.173844106  0.544354948  0.507921853
     0.156409529  0.478602456  0.506102096
     0.153886892  0.446005218  0.474953463
     0.160375575  0.375262890  0.473118914
     0.168825855  0.345347017  0.441941851
     0.197271529  0.290820713  0.440122270
     0.214179841  0.272525366  0.408981188
     0.256101258  0.250602205  0.407191958
     0.276426671  0.249368412  0.376084600
     0.319233505  0.266134587  0.374288368
     0.336943475  0.281950562  0.343052935
     0.367996325  0.332637393  0.341186433
     0.377736029  0.361509228  0.310025526
     0.387732763  0.431132452  0.308150854
     0.386757047  0.464114715  0.277030394
     0.372849711  0.531926589  0.275252321
     0.356433766  0.569113590  0.698453791
     0.341419323  0.591064383  0.667274033
     0.301794592  0.622215095  0.665391862
     0.281891691  0.627519066  0.634153496
     0.238088853  0.620339157  0.632370420
     0.219182105  0.608217128  0.601270458
     0.183997291  0.565174958  0.599480665
     0.171728008  0.538830564  0.568364290
     0.155750798  0.472235063  0.566568879
     0.153776993  0.439430380  0.535401648
     0.161801229  0.369119612  0.533570860
     0.170710047  0.339611278  0.502419232
     0.200377911  0.286666131  0.500594671
     0.217619257  0.269419719  0.469456593
     0.259996826  0.250068017  0.467648869
     0.280310588  0.250156916  0.436502177
     0.322597362  0.269792286  0.434680311
     0.340136661  0.286135927  0.403544353
     0.370469038  0.338257514  0.401711277
     0.379510280  0.367468079  0.370401272
     0.387961470  0.437507874  0.368457530
     0.386269058  0.470471330  0.337374812
     0.353549007  0.573867001  0.758874977
     0.338001334  0.594917878  0.727705917
     0.297822844  0.623997601  0.725841101
     0.277807025  0.628553805  0.694630483
     0.234169894  0.618887570  0.692827223
     0.215620696  0.605532725  0.661693504
     0.181497521  0.560388800  0.659915647
     0.169771615  0.533373130  0.628785566
     0.155249165  0.465862970  0.627009119
     0.153955283  0.432947694  0.595879382
     0.163510113  0.363130335  0.594062213
     0.173086937  0.334157886  0.562899363
     0.203843363  0.283116121  0.561077592
     0.221320698  0.266719312  0.529883331
     0.264077196  0.249994085  0.528025982
     0.284211294  0.251007606  0.496917677
     0.326047075  0.273654326  0.495067581
     0.342860615  0.291614471  0.463993152
     0.372154104  0.345027160  0.462215432
     0.381523091  0.373542318  0.430743449
     0.388705450  0.444190414  0.428738537
     0.385745595  0.476808934  0.397685368
     0.350619112  0.578451072  0.819296668
     0.334628727  0.598649298  0.788130776
     0.293847722  0.625496854  0.786291859
     0.273717092  0.628989083  0.755118408
     0.230338263  0.616949500  0.753297231
     0.212080947  0.602655682  0.722127462
     0.179006791  0.555474343  0.720351824
     0.167932840  0.527792167  0.689226607
     0.154907662  0.459472354  0.687451631
     0.154359501  0.426492592  0.656320288
     0.165415144  0.357305099  0.654504102
     0.175565340  0.328857699  0.623339660
     0.207429668  0.279533333  0.621511555
     0.225260452  0.264219370  0.590346907
     0.268355647  0.249773579  0.588487860
     0.288461945  0.252574202  0.557300515
     0.329658997  0.277129341  0.555429493
     0.345994952  0.296533701  0.524233032
     0.374175732  0.351403589  0.522191135
     0.383323457  0.379799677  0.491307166
     0.395088866  0.450909117  0.489116804
     0.386055661  0.483439026  0.457748631
     0.347626089  0.582875651  0.879730616
     0.331208332  0.602168724  0.848570908
     0.289879171  0.626702360  0.846746721
     0.269671054  0.629085987  0.815579506
     0.226580552  0.614644113  0.813752018
     0.208610094  0.599419859  0.782587303
     0.176579793  0.550359285  0.780803696
     0.166173203  0.522056187  0.749663286
     0.154674203  0.453042958  0.747878474
     0.154850735  0.420070675  0.716740026
     0.167381196  0.351524683  0.714928573
     0.178170771  0.323683026  0.683779934
     0.211026666  0.276109521  0.681952580
     0.229221886  0.261816643  0.650776392
     0.272537422  0.249423432  0.648912532
     0.292627076  0.252986759  0.617720539
     0.333567710  0.279282472  0.615880153
     0.349541413  0.299695251  0.584778423
     0.376211621  0.356567227  0.583050279
     0.383734410  0.387974494  0.552007863
     0.389056563  0.458055272  0.550704976
     0.390777782  0.493682313  0.519297897
     0.344533493  0.587082493  0.940174649
     0.327713616  0.605452690  0.909012531
     0.285889594  0.627648284  0.907193466
     0.265641767  0.628922147  0.876030480
     0.222881365  0.612066870  0.874203155
     0.205241125  0.595858400  0.843044864
     0.174279824  0.545045520  0.841251325
     0.164480576  0.516198108  0.810097902
     0.154491946  0.446557312  0.808300868
     0.155414864  0.413631518  0.777164960
     0.169383169  0.345821415  0.775360856
     0.180794090  0.318613311  0.744208356
     0.214581221  0.272828849  0.742385616
     0.233072502  0.259464422  0.711217608
     0.276631638  0.249324911  0.709373482
     0.296681109  0.253816168  0.678217974
     0.337050679  0.282279083  0.676430683
     0.352705463  0.303301042  0.645288138
     0.377963119  0.361719878  0.643583721
     0.384694929  0.392973363  0.612445781
     0.387332439  0.464222400  0.610800129
     0.383655466  0.496592072  0.579724463
     0.341337160  0.591079718  0.000620228
     0.324151662  0.608519507  0.969456957
     0.281878745  0.628359426  0.967637173
     0.261617578  0.628503458  0.936478206
     0.219240995  0.609262856  0.934652310
     0.201955103  0.592081489  0.903491875
     0.172092465  0.539569850  0.901691549
     0.162913389  0.510207181  0.870538234
     0.154412592  0.440047334  0.868730573
     0.156060420  0.407201915  0.837589011
     0.171452291  0.340223511  0.835789229
     0.183434364  0.313653495  0.804637705
     0.218168784  0.269754507  0.802821389
     0.236936001  0.257391407  0.771669668
     0.280681017  0.249667434  0.769846967
     0.300641162  0.255226768  0.738684090
     0.340347838  0.285967007  0.736900081
     0.355579811  0.307699989  0.705740054
     0.379498470  0.367702238  0.703983712
     0.385535662  0.399168025  0.672866828
     0.386527119  0.470671077  0.671130428
     0.381510843  0.502619720  0.640027960
     0.257596584  0.627843428  0.996919410
     0.215654038  0.606247759  0.995097400
     0.198745309  0.588118017  0.963935912
     0.170006677  0.533971343  0.962129703
     0.161461200  0.504111152  0.930977630
     0.154453409  0.433525050  0.929162725
     0.156807552  0.400804769  0.898014448
     0.173616558  0.334728162  0.896217535
     0.186163746  0.308853557  0.865071561
     0.221805101  0.266922720  0.863257801
     0.240837453  0.255615006  0.832108181
     0.284710704  0.250345474  0.830297822
     0.304547948  0.256957166  0.799134363
     0.343584767  0.289935230  0.797340919
     0.358325013  0.312494393  0.766192457
     0.380913295  0.373860614  0.764405384
     0.386198097  0.405647244  0.733269442
     0.385669987  0.477123903  0.731492972
     0.379957122  0.508701336  0.700346988
     0.160128684  0.497937732  0.991413114
     0.154621375  0.427000356  0.989595206
     0.157669961  0.394431926  0.958445092
     0.175875411  0.329336077  0.956646560
     0.188977018  0.304190142  0.925501060
     0.225487434  0.264289723  0.923685745
     0.244753281  0.254051373  0.892538265
     0.288717950  0.251257124  0.890734424
     0.308408205  0.258975346  0.859580900
     0.346724274  0.294131069  0.857778328
     0.360969168  0.317516254  0.826626747
     0.382227260  0.380109054  0.824824480
     0.386819331  0.412160343  0.793673566
     0.384759005  0.483582580  0.791877501
     0.378352744  0.514804122  0.760736633
     0.191873109  0.299684139  0.985928128
     0.229209382  0.261851937  0.984110260
     0.248687180  0.252702536  0.952966687
     0.292688205  0.252379832  0.951167183
     0.312209528  0.261228774  0.920017392
     0.349751228  0.298512181  0.918207570
     0.363505390  0.322674272  0.887055514
     0.383427880  0.386424227  0.885249116
     0.387328770  0.418717179  0.854096485
     0.383739972  0.489981920  0.852290823
     0.376646940  0.520811255  0.821140539
     0.315953265  0.263639983  0.980446631
     0.352684774  0.303009429  0.978633275
     0.365920094  0.327953642  0.947486446
     0.384493205  0.392772032  0.945682649
     0.387709121  0.425281919  0.914526847
     0.382617432  0.496301390  0.912715601
     0.374870323  0.526727296  0.881561503
     0.387945078  0.431825852  0.974963337
     0.381345181  0.502520768  0.973148950
     0.372965746  0.532507095  0.941996155
     0.450785945  0.489985643  0.503966823
     0.462496868  0.544843272  0.480890378

  ion indices of the primitive-cell ions
   primitive index   ion index
                 1           1
                 2           2
                 3           3
                 4           4
                 5           5
                 6           6
                 7           7
                 8           8
                 9           9
                10          10
                11          11
                12          12
                13          13
                14          14
                15          15
                16          16
                17          17
                18          18
                19          19
                20          20
                21          21
                22          22
                23          23
                24          24
                25          25
                26          26
                27          27
                28          28
                29          29
                30          30
                31          31
                32          32
                33          33
                34          34
                35          35
                36          36
                37          37
                38          38
                39          39
                40          40
                41          41
                42          42
                43          43
                44          44
                45          45
                46          46
                47          47
                48          48
                49          49
                50          50
                51          51
                52          52
                53          53
                54          54
                55          55
                56          56
                57          57
                58          58
                59          59
                60          60
                61          61
                62          62
                63          63
                64          64
                65          65
                66          66
                67          67
                68          68
                69          69
                70          70
                71          71
                72          72
                73          73
                74          74
                75          75
                76          76
                77          77
                78          78
                79          79
                80          80
                81          81
                82          82
                83          83
                84          84
                85          85
                86          86
                87          87
                88          88
                89          89
                90          90
                91          91
                92          92
                93          93
                94          94
                95          95
                96          96
                97          97
                98          98
                99          99
               100         100
               101         101
               102         102
               103         103
               104         104
               105         105
               106         106
               107         107
               108         108
               109         109
               110         110
               111         111
               112         112
               113         113
               114         114
               115         115
               116         116
               117         117
               118         118
               119         119
               120         120
               121         121
               122         122
               123         123
               124         124
               125         125
               126         126
               127         127
               128         128
               129         129
               130         130
               131         131
               132         132
               133         133
               134         134
               135         135
               136         136
               137         137
               138         138
               139         139
               140         140
               141         141
               142         142
               143         143
               144         144
               145         145
               146         146
               147         147
               148         148
               149         149
               150         150
               151         151
               152         152
               153         153
               154         154
               155         155
               156         156
               157         157
               158         158
               159         159
               160         160
               161         161
               162         162
               163         163
               164         164
               165         165
               166         166
               167         167
               168         168
               169         169
               170         170
               171         171
               172         172
               173         173
               174         174
               175         175
               176         176
               177         177
               178         178
               179         179
               180         180
               181         181
               182         182
               183         183
               184         184
               185         185
               186         186
               187         187
               188         188
               189         189
               190         190
               191         191
               192         192
               193         193
               194         194
               195         195
               196         196
               197         197
               198         198
               199         199
               200         200
               201         201
               202         202
               203         203
               204         204
               205         205
               206         206
               207         207
               208         208
               209         209
               210         210
               211         211
               212         212
               213         213
               214         214
               215         215
               216         216
               217         217
               218         218
               219         219
               220         220
               221         221
               222         222
               223         223
               224         224
               225         225
               226         226
               227         227
               228         228
               229         229
               230         230
               231         231
               232         232
               233         233
               234         234
               235         235
               236         236
               237         237
               238         238
               239         239
               240         240
               241         241
               242         242
               243         243
               244         244
               245         245
               246         246
               247         247
               248         248
               249         249
               250         250
               251         251
               252         252
               253         253
               254         254
               255         255
               256         256
               257         257
               258         258
               259         259
               260         260
               261         261
               262         262
               263         263
               264         264
               265         265
               266         266
               267         267
               268         268
               269         269
               270         270
               271         271
               272         272
               273         273
               274         274
               275         275
               276         276
               277         277
               278         278
               279         279
               280         280
               281         281
               282         282
               283         283
               284         284
               285         285
               286         286
               287         287
               288         288
               289         289
               290         290
               291         291
               292         292
               293         293
               294         294
               295         295
               296         296
               297         297
               298         298
               299         299
               300         300
               301         301
               302         302
               303         303
               304         304
               305         305
               306         306
               307         307
               308         308
               309         309
               310         310
               311         311
               312         312
               313         313
               314         314
               315         315
               316         316
               317         317
               318         318
               319         319
               320         320
               321         321
               322         322
               323         323
               324         324
               325         325
               326         326
               327         327
               328         328
               329         329
               330         330
               331         331
               332         332
               333         333
               334         334
               335         335
               336         336
               337         337
               338         338
               339         339
               340         340
               341         341
               342         342
               343         343
               344         344
               345         345
               346         346
               347         347
               348         348
               349         349
               350         350
               351         351
               352         352
               353         353
               354         354
               355         355
               356         356
               357         357
               358         358
               359         359
               360         360
               361         361
               362         362
               363         363
               364         364
               365         365
               366         366

----------------------------------------------------------------------------------------

 
 
 KPOINTS: KPOINTS created by Atomic Simulation Env

Automatic generation of k-mesh.
 Grid dimensions read from file:
 generate k-points for:    1    1    2

 Generating k-lattice:

  Cartesian coordinates                     Fractional coordinates (reciprocal lattice)
     0.030890608  0.000000000  0.000000000     1.000000000  0.000000000  0.000000000
     0.000000000  0.050197241  0.000000000     0.000000000  1.000000000  0.000000000
     0.000000000  0.000000000  0.012361536     0.000000000  0.000000000  0.500000000

  Length of vectors
     0.030890608  0.050197241  0.012361536

  Shift w.r.t. Gamma in fractional coordinates (k-lattice)
     0.000000000  0.000000000  0.000000000

 
 Subroutine IBZKPT returns following result:
 ===========================================
 
 Found      2 irreducible k-points:
 
 Following reciprocal coordinates:
            Coordinates               Weight
  0.000000  0.000000  0.000000      1.000000
  0.000000  0.000000  0.500000      1.000000
 
 Following cartesian coordinates:
            Coordinates               Weight
  0.000000  0.000000  0.000000      1.000000
  0.000000  0.000000  0.012362      1.000000
 


--------------------------------------------------------------------------------------------------------




 Dimension of arrays:
   k-points           NKPTS =      2   k-points in BZ     NKDIM =      2   number of bands    NBANDS=    896
   number of dos      NEDOS =    301   number of ions     NIONS =    366
   non local maximal  LDIM  =      4   non local SUM 2l+1 LMDIM =      8
   total plane-waves  NPLWV = ******
   max r-space proj   IRMAX =      1   max aug-charges    IRDMAX=   3987
   dimension x,y,z NGX =   160 NGY =   98 NGZ =  200
   dimension x,y,z NGXF=   320 NGYF=  196 NGZF=  400
   support grid    NGXF=   320 NGYF=  196 NGZF=  400
   ions per type =             364   1   1
   NGX,Y,Z   is equivalent  to a cutoff of   8.22,  8.18,  8.22 a.u.
   NGXF,Y,Z  is equivalent  to a cutoff of  16.43, 16.36, 16.44 a.u.

 SYSTEM =  01_AOPT                                 
 POSCAR =   C  S  O                                

 Startparameter for this run:
   NWRITE =      2    write-flag & timer
   PREC   = normal    normal or accurate (medium, high low for compatibility)
   ISTART =      0    job   : 0-new  1-cont  2-samecut
   ICHARG =      1    charge: 1-file 2-atom 10-const
   ISPIN  =      1    spin polarized calculation?
   LNONCOLLINEAR =      F non collinear calculations
   LSORBIT =      F    spin-orbit coupling
   INIWAV =      1    electr: 0-lowe 1-rand  2-diag
   LASPH  =      F    aspherical Exc in radial PAW
 Electronic Relaxation 1
   ENCUT  =  400.0 eV  29.40 Ry    5.42 a.u.  52.79 32.49 65.96*2*pi/ulx,y,z
   ENINI  =  400.0     initial cutoff
   ENAUG  =  644.9 eV  augmentation charge cutoff
   NELM   =     60;   NELMIN=  2; NELMDL=  0     # of ELM steps 
   EDIFF  = 0.1E-05   stopping-criterion for ELM
   LREAL  =      F    real-space projection
   NLSPLINE    = F    spline interpolate recip. space projectors
   LCOMPAT=      F    compatible to vasp.4.4
   GGA_COMPAT  = T    GGA compatible to vasp.4.4-vasp.4.6
   LMAXPAW     = -100 max onsite density
   LMAXMIX     =    2 max onsite mixed and CHGCAR
   VOSKOWN=      0    Vosko Wilk Nusair interpolation
   ROPT   =    0.00000   0.00000   0.00000
 Ionic relaxation
   EDIFFG = -.1E-01   stopping-criterion for IOM
   NSW    =    400    number of steps for IOM
   NBLOCK =      1;   KBLOCK =    400    inner block; outer block 
   IBRION =      1    ionic relax: 0-MD 1-quasi-New 2-CG
   NFREE  =      0    steps in history (QN), initial steepest desc. (CG)
   ISIF   =      2    stress and relaxation
   IWAVPR =     11    prediction:  0-non 1-charg 2-wave 3-comb
   ISYM   =      2    0-nonsym 1-usesym 2-fastsym
   LCORR  =      T    Harris-Foulkes like correction to forces

   POTIM  = 0.5000    time-step for ionic-motion
   TEIN   =    0.0    initial temperature
   TEBEG  =    0.0;   TEEND  =   0.0 temperature during run
   SMASS  =  -3.00    Nose mass-parameter (am)
   estimated Nose-frequenzy (Omega)   =  0.10E-29 period in steps = 0.13E+47 mass=  -0.239E-25a.u.
   SCALEE = 1.0000    scale energy and forces
   NPACO  =    256;   APACO  = 10.0  distance and # of slots for P.C.
   PSTRESS=    0.0 pullay stress

  Mass of Ions in am
   POMASS =  12.01 32.07 16.00
  Ionic Valenz
   ZVAL   =   4.00  6.00  6.00
  Atomic Wigner-Seitz radii
   RWIGS  =  -1.00 -1.00 -1.00
  virtual crystal weights 
   VCA    =   1.00  1.00  1.00
   NELECT =    1468.0000    total number of electrons
   NUPDOWN=      -1.0000    fix difference up-down

 DOS related values:
   EMIN   =  10.00;   EMAX   =-10.00  energy-range for DOS
   EFERMI =   0.00;   METHOD = LEGACY      
   ISMEAR =     0;   SIGMA  =   0.01  broadening in eV -4-tet -1-fermi 0-gaus

 Electronic relaxation 2 (details)
   IALGO  =     38    algorithm
   LDIAG  =      T    sub-space diagonalisation (order eigenvalues)
   LSUBROT=      F    optimize rotation matrix (better conditioning)
   TURBO    =      0    0=normal 1=particle mesh
   IRESTART =      0    0=no restart 2=restart with 2 vectors
   NREBOOT  =      0    no. of reboots
   NMIN     =      0    reboot dimension
   EREF     =   0.00    reference energy to select bands
   IMIX   =      4    mixing-type and parameters
     AMIX     =   0.20;   BMIX     =  0.00
     AMIX_MAG =   0.80;   BMIX_MAG =  0.00
     AMIN     =   0.10
     WC   =   100.;   INIMIX=   1;  MIXPRE=   1;  MAXMIX= -45

 Intra band minimization:
   WEIMIN = 0.0010     energy-eigenvalue tresh-hold
   EBREAK =  0.28E-09  absolut break condition
   DEPER  =   0.30     relativ break condition  

   TIME   =   0.40     timestep for ELM

  volume/ion in A,a.u.               =      71.27       480.96
  Fermi-wavevector in a.u.,A,eV,Ry     =   0.627364  1.185547  5.355061  0.393586
  Thomas-Fermi vector in A             =   1.688938
 
 Write flags
   LWAVE        =      F    write WAVECAR
   LDOWNSAMPLE  =      F    k-point downsampling of WAVECAR
   LCHARG       =      T    write CHGCAR
   LVTOT        =      F    write LOCPOT, total local potential
   LVHAR        =      F    write LOCPOT, Hartree potential only
   LELF         =      F    write electronic localiz. function (ELF)
   LORBIT       =      0    0 simple, 1 ext, 2 COOP (PROOUT), +10 PAW based schemes


 Dipole corrections
   LMONO  =      F    monopole corrections only (constant potential shift)
   LDIPOL =      F    correct potential (dipole corrections)
   IDIPOL =      0    1-x, 2-y, 3-z, 4-all directions 
   EPSILON=  1.0000000 bulk dielectric constant

 Exchange correlation treatment:
   GGA     =    PE    GGA type
   LEXCH   =     8    internal setting for exchange type
   LIBXC   =     F    Libxc                    
   VOSKOWN =     0    Vosko Wilk Nusair interpolation
   LHFCALC =     F    Hartree Fock is set to
   LHFONE  =     F    Hartree Fock one center treatment
   AEXX    =    0.0000 exact exchange contribution

 Linear response parameters
   LEPSILON=     F    determine dielectric tensor
   LRPA    =     F    only Hartree local field effects (RPA)
   LNABLA  =     F    use nabla operator in PAW spheres
   LVEL    =     F    velocity operator in full k-point grid
   CSHIFT  =0.1000    complex shift for real part using Kramers Kronig
   OMEGAMAX=  -1.0    maximum frequency
   DEG_THRESHOLD= 0.2000000E-02 threshold for treating states as degnerate
   RTIME   =   -0.100 relaxation time in fs
  (WPLASMAI=    0.000 imaginary part of plasma frequency in eV, 0.658/RTIME)
   DFIELD  = 0.0000000 0.0000000 0.0000000 field for delta impulse in time
 
  Optional k-point grid parameters
   LKPOINTS_OPT  =     F    use optional k-point grid
   KPOINTS_OPT_MODE=     1    mode for optional k-point grid
 
 Orbital magnetization related:
   ORBITALMAG=     F  switch on orbital magnetization
   LCHIMAG   =     F  perturbation theory with respect to B field
   DQ        =  0.001000  dq finite difference perturbation B field
   LLRAUG    =     F  two centre corrections for induced B field
   LBONE     =     F  B-component reconstruction in AE one-centre
   LVGVCALC  =     T  calculate vGv susceptibility
   LVGVAPPL  =     F  apply vGv susceptibility instead of pGv for G=0

 Random number generation:
   RANDOM_GENERATOR = DEFAULT
   PCG_SEED         = not used


--------------------------------------------------------------------------------------------------------


 quasi-Newton-method for relaxation of ions
   using selective dynamics as specified on POSCAR
 charge density and potential will be updated during run
 non-spin polarized calculation
 Variant of blocked Davidson
 Davidson routine will perform the subspace rotation
 perform sub-space diagonalisation
    after iterative eigenvector-optimisation
 modified Broyden-mixing scheme, WC =      100.0
 initial mixing is a Kerker type mixing with AMIX =  0.2000 and BMIX =      0.0001
 Hartree-type preconditioning will be used
 using additional bands           162
 reciprocal scheme for non local part
 use partial core corrections
 calculate Harris-corrections to forces 
   (improved forces if not selfconsistent)
 use gradient corrections 
 use of overlap-Matrix (Vanderbilt PP)
 Gauss-broadening in eV      SIGMA  =   0.01


--------------------------------------------------------------------------------------------------------


  energy-cutoff  :      400.00
  volume of cell :    26085.03
      direct lattice vectors                 reciprocal lattice vectors
    32.372299194  0.000000000  0.000000000     0.030890608  0.000000000  0.000000000
     0.000000000 19.921413422  0.000000000     0.000000000  0.050197241  0.000000000
     0.000000000  0.000000000 40.448047638     0.000000000  0.000000000  0.024723072

  length of vectors
    32.372299194 19.921413422 40.448047638     0.030890608  0.050197241  0.024723072


 
 k-points in units of 2pi/SCALE and weight: KPOINTS created by Atomic Simulation Env
   0.00000000  0.00000000  0.00000000       0.500
   0.00000000  0.00000000  0.01236154       0.500
 
 k-points in reciprocal lattice and weights: KPOINTS created by Atomic Simulation Env
   0.00000000  0.00000000  0.00000000       0.500
   0.00000000  0.00000000  0.50000000       0.500
 
 position of ions in fractional coordinates (direct lattice) 
   0.37090911  0.53813643  0.00243407
   0.36871680  0.54362884  0.06286991
   0.33804289  0.59489763  0.06106272
   0.32050434  0.61136095  0.02990262
   0.27783901  0.62883029  0.02808033
   0.36639177  0.54897878  0.12330077
   0.33466564  0.59852734  0.12150096
   0.31679144  0.61401072  0.09034263
   0.27378282  0.62908730  0.08851903
   0.25357448  0.62697233  0.05735897
   0.21210860  0.60305845  0.05554231
   0.19560189  0.58398519  0.02438020
   0.16802778  0.52826350  0.02256718
   0.36394088  0.55417386  0.18372074
   0.33120821  0.60194592  0.18193234
   0.31302583  0.61645285  0.15077986
   0.26972367  0.62914293  0.14896151
   0.24957310  0.62588853  0.11780257
   0.20864187  0.59966110  0.11599068
   0.19254926  0.57967263  0.08482605
   0.16618228  0.52243679  0.08300594
   0.15891923  0.49169870  0.05185099
   0.15492773  0.42048812  0.05003368
   0.15866616  0.38811403  0.01887973
   0.17824266  0.32407923  0.01707478
   0.36143474  0.55923100  0.24413088
   0.32771584  0.60517447  0.24236167
   0.30921730  0.61866880  0.21122153
   0.26567608  0.62894783  0.20941476
   0.24559930  0.62458383  0.17824910
   0.20525511  0.59606797  0.17644047
   0.18958914  0.57520225  0.14527626
   0.16445962  0.51650463  0.14344773
   0.15786353  0.48537425  0.11229206
   0.15538497  0.41398433  0.11047397
   0.15980080  0.38184219  0.07931468
   0.18070875  0.31893018  0.07750261
   0.19484766  0.29532020  0.04635471
   0.23296230  0.25959262  0.04453586
   0.25263496  0.25156335  0.01339135
   0.29661365  0.25370323  0.01159117
   0.37095645  0.53751411  0.33563571
   0.35889776  0.56414715  0.30454177
   0.32421455  0.60814206  0.30280360
   0.30540091  0.62060681  0.27166141
   0.26167762  0.62841497  0.26987337
   0.24168074  0.62301185  0.23870956
   0.20195621  0.59224918  0.23689698
   0.18674402  0.57053087  0.20573356
   0.16288356  0.51045161  0.20389288
   0.15695241  0.47898002  0.17273095
   0.15598858  0.40750001  0.17091077
   0.16106652  0.37562801  0.13975324
   0.18328340  0.31390153  0.13793455
   0.19791326  0.29110676  0.10678254
   0.23675323  0.25751519  0.10496465
   0.25658605  0.25059960  0.07381602
   0.30049550  0.25519744  0.07201392
   0.31961393  0.26624480  0.04087375
   0.35549098  0.30764078  0.03905946
   0.36820683  0.33332864  0.00791591
   0.38540100  0.39914256  0.00611677
   0.36898957  0.54276046  0.39603532
   0.35632277  0.56883053  0.36492612
   0.32071370  0.61065046  0.36323771
   0.30161811  0.62222532  0.33212036
   0.25773311  0.62751128  0.33034340
   0.23784659  0.62106736  0.29919363
   0.19878651  0.58812031  0.29736389
   0.18401838  0.56563906  0.26618740
   0.16143043  0.50428895  0.26433406
   0.15615901  0.47252871  0.23316835
   0.15670401  0.40102740  0.23134443
   0.16247347  0.36947254  0.20019163
   0.18596709  0.30901120  0.19836933
   0.20105757  0.28703873  0.16721205
   0.24057433  0.25559694  0.16540096
   0.26054307  0.24980611  0.13424902
   0.30432994  0.25685339  0.13244168
   0.32321118  0.26898572  0.10130047
   0.35818490  0.31236889  0.09948570
   0.37035721  0.33877599  0.06834542
   0.38614466  0.40551708  0.06654988
   0.38800971  0.43834441  0.03540416
   0.37991032  0.50862573  0.03358762
   0.36724680  0.54696565  0.45642733
   0.35375329  0.57270634  0.42541252
   0.31716825  0.61235946  0.42370878
   0.29785685  0.62315145  0.39264992
   0.25386517  0.62599601  0.39083616
   0.23410096  0.61865211  0.35966535
   0.19573940  0.58367362  0.35781297
   0.18141097  0.56049986  0.32663175
   0.16005915  0.49797361  0.32477142
   0.15547063  0.46598140  0.29360491
   0.15749324  0.39454895  0.29177586
   0.16396442  0.36335874  0.26061842
   0.18872404  0.30425760  0.25879610
   0.20428062  0.28312925  0.22764985
   0.24444301  0.25387468  0.22585232
   0.26451499  0.24920498  0.19468906
   0.30812215  0.25869316  0.19287518
   0.32673308  0.27188695  0.16172930
   0.36076293  0.31721745  0.15991151
   0.37237099  0.34430992  0.12877488
   0.38671614  0.41190536  0.12697538
   0.38789861  0.44483555  0.09583562
   0.37832365  0.51462078  0.09401993
   0.36562586  0.55479504  0.51709115
   0.35124783  0.57683043  0.48620565
   0.31343361  0.61364030  0.48422641
   0.29393223  0.62308485  0.45309341
   0.25003246  0.62392156  0.45125156
   0.23039861  0.61582910  0.42008751
   0.19267000  0.57904126  0.41823220
   0.17884957  0.55514914  0.38707291
   0.15872691  0.49154879  0.38521474
   0.15484556  0.45933919  0.35403302
   0.15834048  0.38808171  0.35220045
   0.16548767  0.35728452  0.32104701
   0.19152516  0.29961959  0.31922999
   0.20756803  0.27942705  0.28809476
   0.24833346  0.25247455  0.28631225
   0.26849104  0.24884948  0.25514048
   0.31187958  0.26076785  0.25332205
   0.33019283  0.27497297  0.22216900
   0.36323045  0.32220685  0.22034137
   0.37424701  0.34994113  0.18919714
   0.38713601  0.41829591  0.18738522
   0.38762386  0.45128847  0.15625463
   0.37658651  0.52050318  0.15444397
   0.36259132  0.55956595  0.57770702
   0.34801575  0.58158315  0.54625674
   0.30949449  0.61615442  0.54447710
   0.28995575  0.62413923  0.51339783
   0.24585365  0.62283724  0.51159085
   0.22656986  0.61309253  0.48051513
   0.18956769  0.57441554  0.47865943
   0.17631959  0.54966090  0.44748622
   0.15752996  0.48508117  0.44564583
   0.15427524  0.45267042  0.41446974
   0.15926151  0.38160944  0.41264020
   0.16708815  0.35125771  0.38149201
   0.19436029  0.29512162  0.37967787
   0.21088981  0.27592186  0.34853212
   0.25222875  0.25144132  0.34675347
   0.27246275  0.24885879  0.31561180
   0.31561282  0.26316956  0.31380293
   0.33358960  0.27833583  0.28261035
   0.36559597  0.32736178  0.28076124
   0.37602233  0.35566993  0.24961089
   0.38746997  0.42470788  0.24777700
   0.38722968  0.45770780  0.21665807
   0.37474528  0.52627035  0.21485824
   0.35937954  0.56427092  0.63807181
   0.34494960  0.58693605  0.60674650
   0.30572387  0.61981559  0.60490432
   0.28587875  0.62576123  0.57377785
   0.24197991  0.62153254  0.57198050
   0.22281497  0.61065179  0.54084799
   0.18669476  0.56980790  0.53904073
   0.17384411  0.54435495  0.50792185
   0.15640953  0.47860246  0.50610210
   0.15388689  0.44600522  0.47495346
   0.16037558  0.37526289  0.47311891
[...]
  244        set_dd_magatom                        0.000000                            1   3
  245        set_dd_paw                            0.001633                            1   3
  246          set_rsgf_all                          0.000000                          1   4
  247          m_sumb_d                              0.001049                          8   4
  248        strkin                                0.018614                            1   3
  249          m_sumb_d                              0.000712                          1   4
  250        strelo                                0.007551                            1   3
  251          m_sumb_d                              0.000079                          2   4
  252        strenl                               93.047938                            1   3
  253          spher                                 1.229026                         19   4
  254          phase                                 0.000001                          9   4
  255          proj1                                89.319929                        252   4
  256            crexp_mul_wave                       29.864702                    92232   5
  257            m_sumb_d                              9.455337                      252   5
  258          m_sumb_d                              2.495666                          1   4
  259        m_sumb_d                              0.002287                            6   3
  260        fft3d_mpi                             0.051294                           11   3
  261          fftbrc_mpi                            0.049769                         11   4
  262            fftbas_plan_mpi                       0.049764                       11   5
  263              dfftw_execute                         0.014234                     33   6
  264              map_forward                           0.014163                     10   6
  265                map_gather                            0.002074                    5   7
  266                m_alltoallv_z                         0.009543                    5   7
  267                map_scatter                           0.002515                    5   7
  268              map_backward                          0.021212                     12   6
  269                map_gather                            0.004259                    6   7
  270                m_alltoallv_z                         0.014882                    6   7
  271                map_scatter                           0.002022                    6   7
  272        ggaall_grid                           0.031098                            1   3
  273        forhar                                0.114090                            2   3
  274          m_sumb_d                              0.001283                          2   4
  275        strehar                               0.004100                            1   3
  276          m_sumb_d                              0.000387                          1   4
  277        chggra                                0.019381                            1   3
  278          fft3d_mpi                             0.013420                          3   4
  279            fftbrc_mpi                            0.013153                        3   5
  280              fftbas_plan_mpi                       0.013152                      3   6
  281                dfftw_execute                         0.003731                    9   7
  282                map_backward                          0.002649                    2   7
  283                  map_gather                            0.000689                  1   8
  284                  m_alltoallv_z                         0.001600                  1   8
  285                  map_scatter                           0.000355                  1   8
  286                map_forward                           0.006732                    4   7
  287                  map_gather                            0.000920                  2   8
  288                  m_alltoallv_z                         0.004442                  2   8
  289                  map_scatter                           0.001356                  2   8
  290          m_sumb_d                              0.000308                          2   4
  291          pothar                                0.001109                          1   4
  292            m_sumb_d                              0.000092                        1   5
  293        brmix                                 0.006446                            1   3
  294          m_sumb_d                              0.003261                          6   4
  295          brpre                                 0.000055                          1   4
  296          setg0                                 0.000776                          1   4
  297          broyd                                 0.001466                          1   4
  298            m_sumb_d                              0.000284                       18   5
  299            brget                                 0.000391                       64   5
  300            brsav                                 0.000094                       16   5
  301          m_bcast_z                             0.000169                          1   4
  302          m_bcast_d                             0.000024                          1   4
  303        m_bcast_d                             0.213910                            2   3
  304      potlok                                0.114740                              1   2
  305        fft3d_mpi                             0.056983                           13   3
  306          fftbrc_mpi                            0.055213                         13   4
  307            fftbas_plan_mpi                       0.055206                       13   5
  308              dfftw_execute                         0.016638                     39   6
  309              map_forward                           0.013913                     14   6
  310                map_gather                            0.002219                    8   7
  311                m_alltoallv_z                         0.007895                    8   7
  312                map_scatter                           0.003744                    8   7
  313              map_backward                          0.024502                     12   6
  314                map_gather                            0.004770                    6   7
  315                m_alltoallv_z                         0.017297                    6   7
  316                map_scatter                           0.002389                    6   7
  317        ggaall_grid                           0.031124                            1   3
  318        m_sumb_d                              0.002425                            5   3
  319        pothar                                0.001169                            1   3
  320          m_sumb_d                              0.000061                          1   4
  321        m_bcast_d                             0.004717                            1   3
  322      potlok_metagga                        0.000000                              1   2
  323      set_dd_magatom                        0.000000                              1   2
  324      set_dd_paw                            0.001160                              1   2
  325        set_rsgf_all                          0.000000                            1   3
  326        m_sumb_d                              0.000541                            8   3
  327      m_alltoall_d                          0.789306                           1600   2
 
 Flat profile
 ============
 
             routine name                   CPU           calls
 ---------------------------------------------------------------
 gemm                                  320.792919      570594
 proj1                                 288.595874        1391
 work_mul_crexp                        243.081196      570594
 crexp_mul_wave                        177.302923      509106
 m_alltoallv_z                         108.779711        3630
 total_time                             63.098566           1
 m_alltoall_d                           53.519712       23069
 fornl                                  43.740635           1
 m_sumb_d                               43.630116        8770
 orth1                                  36.439378        4705
 dfftw_execute                          33.614748       10815
 ggemm                                  31.896688        2007
 m_bcast_z                              14.501501        3439
 wfinit                                 11.303901           1
 lincom                                  9.731269          17
 eddav                                   9.530722          16
 vhamil                                  7.122009        1559
 map_gather                              6.242370        3630
 fftext_mpi                              6.011314        1559
 map_scatter                             4.437005        3630
 fftwav_mpi                              3.828698        1835
 lapack                                  3.585172        1559
 pdssyex_zheevx                          2.308481          16
 force_and_stress                        2.304041           1
 vnlac0                                  1.763311        1559
 redis_pw                                1.369933        4263
 spher                                   1.306461          20
 map_forward                             1.209480        3872
 eccp                                    1.024549         448
 w1_copy                                 0.947029        4677
 phase                                   0.688053          28
 pw_charge                               0.671103         276
 apply_precond                           0.522971        1111
 m_bcast_d                               0.516243        3548
 hamiltmu                                0.456743        1559
 ggaall_grid                             0.419672          14
 kinhamil                                0.318710        1559
 setup_precond                           0.251464         448
 potlok                                  0.240399          13
 stufak                                  0.222420           2
 fftbas_plan_mpi                         0.130215        3605
 elmin                                   0.117952           1
 forhar                                  0.112807           2
 forloc                                  0.110394           1
 soft_charge                             0.086307          12
 choleski                                0.060459           1
 setdij_                                 0.039650          40
 overl1                                  0.031819        1559
 fft3d_mpi                               0.031554        3605
 augmentation_charge                     0.026039          12
 overl                                   0.023204        2671
 redis_proj                              0.023041        5375
 brmix                                   0.020215          12
 map_backward                            0.018472        3338
 strkin                                  0.017902           1
 pothar                                  0.014684          14
 orthch                                  0.010916           1
 setg0                                   0.009933          13
 set_dd_paw                              0.008471          14
 newband                                 0.008130        1575
 strelo                                  0.007472           1
 inisym                                  0.006835           1
 broyd                                   0.005848          12
 w1_projall                              0.005606        1111
 set_charge                              0.004802          12
 chggra                                  0.004544           1
 rsp                                     0.004531           1
 fftbas_mpi                              0.004335        3394
 fft_gq                                  0.004202          12
 strehar                                 0.003713           1
 strenl                                  0.003316           1
 fewald                                  0.002909           1
 brget                                   0.002764         432
 depsum                                  0.002407          12
 densta                                  0.001732          16
 brsav                                   0.000733         128
 brpre                                   0.000691          12
 truncate_high_frequency_w1              0.000422        2007
 rcp                                     0.000299           1
 brgrid                                  0.000207           1
 proj                                    0.000186           1
 posmap                                  0.000143           2
 fftbrc_mpi                              0.000116         211
 fordep                                  0.000096           1
 crpa_reader                             0.000029           1
 FERMAT_RAZOR                            0.000012           1
 set_rsgf_all                            0.000006          14
 potlok_metagga                          0.000005          13
 proall                                  0.000005           1
 vectorpot                               0.000005          13
 set_dd_magatom                          0.000002          14
 redis_pw_over_bands                     0.000000           1
 rotate_active_occupied_orbital          0.000000           1
 ---------------------------------------------------------------
  summed up times     1538.297624826431     
 
 Accumulative profile
 ====================
 
             routine name                   CPU           calls
 ---------------------------------------------------------------
 total_time                           1538.297625           1
 elmin                                1295.567519           1
 eddav                                1287.580526          16
 hamiltmu                              706.304534        1559
 vnlac0                                566.024686        1559
 proj1                                 505.188699        1391
 w1_projall                            405.849946        1111
 gemm                                  320.792919      570594
 work_mul_crexp                        243.081196      570594
 crexp_mul_wave                        177.302923      509106
 fft3d_mpi                             154.468006        3605
 fftbas_plan_mpi                       154.432001        3605
 fftbas_mpi                            153.245989        3394
 force_and_stress                      140.366172           1
 kinhamil                              132.669278        1559
 fftext_mpi                            132.350568        1559
 map_backward                          110.233845        3338
 m_alltoallv_z                         108.779711        3630
 strenl                                 93.047938           1
 m_alltoall_d                           53.519712       23069
 fornl                                  43.792803           1
 m_sumb_d                               43.630116        8770
 orth1                                  36.439378        4705
 dfftw_execute                          33.614748       10815
 ggemm                                  31.896688        2007
 fftwav_mpi                             30.740861        1835
 redis_pw                               27.266809        4263
 wfinit                                 25.499768           1
 redis_proj                             19.548710        5375
 m_bcast_z                              14.501501        3439
 proall                                 10.712671           1
 map_forward                            10.453193        3872
 newband                                10.060378        1575
 proj                                   10.024616           1
 lincom                                  9.731269          17
 vhamil                                  7.122009        1559
 set_charge                              6.340639          12
 map_gather                              6.242370        3630
 soft_charge                             6.218174          12
 map_scatter                             4.437005        3630
 lapack                                  3.585172        1559
 pdssyex_zheevx                          2.308492          16
 potlok                                  1.536874          13
 orthch                                  1.458788           1
 spher                                   1.306461          20
 fftbrc_mpi                              1.190463         211
 eccp                                    1.048051         448
 w1_copy                                 0.947029        4677
 phase                                   0.688053          28
 pw_charge                               0.671103         276
 apply_precond                           0.522971        1111
 m_bcast_d                               0.516243        3548
 densta                                  0.481006          16
 ggaall_grid                             0.419672          14
 setup_precond                           0.267891         448
 stufak                                  0.222420           2
 fft_gq                                  0.181943          12
 forhar                                  0.114090           2
 forloc                                  0.110489           1
 augmentation_charge                     0.110379          12
 setdij_                                 0.087273          40
 brmix                                   0.083969          12
 fewald                                  0.078244           1
 choleski                                0.060459           1
 set_dd_paw                              0.042272          14
 overl1                                  0.031819        1559
 overl                                   0.023204        2671
 pothar                                  0.019564          14
 chggra                                  0.019381           1
 strkin                                  0.018614           1
 broyd                                   0.011301          12
 setg0                                   0.009933          13
 fordep                                  0.009862           1
 strelo                                  0.007551           1
 depsum                                  0.007285          12
 inisym                                  0.006978           1
 rsp                                     0.004531           1
 strehar                                 0.004100           1
 brget                                   0.002764         432
 brsav                                   0.000733         128
 brpre                                   0.000691          12
 truncate_high_frequency_w1              0.000422        2007
 rcp                                     0.000299           1
 brgrid                                  0.000207           1
 posmap                                  0.000143           2
 crpa_reader                             0.000029           1
 FERMAT_RAZOR                            0.000012           1
 set_rsgf_all                            0.000006          14
 potlok_metagga                          0.000005          13
 vectorpot                               0.000005          13
 set_dd_magatom                          0.000002          14
 redis_pw_over_bands                     0.000000           1
 rotate_active_occupied_orbital          0.000000           1
 ---------------------------------------------------------------
 
Profiling took   0.841565  0.324399  0.004179  0.004132 seconds
Profiling took   0.746706 seconds
