 running  256 mpi-ranks, with    1 threads/rank, on    7 nodes
 distrk:  each k-point on  128 cores,    2 groups
 distr:  one band on    4 cores,   32 groups
 vasp.6.4.1 05Apr23 (build May 18 2023 13:19:41) complex                         
 POSCAR found type information on POSCAR C S O 
 POSCAR found :  3 types and     366 ions
 Reading from existing POTCAR
 scaLAPACK will be used
 Reading from existing POTCAR
 -----------------------------------------------------------------------------
|                                                                             |
|               ----> ADVICE to this user running VASP <----                  |
|                                                                             |
|     You have a (more or less) 'large supercell' and for larger cells it     |
|     might be more efficient to use real-space projection operators.         |
|     Therefore, try LREAL= Auto in the INCAR file.                           |
|     Mind: If you want to do very accurate calculations, keep the            |
|     reciprocal projection scheme (i.e. LREAL=.FALSE.).                      |
|                                                                             |
 -----------------------------------------------------------------------------

 LDA part: xc-table for Pade appr. of Perdew
 POSCAR, INCAR and KPOINTS ok, starting setup
 FFT: planning ... GRIDC
 FFT: planning ... GRID_SOFT
 FFT: planning ... GRID
 WAVECAR not read
 charge-density read from file: 01_AOPT                                 
 WARNING: random wavefunctions but no delay for mixing, default for NELMDL
 entering main loop
       N       E                     dE             d eps       ncg     rms          rms(c)
DAV:   1     0.112551422396E+05    0.11255E+05   -0.41486E+05  4288   0.934E+02
DAV:   2     0.388911212901E+03   -0.10866E+05   -0.10101E+05  5632   0.212E+02
DAV:   3    -0.301304941800E+04   -0.34020E+04   -0.32428E+04  4608   0.115E+02
DAV:   4    -0.330568297116E+04   -0.29263E+03   -0.28374E+03  4416   0.386E+01
DAV:   5    -0.331718403573E+04   -0.11501E+02   -0.11272E+02  5088   0.694E+00    0.124E-01
DAV:   6    -0.331746118418E+04   -0.27715E+00   -0.27284E+00  4768   0.107E+00    0.351E-02
DAV:   7    -0.331747407600E+04   -0.12892E-01   -0.12809E-01  4896   0.204E-01    0.328E-02
DAV:   8    -0.331747438352E+04   -0.30752E-03   -0.33023E-03  4864   0.402E-02    0.254E-02
DAV:   9    -0.331747438359E+04   -0.73574E-07   -0.18067E-04  4608   0.863E-03    0.201E-02
DAV:  10    -0.331747436887E+04    0.14721E-04   -0.12782E-05  4160   0.391E-03    0.137E-02
DAV:  11    -0.331747435756E+04    0.11313E-04   -0.62481E-06  4192   0.290E-03    0.753E-03
DAV:  12    -0.331747434973E+04    0.78295E-05   -0.11328E-06  2848   0.150E-03    0.426E-03
DAV:  13    -0.331747434260E+04    0.71313E-05   -0.10392E-06  2720   0.134E-03    0.135E-03
DAV:  14    -0.331747434007E+04    0.25310E-05   -0.36904E-07  2592   0.780E-04    0.752E-04
DAV:  15    -0.331747433967E+04    0.40117E-06   -0.60833E-09  2528   0.405E-04
   1 F= -.33315900E+04 E0= -.33315900E+04  d E =-.333159E+04
 BRION: g(F)=  0.916E-04 g(S)=  0.000E+00
 bond charge predicted
       N       E                     dE             d eps       ncg     rms          rms(c)
DAV:   1    -0.331747439332E+04   -0.53252E-04   -0.21037E-02  4224   0.107E-01    0.210E-02
DAV:   2    -0.331747440664E+04   -0.13323E-04   -0.22858E-04  4032   0.936E-03    0.132E-02
DAV:   3    -0.331747440867E+04   -0.20248E-05   -0.45915E-06  4064   0.176E-03    0.872E-03
DAV:   4    -0.331747441317E+04   -0.45041E-05   -0.31110E-06  3584   0.159E-03    0.207E-03
DAV:   5    -0.331747441320E+04   -0.32363E-07   -0.46130E-07  2816   0.693E-04
   2 F= -.33315900E+04 E0= -.33315900E+04  d E =-.890818E-04
 BRION: g(F)=  0.871E-04 g(S)=  0.000E+00 BRIONS problems: POTIM should be increased
 retain N=  1 mean eig=34.63
 eig:  34.629
 bond charge predicted
       N       E                     dE             d eps       ncg     rms          rms(c)
DAV:   1    -0.331744952146E+04    0.24892E-01   -0.26005E+01  3968   0.373E+00    0.764E-01
DAV:   2    -0.331747338667E+04   -0.23865E-01   -0.30147E-01  3840   0.331E-01    0.473E-01
DAV:   3    -0.331747347252E+04   -0.85852E-04   -0.54667E-03  4160   0.673E-02    0.339E-01
DAV:   4    -0.331747630502E+04   -0.28325E-02   -0.55996E-03  3936   0.683E-02    0.113E-01
DAV:   5    -0.331747633851E+04   -0.33498E-04   -0.98059E-04  4000   0.346E-02    0.660E-02
DAV:   6    -0.331747643322E+04   -0.94710E-04   -0.24810E-04  4096   0.132E-02    0.396E-02
DAV:   7    -0.331747642164E+04    0.11584E-04   -0.62170E-05  3936   0.874E-03    0.172E-02
DAV:   8    -0.331747642584E+04   -0.42035E-05   -0.38156E-05  4032   0.526E-03    0.420E-03
DAV:   9    -0.331747642596E+04   -0.11490E-06   -0.58121E-06  3904   0.219E-03
   3 F= -.33315926E+04 E0= -.33315926E+04  d E =-.255133E-02
 BRION: g(F)=  0.159E-03 g(S)=  0.000E+00 BRIONS problems: POTIM should be increased
 retain N=  1 mean eig=17.27
 eig:  17.275
 bond charge predicted
       N       E                     dE             d eps       ncg     rms          rms(c)
DAV:   1    -0.331746140287E+04    0.15023E-01   -0.14919E+01  3904   0.286E+00    0.533E-01
DAV:   2    -0.331747285342E+04   -0.11451E-01   -0.14778E-01  3776   0.233E-01    0.355E-01
DAV:   3    -0.331747343840E+04   -0.58498E-03   -0.29557E-03  4256   0.444E-02    0.221E-01
DAV:   4    -0.331747487952E+04   -0.14411E-02   -0.17216E-03  3776   0.364E-02    0.500E-02
DAV:   5    -0.331747498676E+04   -0.10724E-03   -0.30183E-04  4064   0.156E-02    0.400E-02
DAV:   6    -0.331747498623E+04    0.52724E-06   -0.76655E-05  4000   0.897E-03    0.183E-02
DAV:   7    -0.331747498121E+04    0.50203E-05   -0.29726E-05  4000   0.519E-03    0.733E-03
DAV:   8    -0.331747498193E+04   -0.71665E-06   -0.77320E-06  3872   0.257E-03
   4 F= -.33315907E+04 E0= -.33315907E+04  d E =0.184258E-02
 BRION: g(F)=  0.143E-03 g(S)=  0.000E+00 retain N=  1 mean eig= 4.22
 eig:   4.221
 bond charge predicted
       N       E                     dE             d eps       ncg     rms          rms(c)
DAV:   1    -0.331747222403E+04    0.27572E-02   -0.38675E+00  3904   0.145E+00    0.285E-01
DAV:   2    -0.331747500728E+04   -0.27832E-02   -0.39192E-02  3808   0.121E-01    0.179E-01
DAV:   3    -0.331747513103E+04   -0.12375E-03   -0.70460E-04  4288   0.234E-02    0.120E-01
DAV:   4    -0.331747571944E+04   -0.58841E-03   -0.61565E-04  3776   0.219E-02    0.314E-02
DAV:   5    -0.331747573751E+04   -0.18070E-04   -0.10680E-04  4064   0.102E-02    0.210E-02
DAV:   6    -0.331747575019E+04   -0.12681E-04   -0.17904E-05  3968   0.368E-03    0.144E-02
DAV:   7    -0.331747574953E+04    0.66869E-06   -0.90837E-06  3808   0.332E-03
   5 F= -.33315917E+04 E0= -.33315917E+04  d E =-.977400E-03
 BRION: g(F)=  0.629E-04 g(S)=  0.000E+00 retain N=  1 mean eig= 7.28
 eig:   7.279
 bond charge predicted
       N       E                     dE             d eps       ncg     rms          rms(c)
DAV:   1    -0.331747532910E+04    0.42110E-03   -0.85217E-01  3904   0.680E-01    0.131E-01
DAV:   2    -0.331747582217E+04   -0.49307E-03   -0.81396E-03  3744   0.561E-02    0.828E-02
DAV:   3    -0.331747589031E+04   -0.68139E-04   -0.14619E-04  4288   0.104E-02    0.536E-02
DAV:   4    -0.331747607845E+04   -0.18814E-03   -0.12256E-04  3776   0.976E-03    0.132E-02
DAV:   5    -0.331747608151E+04   -0.30539E-05   -0.22208E-05  4032   0.437E-03    0.933E-03
DAV:   6    -0.331747608333E+04   -0.18235E-05   -0.32437E-06  3840   0.162E-03    0.632E-03
DAV:   7    -0.331747608349E+04   -0.16019E-06   -0.16400E-06  3328   0.149E-03
   6 F= -.33315922E+04 E0= -.33315922E+04  d E =-.435403E-03
 BRION: g(F)=  0.603E-04 g(S)=  0.000E+00 retain N=  1 mean eig= 5.93
 eig:   5.927
 bond charge predicted
       N       E                     dE             d eps       ncg     rms          rms(c)
DAV:   1    -0.331747585626E+04    0.22707E-03   -0.63958E-01  3968   0.590E-01    0.112E-01
DAV:   2    -0.331747614472E+04   -0.28845E-03   -0.57442E-03  3744   0.469E-02    0.713E-02
DAV:   3    -0.331747621080E+04   -0.66082E-04   -0.10585E-04  4256   0.882E-03    0.454E-02
DAV:   4    -0.331747636272E+04   -0.15192E-03   -0.87307E-05  3776   0.827E-03    0.110E-02
DAV:   5    -0.331747636424E+04   -0.15190E-05   -0.15726E-05  4032   0.363E-03    0.792E-03
DAV:   6    -0.331747636510E+04   -0.86462E-06   -0.22691E-06  3712   0.137E-03
   7 F= -.33315925E+04 E0= -.33315925E+04  d E =-.367015E-03
 BRION: g(F)=  0.597E-04 g(S)=  0.000E+00 retain N=  1 mean eig= 3.15
 eig:   3.152
 bond charge predicted
       N       E                     dE             d eps       ncg     rms          rms(c)
DAV:   1    -0.331747620265E+04    0.16159E-03   -0.75363E-02  3936   0.203E-01    0.390E-02
DAV:   2    -0.331747623319E+04   -0.30538E-04   -0.75376E-04  3808   0.171E-02    0.248E-02
DAV:   3    -0.331747624402E+04   -0.10824E-04   -0.14880E-05  4224   0.323E-03    0.157E-02
DAV:   4    -0.331747626809E+04   -0.24078E-04   -0.11088E-05  3808   0.297E-03    0.362E-03
DAV:   5    -0.331747626853E+04   -0.44168E-06   -0.17980E-06  3616   0.117E-03
   8 F= -.33315924E+04 E0= -.33315924E+04  d E =0.123266E-03
 BRION: g(F)=  0.631E-04 g(S)=  0.000E+00 retain N=  1 mean eig= 0.64
 eig:   0.637
 bond charge predicted
       N       E                     dE             d eps       ncg     rms          rms(c)
DAV:   1    -0.331747630590E+04   -0.37804E-04   -0.66876E-02  3904   0.191E-01    0.358E-02
DAV:   2    -0.331747633004E+04   -0.24145E-04   -0.60871E-04  3776   0.153E-02    0.227E-02
DAV:   3    -0.331747634100E+04   -0.10956E-04   -0.12150E-05  4224   0.290E-03    0.142E-02
DAV:   4    -0.331747635788E+04   -0.16882E-04   -0.91787E-06  3776   0.266E-03    0.338E-03
DAV:   5    -0.331747635816E+04   -0.27730E-06   -0.15534E-06  3456   0.108E-03
   9 F= -.33315925E+04 E0= -.33315925E+04  d E =-.116986E-03
 BRION: g(F)=  0.478E-04 g(S)=  0.000E+00 retain N=  1 mean eig= 1.14
 eig:   1.139
 bond charge predicted
       N       E                     dE             d eps       ncg     rms          rms(c)
DAV:   1    -0.331747638680E+04   -0.28920E-04   -0.18923E-02  3904   0.101E-01    0.196E-02
DAV:   2    -0.331747639399E+04   -0.71949E-05   -0.17655E-04  3776   0.827E-03    0.125E-02
DAV:   3    -0.331747639826E+04   -0.42699E-05   -0.29695E-06  3872   0.147E-03    0.782E-03
DAV:   4    -0.331747640321E+04   -0.49450E-05   -0.19001E-06  3360   0.127E-03    0.186E-03
DAV:   5    -0.331747640329E+04   -0.82538E-07   -0.27864E-07  2368   0.628E-04
  10 F= -.33315926E+04 E0= -.33315926E+04  d E =-.606531E-04
 BRION: g(F)=  0.481E-04 g(S)=  0.000E+00 retain N=  1 mean eig= 0.63
 eig:   0.634
 bond charge predicted
       N       E                     dE             d eps       ncg     rms          rms(c)
DAV:   1    -0.331747641081E+04   -0.75964E-05   -0.80750E-04  3968   0.212E-02    0.472E-03
DAV:   2    -0.331747641144E+04   -0.62899E-06   -0.11651E-05  3808   0.202E-03    0.304E-03
DAV:   3    -0.331747641153E+04   -0.97440E-07   -0.13495E-07  2368   0.415E-04
  11 F= -.33315926E+04 E0= -.33315926E+04  d E =-.105175E-04
 BRION: g(F)=  0.485E-04 g(S)=  0.000E+00 retain N=  1 mean eig= 0.35
 eig:   0.354
 bond charge predicted
       N       E                     dE             d eps       ncg     rms          rms(c)
DAV:   1    -0.331747643490E+04   -0.23460E-04   -0.83947E-03  4000   0.673E-02    0.130E-02
DAV:   2    -0.331747643784E+04   -0.29403E-05   -0.74065E-05  3776   0.538E-03    0.861E-03
DAV:   3    -0.331747643949E+04   -0.16569E-05   -0.13045E-06  3392   0.101E-03    0.528E-03
DAV:   4    -0.331747644160E+04   -0.21030E-05   -0.94711E-07  3136   0.903E-04    0.135E-03
DAV:   5    -0.331747644163E+04   -0.39116E-07   -0.98563E-08  2272   0.457E-04
  12 F= -.33315926E+04 E0= -.33315926E+04  d E =-.410192E-04
 BRION: g(F)=  0.459E-04 g(S)=  0.000E+00 retain N=  1 mean eig= 0.26
 eig:   0.261
 bond charge predicted
       N       E                     dE             d eps       ncg     rms          rms(c)
DAV:   1    -0.331747646345E+04   -0.21857E-04   -0.75466E-03  4000   0.640E-02    0.121E-02
DAV:   2    -0.331747646615E+04   -0.26993E-05   -0.65517E-05  3808   0.503E-03    0.769E-03
DAV:   3    -0.331747646761E+04   -0.14581E-05   -0.10643E-06  3296   0.909E-04    0.475E-03
DAV:   4    -0.331747646939E+04   -0.17826E-05   -0.74977E-07  3104   0.829E-04    0.104E-03
DAV:   5    -0.331747646941E+04   -0.19907E-07   -0.40413E-08  2272   0.383E-04
  13 F= -.33315927E+04 E0= -.33315927E+04  d E =-.373982E-04
 BRION: g(F)=  0.445E-04 g(S)=  0.000E+00 retain N=  1 mean eig= 2.41
 eig:   2.411
 bond charge predicted
       N       E                     dE             d eps       ncg     rms          rms(c)
DAV:   1    -0.331747650266E+04   -0.33268E-04   -0.34564E-02  3936   0.136E-01    0.252E-02
DAV:   2    -0.331747651333E+04   -0.10670E-04   -0.27117E-04  3776   0.105E-02    0.167E-02
DAV:   3    -0.331747651902E+04   -0.56912E-05   -0.52829E-06  4032   0.200E-03    0.100E-02
DAV:   4    -0.331747652670E+04   -0.76797E-05   -0.36746E-06  3616   0.170E-03    0.263E-03
DAV:   5    -0.331747652681E+04   -0.11176E-06   -0.65082E-07  2816   0.836E-04
  14 F= -.33315928E+04 E0= -.33315928E+04  d E =-.791687E-04
 BRION: g(F)=  0.531E-04 g(S)=  0.000E+00 retain N=  1 mean eig= 0.38
 eig:   0.384
 bond charge predicted
       N       E                     dE             d eps       ncg     rms          rms(c)
DAV:   1    -0.331747650346E+04    0.23238E-04   -0.43472E-03  3968   0.483E-02    0.917E-03
DAV:   2    -0.331747650644E+04   -0.29757E-05   -0.49740E-05  3744   0.427E-03    0.616E-03
DAV:   3    -0.331747650672E+04   -0.27567E-06   -0.73761E-07  3200   0.771E-04
  15 F= -.33315927E+04 E0= -.33315927E+04  d E =0.283798E-04
 BRION: g(F)=  0.449E-04 g(S)=  0.000E+00 retain N=  1 mean eig= 0.03
 eig:   0.030
 bond charge predicted
       N       E                     dE             d eps       ncg     rms          rms(c)
DAV:   1    -0.331747653188E+04   -0.25442E-04   -0.12303E-02  3968   0.817E-02    0.147E-02
DAV:   2    -0.331747653802E+04   -0.61375E-05   -0.11513E-04  3744   0.678E-03    0.930E-03
DAV:   3    -0.331747653937E+04   -0.13532E-05   -0.19816E-06  3680   0.120E-03    0.589E-03
DAV:   4    -0.331747654195E+04   -0.25802E-05   -0.17103E-06  3360   0.117E-03    0.155E-03
DAV:   5    -0.331747654201E+04   -0.54482E-07   -0.22626E-07  2272   0.548E-04
  16 F= -.33315928E+04 E0= -.33315928E+04  d E =-.475429E-04
 BRION: g(F)=  0.429E-04 g(S)=  0.000E+00 retain N=  1 mean eig= 5.09
 eig:   5.090
 bond charge predicted
       N       E                     dE             d eps       ncg     rms          rms(c)
DAV:   1    -0.331747655724E+04   -0.15282E-04   -0.11932E-01  3936   0.253E-01    0.472E-02
DAV:   2    -0.331747659825E+04   -0.41014E-04   -0.94213E-04  3744   0.197E-02    0.316E-02
DAV:   3    -0.331747661605E+04   -0.17799E-04   -0.18923E-05  4256   0.381E-03    0.190E-02
DAV:   4    -0.331747664001E+04   -0.23964E-04   -0.13273E-05  3776   0.317E-03    0.514E-03
DAV:   5    -0.331747664046E+04   -0.44645E-06   -0.26654E-06  3552   0.158E-03
  17 F= -.33315929E+04 E0= -.33315929E+04  d E =-.139150E-03
 BRION: g(F)=  0.970E-04 g(S)=  0.000E+00 retain N=  1 mean eig= 0.22
 eig:   0.223
 bond charge predicted
       N       E                     dE             d eps       ncg     rms          rms(c)
DAV:   1    -0.331747654404E+04    0.95974E-04   -0.45503E-02  3904   0.157E-01    0.294E-02
DAV:   2    -0.331747656981E+04   -0.25769E-04   -0.45534E-04  3808   0.131E-02    0.195E-02
DAV:   3    -0.331747657352E+04   -0.37110E-05   -0.82231E-06  4128   0.242E-03    0.124E-02
DAV:   4    -0.331747658263E+04   -0.91108E-05   -0.72864E-06  3744   0.231E-03    0.341E-03
DAV:   5    -0.331747658280E+04   -0.17323E-06   -0.14005E-06  3104   0.112E-03
  18 F= -.33315928E+04 E0= -.33315928E+04  d E =0.834560E-04
 BRION: g(F)=  0.404E-04 g(S)=  0.000E+00 retain N=  1 mean eig= 0.11
 eig:   0.115
 bond charge predicted
       N       E                     dE             d eps       ncg     rms          rms(c)
DAV:   1    -0.331747660563E+04   -0.22999E-04   -0.10118E-02  3936   0.740E-02    0.135E-02
DAV:   2    -0.331747661041E+04   -0.47795E-05   -0.93262E-05  3776   0.605E-03    0.869E-03
DAV:   3    -0.331747661139E+04   -0.97940E-06   -0.16497E-06  3392   0.112E-03
  19 F= -.33315929E+04 E0= -.33315929E+04  d E =-.399325E-04
 BRION: g(F)=  0.393E-04 g(S)=  0.000E+00 retain N=  1 mean eig= 0.25
 eig:   0.254
 bond charge predicted
       N       E                     dE             d eps       ncg     rms          rms(c)
DAV:   1    -0.331747663825E+04   -0.27843E-04   -0.35770E-02  3936   0.140E-01    0.277E-02
DAV:   2    -0.331747665407E+04   -0.15822E-04   -0.34072E-04  3776   0.115E-02    0.175E-02
DAV:   3    -0.331747666025E+04   -0.61784E-05   -0.65337E-06  4128   0.215E-03    0.109E-02
DAV:   4    -0.331747666887E+04   -0.86222E-05   -0.39969E-06  3616   0.182E-03    0.228E-03
DAV:   5    -0.331747666902E+04   -0.14610E-06   -0.59318E-07  2784   0.755E-04
  20 F= -.33315929E+04 E0= -.33315929E+04  d E =-.776415E-04
 BRION: g(F)=  0.496E-04 g(S)=  0.000E+00 retain N=  1 mean eig= 0.80
 eig:   0.797
 bond charge predicted
       N       E                     dE             d eps       ncg     rms          rms(c)
DAV:   1    -0.331747664594E+04    0.22928E-04   -0.47299E-03  3840   0.511E-02    0.992E-03
DAV:   2    -0.331747664867E+04   -0.27270E-05   -0.50381E-05  3808   0.441E-03    0.641E-03
DAV:   3    -0.331747664905E+04   -0.37823E-06   -0.11865E-06  3264   0.939E-04
  21 F= -.33315929E+04 E0= -.33315929E+04  d E =0.264536E-04
 BRION: g(F)=  0.413E-04 g(S)=  0.000E+00 retain N=  1 mean eig= 0.49
 eig:   0.490
 bond charge predicted
       N       E                     dE             d eps       ncg     rms          rms(c)
DAV:   1    -0.331747667120E+04   -0.22529E-04   -0.12015E-02  3904   0.806E-02    0.142E-02
DAV:   2    -0.331747667843E+04   -0.72328E-05   -0.11504E-04  3712   0.678E-03    0.900E-03
DAV:   3    -0.331747667934E+04   -0.91002E-06   -0.18401E-06  3552   0.118E-03
  22 F= -.33315930E+04 E0= -.33315930E+04  d E =-.429850E-04
 BRION: g(F)=  0.393E-04 g(S)=  0.000E+00 retain N=  1 mean eig= 0.71
 eig:   0.713
 bond charge predicted
       N       E                     dE             d eps       ncg     rms          rms(c)
DAV:   1    -0.331747669672E+04   -0.18289E-04   -0.83847E-03  3840   0.682E-02    0.149E-02
DAV:   2    -0.331747670151E+04   -0.47840E-05   -0.99881E-05  3840   0.612E-03    0.960E-03
DAV:   3    -0.331747670280E+04   -0.12940E-05   -0.27851E-06  3840   0.139E-03    0.572E-03
DAV:   4    -0.331747670460E+04   -0.17993E-05   -0.63793E-07  2880   0.841E-04    0.207E-03
DAV:   5    -0.331747670502E+04   -0.42317E-06   -0.12297E-07  2240   0.475E-04
  23 F= -.33315930E+04 E0= -.33315930E+04  d E =-.336388E-04
 BRION: g(F)=  0.663E-04 g(S)=  0.000E+00 retain N=  2 mean eig= 4.42
 eig:   4.416  4.416
 bond charge predicted
       N       E                     dE             d eps       ncg     rms          rms(c)
DAV:   1    -0.331747494504E+04    0.17596E-02   -0.26184E+00  3872   0.119E+00    0.230E-01
DAV:   2    -0.331747640045E+04   -0.14554E-02   -0.24429E-02  3712   0.968E-02    0.146E-01
DAV:   3    -0.331747658863E+04   -0.18818E-03   -0.44207E-04  4256   0.185E-02    0.960E-02
DAV:   4    -0.331747708140E+04   -0.49277E-03   -0.38031E-04  3744   0.172E-02    0.248E-02
DAV:   5    -0.331747708600E+04   -0.45998E-05   -0.67519E-05  3968   0.800E-03    0.166E-02
DAV:   6    -0.331747708920E+04   -0.31949E-05   -0.10108E-05  4128   0.278E-03    0.113E-02
DAV:   7    -0.331747708822E+04    0.97393E-06   -0.62605E-06  3680   0.270E-03
  24 F= -.33315936E+04 E0= -.33315936E+04  d E =-.562146E-03
 BRION: g(F)=  0.349E-04 g(S)=  0.000E+00 BRIONS problems: POTIM should be increased
 retain N=  1 mean eig=29.79
 eig:  29.792
 bond charge predicted
       N       E                     dE             d eps       ncg     rms          rms(c)
DAV:   1    -0.331746395262E+04    0.13137E-01   -0.14077E+01  3872   0.276E+00    0.551E-01
DAV:   2    -0.331747483627E+04   -0.10884E-01   -0.15172E-01  3744   0.236E-01    0.342E-01
DAV:   3    -0.331747519739E+04   -0.36112E-03   -0.27040E-03  4224   0.465E-02    0.238E-01
DAV:   4    -0.331747724579E+04   -0.20484E-02   -0.25797E-03  3840   0.456E-02    0.716E-02
DAV:   5    -0.331747726629E+04   -0.20508E-04   -0.44826E-04  4000   0.223E-02    0.442E-02
DAV:   6    -0.331747729287E+04   -0.26579E-04   -0.94150E-05  4096   0.825E-03    0.281E-02
DAV:   7    -0.331747728482E+04    0.80538E-05   -0.33648E-05  3872   0.632E-03    0.109E-02
DAV:   8    -0.331747728664E+04   -0.18168E-05   -0.18234E-05  3936   0.358E-03    0.297E-03
DAV:   9    -0.331747728666E+04   -0.22352E-07   -0.23523E-06  3488   0.144E-03
  25 F= -.33315942E+04 E0= -.33315942E+04  d E =-.609443E-03
 BRION: g(F)=  0.785E-04 g(S)=  0.000E+00 BRIONS problems: POTIM should be increased
 retain N=  1 mean eig=23.69
 eig:  23.694
 bond charge predicted
       N       E                     dE             d eps       ncg     rms          rms(c)
DAV:   1    -0.331746714540E+04    0.10141E-01   -0.12184E+01  3904   0.259E+00    0.475E-01
DAV:   2    -0.331747528854E+04   -0.81431E-02   -0.11257E-01  3744   0.207E-01    0.317E-01
DAV:   3    -0.331747579824E+04   -0.50970E-03   -0.23124E-03  4224   0.393E-02    0.193E-01
DAV:   4    -0.331747707048E+04   -0.12722E-02   -0.13889E-03  3776   0.326E-02    0.436E-02
DAV:   5    -0.331747712010E+04   -0.49616E-04   -0.23579E-04  4032   0.135E-02    0.354E-02
DAV:   6    -0.331747711548E+04    0.46156E-05   -0.62797E-05  3936   0.798E-03    0.161E-02
DAV:   7    -0.331747711165E+04    0.38344E-05   -0.22112E-05  4064   0.451E-03    0.669E-03
DAV:   8    -0.331747711209E+04   -0.44168E-06   -0.60154E-06  3808   0.226E-03
  26 F= -.33315936E+04 E0= -.33315936E+04  d E =0.547506E-03
 BRION: g(F)=  0.205E-03 g(S)=  0.000E+00 retain N=  1 mean eig= 3.60
 eig:   3.605
 bond charge predicted
       N       E                     dE             d eps       ncg     rms          rms(c)
DAV:   1    -0.331747311965E+04    0.39920E-02   -0.47977E+00  3840   0.161E+00    0.316E-01
DAV:   2    -0.331747622740E+04   -0.31077E-02   -0.48064E-02  3744   0.135E-01    0.197E-01
DAV:   3    -0.331747649101E+04   -0.26361E-03   -0.85806E-04  4288   0.256E-02    0.132E-01
DAV:   4    -0.331747732199E+04   -0.83098E-03   -0.74700E-04  3776   0.242E-02    0.345E-02
DAV:   5    -0.331747732966E+04   -0.76739E-05   -0.13162E-04  4032   0.112E-02    0.233E-02
DAV:   6    -0.331747733556E+04   -0.59013E-05   -0.21906E-05  4064   0.406E-03    0.159E-02
DAV:   7    -0.331747733332E+04    0.22382E-05   -0.11358E-05  3808   0.370E-03    0.534E-03
DAV:   8    -0.331747733393E+04   -0.61037E-06   -0.49595E-06  3776   0.184E-03
  27 F= -.33315941E+04 E0= -.33315941E+04  d E =-.463650E-03
 BRION: g(F)=  0.103E-04 g(S)=  0.000E+00 retain N=  1 mean eig= 4.02
 eig:   4.024
 bond charge predicted
       N       E                     dE             d eps       ncg     rms          rms(c)
DAV:   1    -0.331747719026E+04    0.14306E-03   -0.17015E-01  3808   0.304E-01    0.575E-02
DAV:   2    -0.331747728060E+04   -0.90340E-04   -0.15656E-03  3712   0.248E-02    0.364E-02
DAV:   3    -0.331747730012E+04   -0.19518E-04   -0.27975E-05  4320   0.442E-03    0.229E-02
DAV:   4    -0.331747732963E+04   -0.29511E-04   -0.21175E-05  3744   0.404E-03    0.545E-03
DAV:   5    -0.331747732989E+04   -0.25821E-06   -0.39006E-06  3776   0.184E-03
  28 F= -.33315941E+04 E0= -.33315941E+04  d E =-.459818E-04
 BRION: g(F)=  0.333E-05 g(S)=  0.000E+00 retain N=  1 mean eig= 7.35
 eig:   7.353
 reached required accuracy - stopping structural energy minimisation
 PROFILE, used timers:     329
