 running  256 mpi-ranks, with    1 threads/rank, on    7 nodes
 distrk:  each k-point on  128 cores,    2 groups
 distr:  one band on    4 cores,   32 groups
 vasp.6.4.1 05Apr23 (build May 18 2023 13:19:41) complex                         
 POSCAR found type information on POSCAR C S O 
 POSCAR found :  3 types and     366 ions
 Reading from existing POTCAR
 scaLAPACK will be used
 Reading from existing POTCAR
 -----------------------------------------------------------------------------
|                                                                             |
|               ----> ADVICE to this user running VASP <----                  |
|                                                                             |
|     You have a (more or less) 'large supercell' and for larger cells it     |
|     might be more efficient to use real-space projection operators.         |
|     Therefore, try LREAL= Auto in the INCAR file.                           |
|     Mind: If you want to do very accurate calculations, keep the            |
|     reciprocal projection scheme (i.e. LREAL=.FALSE.).                      |
|                                                                             |
 -----------------------------------------------------------------------------

 LDA part: xc-table for Pade appr. of Perdew
 POSCAR, INCAR and KPOINTS ok, starting setup
 FFT: planning ... GRIDC
 FFT: planning ... GRID_SOFT
 FFT: planning ... GRID
 WAVECAR not read
 charge-density read from file: 01_AOPT                                 
 WARNING: random wavefunctions but no delay for mixing, default for NELMDL
 entering main loop
       N       E                     dE             d eps       ncg     rms          rms(c)
DAV:   1     0.112581800669E+05    0.11258E+05   -0.41489E+05  4288   0.934E+02
DAV:   2     0.393341197384E+03   -0.10865E+05   -0.10099E+05  5568   0.212E+02
DAV:   3    -0.301271512139E+04   -0.34061E+04   -0.32486E+04  4608   0.115E+02
DAV:   4    -0.330533380130E+04   -0.29262E+03   -0.28291E+03  4448   0.387E+01
DAV:   5    -0.331712238259E+04   -0.11789E+02   -0.11585E+02  5056   0.697E+00    0.130E-01
DAV:   6    -0.331732954421E+04   -0.20716E+00   -0.20485E+00  4864   0.102E+00    0.312E-02
DAV:   7    -0.331733556111E+04   -0.60169E-02   -0.59285E-02  4960   0.182E-01    0.306E-02
DAV:   8    -0.331733576442E+04   -0.20332E-03   -0.22441E-03  4864   0.353E-02    0.258E-02
DAV:   9    -0.331733575621E+04    0.82109E-05   -0.95644E-05  4640   0.754E-03    0.205E-02
DAV:  10    -0.331733574266E+04    0.13552E-04   -0.10123E-05  4192   0.345E-03    0.144E-02
DAV:  11    -0.331733573200E+04    0.10664E-04   -0.40838E-06  3648   0.241E-03    0.894E-03
DAV:  12    -0.331733572158E+04    0.10418E-04   -0.14036E-06  2912   0.165E-03    0.428E-03
DAV:  13    -0.331733571452E+04    0.70542E-05   -0.80176E-07  2656   0.129E-03    0.150E-03
DAV:  14    -0.331733571310E+04    0.14210E-05   -0.23598E-07  2592   0.695E-04    0.110E-03
DAV:  15    -0.331733571199E+04    0.11153E-05   -0.39450E-09  2496   0.396E-04    0.717E-04
DAV:  16    -0.331733571119E+04    0.79768E-06    0.69988E-08  2400   0.258E-04
   1 F= -.33314451E+04 E0= -.33314451E+04  d E =-.333145E+04
 BRION: g(F)=  0.457E-01 g(S)=  0.000E+00
 bond charge predicted
       N       E                     dE             d eps       ncg     rms          rms(c)
DAV:   1    -0.331731503280E+04    0.20679E-01   -0.58653E+00  3808   0.280E+00    0.506E-01
DAV:   2    -0.331732169636E+04   -0.66636E-02   -0.12753E-01  4192   0.389E-01    0.470E-01
DAV:   3    -0.331731861448E+04    0.30819E-02   -0.71449E-03  4384   0.967E-02    0.342E-01
DAV:   4    -0.331731644623E+04    0.21683E-02   -0.84630E-03  4032   0.109E-01    0.120E-01
DAV:   5    -0.331731645382E+04   -0.75897E-05   -0.18476E-03  4064   0.468E-02    0.555E-02
DAV:   6    -0.331731649682E+04   -0.43006E-04   -0.29424E-04  4160   0.204E-02    0.223E-02
DAV:   7    -0.331731649241E+04    0.44106E-05   -0.64524E-05  4096   0.928E-03    0.136E-02
DAV:   8    -0.331731649020E+04    0.22128E-05   -0.17755E-05  4128   0.474E-03    0.647E-03
DAV:   9    -0.331731649043E+04   -0.23283E-06   -0.31900E-06  3744   0.235E-03
   2 F= -.33314259E+04 E0= -.33314259E+04  d E =0.192268E-01
 BRION: g(F)=  0.303E+00 g(S)=  0.000E+00 retain N=  1 mean eig= 0.26
 eig:   0.259
 bond charge predicted
       N       E                     dE             d eps       ncg     rms          rms(c)
DAV:   1    -0.331734858429E+04   -0.32094E-01   -0.26215E+00  3712   0.190E+00    0.339E-01
DAV:   2    -0.331735208083E+04   -0.34965E-02   -0.62962E-02  4288   0.275E-01    0.326E-01
DAV:   3    -0.331735078025E+04    0.13006E-02   -0.31090E-03  4480   0.606E-02    0.252E-01
DAV:   4    -0.331734936722E+04    0.14130E-02   -0.34937E-03  3936   0.704E-02    0.102E-01
DAV:   5    -0.331734931462E+04    0.52597E-04   -0.79415E-04  4192   0.322E-02    0.464E-02
DAV:   6    -0.331734931396E+04    0.66194E-06   -0.20713E-04  3872   0.174E-02    0.158E-02
DAV:   7    -0.331734931252E+04    0.14312E-05   -0.49828E-05  4192   0.772E-03    0.800E-03
DAV:   8    -0.331734931171E+04    0.81246E-06   -0.61680E-06  4128   0.285E-03
   3 F= -.33314586E+04 E0= -.33314586E+04  d E =-.326873E-01
 BRION: g(F)=  0.194E-01 g(S)=  0.000E+00 retain N=  1 mean eig= 0.22
 eig:   0.218
 bond charge predicted
       N       E                     dE             d eps       ncg     rms          rms(c)
DAV:   1    -0.331734581724E+04    0.34953E-02   -0.13239E+00  3680   0.133E+00    0.220E-01
DAV:   2    -0.331734783918E+04   -0.20219E-02   -0.31117E-02  4160   0.188E-01    0.206E-01
DAV:   3    -0.331734741468E+04    0.42450E-03   -0.13844E-03  4480   0.408E-02    0.160E-01
DAV:   4    -0.331734706196E+04    0.35272E-03   -0.12768E-03  4160   0.444E-02    0.695E-02
DAV:   5    -0.331734708736E+04   -0.25405E-04   -0.43767E-04  3968   0.245E-02    0.230E-02
DAV:   6    -0.331734709159E+04   -0.42279E-05   -0.61670E-05  4224   0.883E-03    0.116E-02
DAV:   7    -0.331734709277E+04   -0.11751E-05   -0.10376E-05  4192   0.401E-03    0.678E-03
DAV:   8    -0.331734709295E+04   -0.18708E-06   -0.35995E-06  3840   0.236E-03
   4 F= -.33314564E+04 E0= -.33314564E+04  d E =0.221973E-02
 BRION: g(F)=  0.620E-01 g(S)=  0.000E+00 retain N=  2 mean eig= 0.21
 eig:   0.212  0.212
 bond charge predicted
       N       E                     dE             d eps       ncg     rms          rms(c)
DAV:   1    -0.331735401171E+04   -0.69189E-02   -0.52678E-01  3680   0.858E-01    0.151E-01
DAV:   2    -0.331735472094E+04   -0.70923E-03   -0.12986E-02  4288   0.127E-01    0.146E-01
DAV:   3    -0.331735446906E+04    0.25188E-03   -0.68053E-04  4512   0.281E-02    0.113E-01
DAV:   4    -0.331735421910E+04    0.24995E-03   -0.47856E-04  4064   0.271E-02    0.542E-02
DAV:   5    -0.331735419461E+04    0.24490E-04   -0.23180E-04  4064   0.177E-02    0.139E-02
DAV:   6    -0.331735419806E+04   -0.34486E-05   -0.33618E-05  4288   0.638E-03    0.647E-03
DAV:   7    -0.331735419799E+04    0.67870E-07   -0.38956E-06  3680   0.222E-03
   5 F= -.33314636E+04 E0= -.33314636E+04  d E =-.718010E-02
 BRION: g(F)=  0.498E-02 g(S)=  0.000E+00 retain N=  1 mean eig= 0.23
 eig:   0.233
 bond charge predicted
       N       E                     dE             d eps       ncg     rms          rms(c)
DAV:   1    -0.331735443362E+04   -0.23556E-03   -0.55944E-01  3712   0.810E-01    0.140E-01
DAV:   2    -0.331735533981E+04   -0.90619E-03   -0.13213E-02  4160   0.109E-01    0.114E-01
DAV:   3    -0.331735524337E+04    0.96434E-04   -0.51087E-04  4352   0.248E-02    0.860E-02
DAV:   4    -0.331735523973E+04    0.36493E-05   -0.44244E-04  4096   0.265E-02    0.330E-02
DAV:   5    -0.331735526527E+04   -0.25542E-04   -0.12196E-04  4128   0.127E-02    0.165E-02
DAV:   6    -0.331735526895E+04   -0.36824E-05   -0.24591E-05  4096   0.571E-03    0.812E-03
DAV:   7    -0.331735526980E+04   -0.84681E-06   -0.58518E-06  4096   0.284E-03
   6 F= -.33314646E+04 E0= -.33314646E+04  d E =-.105547E-02
 BRION: g(F)=  0.142E-01 g(S)=  0.000E+00 retain N=  2 mean eig= 0.23
 eig:   0.232  0.232
 bond charge predicted
       N       E                     dE             d eps       ncg     rms          rms(c)
DAV:   1    -0.331735701938E+04   -0.17504E-02   -0.13285E-01  3744   0.434E-01    0.710E-02
DAV:   2    -0.331735723877E+04   -0.21939E-03   -0.33991E-03  4192   0.635E-02    0.688E-02
DAV:   3    -0.331735719613E+04    0.42641E-04   -0.14435E-04  4576   0.128E-02    0.557E-02
DAV:   4    -0.331735714257E+04    0.53558E-04   -0.17033E-04  4160   0.163E-02    0.237E-02
DAV:   5    -0.331735714411E+04   -0.15375E-05   -0.54171E-05  4032   0.856E-03    0.889E-03
DAV:   6    -0.331735714454E+04   -0.43132E-06   -0.74617E-06  4128   0.316E-03
   7 F= -.33314665E+04 E0= -.33314665E+04  d E =-.191709E-02
 BRION: g(F)=  0.293E-02 g(S)=  0.000E+00 retain N=  1 mean eig= 0.23
 eig:   0.228
 bond charge predicted
       N       E                     dE             d eps       ncg     rms          rms(c)
DAV:   1    -0.331735790781E+04   -0.76370E-03   -0.39433E-01  3712   0.625E-01    0.116E-01
DAV:   2    -0.331735857899E+04   -0.67118E-03   -0.94981E-03  4096   0.819E-02    0.849E-02
DAV:   3    -0.331735856206E+04    0.16932E-04   -0.24153E-04  4224   0.173E-02    0.640E-02
DAV:   4    -0.331735863534E+04   -0.73283E-04   -0.27893E-04  4064   0.203E-02    0.218E-02
DAV:   5    -0.331735864642E+04   -0.11079E-04   -0.69371E-05  4000   0.980E-03    0.121E-02
DAV:   6    -0.331735864982E+04   -0.34021E-05   -0.15472E-05  4160   0.429E-03    0.663E-03
DAV:   7    -0.331735865066E+04   -0.83668E-06   -0.28225E-06  3616   0.218E-03
   8 F= -.33314681E+04 E0= -.33314681E+04  d E =-.153977E-02
 BRION: g(F)=  0.610E-02 g(S)=  0.000E+00 retain N=  2 mean eig= 0.17
 eig:   0.167  0.167
 bond charge predicted
       N       E                     dE             d eps       ncg     rms          rms(c)
DAV:   1    -0.331735952085E+04   -0.87103E-03   -0.62614E-02  3776   0.285E-01    0.483E-02
DAV:   2    -0.331735962480E+04   -0.10395E-03   -0.15700E-03  4160   0.399E-02    0.423E-02
DAV:   3    -0.331735960947E+04    0.15332E-04   -0.65957E-05  4512   0.877E-03    0.320E-02
DAV:   4    -0.331735960032E+04    0.91471E-05   -0.53661E-05  4032   0.930E-03    0.135E-02
DAV:   5    -0.331735960313E+04   -0.28105E-05   -0.17520E-05  4128   0.486E-03    0.589E-03
DAV:   6    -0.331735960332E+04   -0.19232E-06   -0.31578E-06  3552   0.208E-03
   9 F= -.33314690E+04 E0= -.33314690E+04  d E =-.966263E-03
 BRION: g(F)=  0.226E-02 g(S)=  0.000E+00 retain N=  1 mean eig= 0.21
 eig:   0.214
 bond charge predicted
       N       E                     dE             d eps       ncg     rms          rms(c)
DAV:   1    -0.331736050684E+04   -0.90371E-03   -0.34742E-01  3712   0.554E-01    0.110E-01
DAV:   2    -0.331736105296E+04   -0.54613E-03   -0.82193E-03  4064   0.705E-02    0.736E-02
DAV:   3    -0.331736106124E+04   -0.82742E-05   -0.19481E-04  4256   0.149E-02    0.552E-02
DAV:   4    -0.331736116592E+04   -0.10468E-03   -0.19004E-04  3936   0.166E-02    0.171E-02
DAV:   5    -0.331736117720E+04   -0.11279E-04   -0.45503E-05  4064   0.747E-03    0.110E-02
DAV:   6    -0.331736117871E+04   -0.15113E-05   -0.94953E-06  4128   0.345E-03    0.612E-03
DAV:   7    -0.331736117936E+04   -0.64971E-06   -0.21894E-06  3392   0.182E-03
  10 F= -.33314707E+04 E0= -.33314707E+04  d E =-.162956E-02
 BRION: g(F)=  0.367E-02 g(S)=  0.000E+00 retain N=  2 mean eig= 0.20
 eig:   0.201  0.201
 bond charge predicted
       N       E                     dE             d eps       ncg     rms          rms(c)
DAV:   1    -0.331736177478E+04   -0.59607E-03   -0.38904E-02  3712   0.212E-01    0.373E-02
DAV:   2    -0.331736184161E+04   -0.66832E-04   -0.97946E-04  4160   0.292E-02    0.301E-02
DAV:   3    -0.331736183657E+04    0.50425E-05   -0.32776E-05  4480   0.628E-03    0.227E-02
DAV:   4    -0.331736183741E+04   -0.84424E-06   -0.29496E-05  4032   0.677E-03    0.899E-03
DAV:   5    -0.331736183932E+04   -0.19103E-05   -0.80626E-06  4064   0.333E-03    0.404E-03
DAV:   6    -0.331736183952E+04   -0.19546E-06   -0.13017E-06  2688   0.140E-03
  11 F= -.33314713E+04 E0= -.33314713E+04  d E =-.662483E-03
 BRION: g(F)=  0.196E-02 g(S)=  0.000E+00 retain N=  1 mean eig= 0.21
 eig:   0.207
 bond charge predicted
       N       E                     dE             d eps       ncg     rms          rms(c)
DAV:   1    -0.331736278085E+04   -0.94153E-03   -0.33616E-01  3712   0.521E-01    0.106E-01
DAV:   2    -0.331736332902E+04   -0.54818E-03   -0.78773E-03  3936   0.650E-02    0.677E-02
DAV:   3    -0.331736334261E+04   -0.13588E-04   -0.14606E-04  4256   0.129E-02    0.511E-02
DAV:   4    -0.331736345831E+04   -0.11570E-03   -0.16652E-04  3968   0.152E-02    0.145E-02
DAV:   5    -0.331736346511E+04   -0.67998E-05   -0.39875E-05  3936   0.678E-03    0.104E-02
DAV:   6    -0.331736346589E+04   -0.77859E-06   -0.84653E-06  4160   0.337E-03
  12 F= -.33314730E+04 E0= -.33314730E+04  d E =-.167420E-02
 BRION: g(F)=  0.252E-02 g(S)=  0.000E+00 retain N=  2 mean eig= 0.14
 eig:   0.138  0.138
 bond charge predicted
       N       E                     dE             d eps       ncg     rms          rms(c)
DAV:   1    -0.331736391801E+04   -0.45289E-03   -0.27297E-02  3712   0.164E-01    0.320E-02
DAV:   2    -0.331736395876E+04   -0.40756E-04   -0.67654E-04  4064   0.218E-02    0.222E-02
DAV:   3    -0.331736396091E+04   -0.21526E-05   -0.18543E-05  4352   0.465E-03    0.165E-02
DAV:   4    -0.331736397049E+04   -0.95787E-05   -0.14992E-05  3904   0.478E-03    0.604E-03
DAV:   5    -0.331736397230E+04   -0.18079E-05   -0.33427E-06  3328   0.224E-03    0.303E-03
DAV:   6    -0.331736397253E+04   -0.23295E-06   -0.72529E-07  2368   0.104E-03
  13 F= -.33314735E+04 E0= -.33314735E+04  d E =-.518162E-03
 BRION: g(F)=  0.185E-02 g(S)=  0.000E+00 retain N=  1 mean eig= 0.21
 eig:   0.213
 bond charge predicted
       N       E                     dE             d eps       ncg     rms          rms(c)
DAV:   1    -0.331736494229E+04   -0.96999E-03   -0.34339E-01  3744   0.513E-01    0.107E-01
DAV:   2    -0.331736549598E+04   -0.55368E-03   -0.79271E-03  3872   0.630E-02    0.654E-02
DAV:   3    -0.331736552515E+04   -0.29172E-04   -0.13783E-04  4256   0.123E-02    0.493E-02
DAV:   4    -0.331736564025E+04   -0.11510E-03   -0.15002E-04  3936   0.141E-02    0.127E-02
DAV:   5    -0.331736564639E+04   -0.61371E-05   -0.35811E-05  3968   0.607E-03    0.100E-02
DAV:   6    -0.331736564678E+04   -0.38987E-06   -0.56366E-06  4032   0.275E-03
  14 F= -.33314753E+04 E0= -.33314753E+04  d E =-.171986E-02
 BRION: g(F)=  0.209E-02 g(S)=  0.000E+00 retain N=  2 mean eig= 0.09
 eig:   0.169  0.017
 bond charge predicted
       N       E                     dE             d eps       ncg     rms          rms(c)
DAV:   1    -0.331736601961E+04   -0.37322E-03   -0.19880E-02  3744   0.128E-01    0.267E-02
DAV:   2    -0.331736605006E+04   -0.30455E-04   -0.48203E-04  3904   0.164E-02    0.166E-02
DAV:   3    -0.331736605329E+04   -0.32240E-05   -0.89298E-06  4160   0.323E-03    0.125E-02
DAV:   4    -0.331736606229E+04   -0.89987E-05   -0.87095E-06  3744   0.358E-03    0.377E-03
DAV:   5    -0.331736606289E+04   -0.60257E-06   -0.19232E-06  3232   0.164E-03
  15 F= -.33314757E+04 E0= -.33314757E+04  d E =-.427219E-03
 BRION: g(F)=  0.183E-02 g(S)=  0.000E+00 retain N=  1 mean eig= 0.19
 eig:   0.193
 bond charge predicted
       N       E                     dE             d eps       ncg     rms          rms(c)
DAV:   1    -0.331736704258E+04   -0.98030E-03   -0.37751E-01  3776   0.525E-01    0.110E-01
DAV:   2    -0.331736764237E+04   -0.59979E-03   -0.86203E-03  3840   0.639E-02    0.661E-02
DAV:   3    -0.331736768518E+04   -0.42810E-04   -0.13311E-04  4256   0.120E-02    0.498E-02
DAV:   4    -0.331736781366E+04   -0.12848E-03   -0.15110E-04  3904   0.139E-02    0.123E-02
DAV:   5    -0.331736781799E+04   -0.43326E-05   -0.35690E-05  3936   0.595E-03    0.100E-02
DAV:   6    -0.331736781810E+04   -0.11013E-06   -0.55128E-06  4000   0.273E-03
  16 F= -.33314775E+04 E0= -.33314775E+04  d E =-.179975E-02
 BRION: g(F)=  0.194E-02 g(S)=  0.000E+00 retain N=  2 mean eig= 0.14
 eig:   0.210  0.079
 bond charge predicted
       N       E                     dE             d eps       ncg     rms          rms(c)
DAV:   1    -0.331736817850E+04   -0.36051E-03   -0.19710E-02  3776   0.123E-01    0.265E-02
DAV:   2    -0.331736820954E+04   -0.31042E-04   -0.47144E-04  3904   0.154E-02    0.156E-02
DAV:   3    -0.331736821287E+04   -0.33288E-05   -0.79662E-06  4032   0.297E-03    0.117E-02
DAV:   4    -0.331736822134E+04   -0.84644E-05   -0.72602E-06  3680   0.320E-03    0.312E-03
DAV:   5    -0.331736822172E+04   -0.38685E-06   -0.15555E-06  3040   0.141E-03
  17 F= -.33314779E+04 E0= -.33314779E+04  d E =-.415195E-03
 BRION: g(F)=  0.182E-02 g(S)=  0.000E+00 retain N=  1 mean eig= 0.22
 eig:   0.225
 bond charge predicted
       N       E                     dE             d eps       ncg     rms          rms(c)
DAV:   1    -0.331736918749E+04   -0.96615E-03   -0.39325E-01  3712   0.530E-01    0.112E-01
DAV:   2    -0.331736982067E+04   -0.63318E-03   -0.89179E-03  3776   0.643E-02    0.661E-02
DAV:   3    -0.331736986182E+04   -0.41150E-04   -0.13537E-04  4256   0.119E-02    0.498E-02
DAV:   4    -0.331736998588E+04   -0.12406E-03   -0.14677E-04  3872   0.135E-02    0.119E-02
DAV:   5    -0.331736999115E+04   -0.52708E-05   -0.35085E-05  3904   0.577E-03    0.100E-02
DAV:   6    -0.331736999094E+04    0.21327E-06   -0.48684E-06  3936   0.257E-03
  18 F= -.33314797E+04 E0= -.33314797E+04  d E =-.181678E-02
 BRION: g(F)=  0.197E-02 g(S)=  0.000E+00 retain N=  2 mean eig= 0.21
 eig:   0.269  0.154
 bond charge predicted
       N       E                     dE             d eps       ncg     rms          rms(c)
DAV:   1    -0.331737033046E+04   -0.33931E-03   -0.17168E-02  3776   0.114E-01    0.245E-02
DAV:   2    -0.331737035866E+04   -0.28199E-04   -0.41127E-04  3904   0.144E-02    0.144E-02
DAV:   3    -0.331737036092E+04   -0.22621E-05   -0.66728E-06  4000   0.272E-03    0.109E-02
DAV:   4    -0.331737036790E+04   -0.69801E-05   -0.64640E-06  3648   0.301E-03    0.291E-03
DAV:   5    -0.331737036820E+04   -0.29267E-06   -0.13482E-06  2976   0.133E-03
  19 F= -.33314801E+04 E0= -.33314801E+04  d E =-.385687E-03
 BRION: g(F)=  0.183E-02 g(S)=  0.000E+00 retain N=  1 mean eig= 0.21
 eig:   0.215
 bond charge predicted
       N       E                     dE             d eps       ncg     rms          rms(c)
DAV:   1    -0.331737131826E+04   -0.95036E-03   -0.40808E-01  3776   0.537E-01    0.113E-01
DAV:   2    -0.331737198405E+04   -0.66579E-03   -0.92051E-03  3776   0.651E-02    0.665E-02
DAV:   3    -0.331737202425E+04   -0.40200E-04   -0.13680E-04  4256   0.119E-02    0.500E-02
DAV:   4    -0.331737214725E+04   -0.12301E-03   -0.14944E-04  3872   0.136E-02    0.119E-02
DAV:   5    -0.331737215188E+04   -0.46290E-05   -0.35714E-05  3936   0.581E-03    0.101E-02
DAV:   6    -0.331737215177E+04    0.10896E-06   -0.50387E-06  3968   0.261E-03
  20 F= -.33314819E+04 E0= -.33314819E+04  d E =-.183243E-02
 BRION: g(F)=  0.207E-02 g(S)=  0.000E+00 retain N=  2 mean eig= 0.16
 eig:   0.263  0.054
 bond charge predicted
       N       E                     dE             d eps       ncg     rms          rms(c)
DAV:   1    -0.331737244989E+04   -0.29801E-03   -0.12380E-02  3776   0.990E-02    0.210E-02
DAV:   2    -0.331737247101E+04   -0.21124E-04   -0.30019E-04  3808   0.127E-02    0.125E-02
DAV:   3    -0.331737247234E+04   -0.13296E-05   -0.52024E-06  4032   0.241E-03    0.939E-03
DAV:   4    -0.331737247666E+04   -0.43195E-05   -0.46700E-06  3520   0.261E-03    0.270E-03
DAV:   5    -0.331737247697E+04   -0.30268E-06   -0.91151E-07  2656   0.114E-03
  21 F= -.33314823E+04 E0= -.33314823E+04  d E =-.332021E-03
 BRION: g(F)=  0.184E-02 g(S)=  0.000E+00 retain N=  1 mean eig= 0.20
 eig:   0.200
 bond charge predicted
       N       E                     dE             d eps       ncg     rms          rms(c)
DAV:   1    -0.331737344428E+04   -0.96762E-03   -0.42873E-01  3776   0.545E-01    0.116E-01
DAV:   2    -0.331737414228E+04   -0.69800E-03   -0.95947E-03  3776   0.659E-02    0.672E-02
DAV:   3    -0.331737418715E+04   -0.44876E-04   -0.13903E-04  4256   0.119E-02    0.505E-02
DAV:   4    -0.331737430530E+04   -0.11815E-03   -0.15213E-04  3872   0.136E-02    0.116E-02
DAV:   5    -0.331737430988E+04   -0.45772E-05   -0.36058E-05  3904   0.575E-03    0.102E-02
DAV:   6    -0.331737430937E+04    0.50559E-06   -0.47997E-06  3936   0.253E-03
  22 F= -.33314841E+04 E0= -.33314841E+04  d E =-.187926E-02
 BRION: g(F)=  0.194E-02 g(S)=  0.000E+00 retain N=  2 mean eig= 0.19
 eig:   0.200  0.174
 bond charge predicted
       N       E                     dE             d eps       ncg     rms          rms(c)
DAV:   1    -0.331737464207E+04   -0.33219E-03   -0.17193E-02  3776   0.113E-01    0.242E-02
DAV:   2    -0.331737467197E+04   -0.29901E-04   -0.40906E-04  3840   0.142E-02    0.140E-02
DAV:   3    -0.331737467365E+04   -0.16748E-05   -0.63798E-06  4096   0.261E-03    0.105E-02
DAV:   4    -0.331737467924E+04   -0.55950E-05   -0.60228E-06  3616   0.287E-03    0.277E-03
DAV:   5    -0.331737467951E+04   -0.27090E-06   -0.12536E-06  2944   0.125E-03
  23 F= -.33314845E+04 E0= -.33314845E+04  d E =-.380091E-03
 BRION: g(F)=  0.182E-02 g(S)=  0.000E+00 retain N=  1 mean eig= 0.20
 eig:   0.202
 bond charge predicted
       N       E                     dE             d eps       ncg     rms          rms(c)
DAV:   1    -0.331737562849E+04   -0.94924E-03   -0.40309E-01  3776   0.526E-01    0.112E-01
DAV:   2    -0.331737629915E+04   -0.67067E-03   -0.89944E-03  3776   0.635E-02    0.646E-02
DAV:   3    -0.331737633332E+04   -0.34165E-04   -0.12827E-04  4224   0.114E-02    0.486E-02
DAV:   4    -0.331737643844E+04   -0.10512E-03   -0.13910E-04  3872   0.129E-02    0.111E-02
DAV:   5    -0.331737644263E+04   -0.41912E-05   -0.32877E-05  3936   0.546E-03    0.979E-03
DAV:   6    -0.331737644212E+04    0.50361E-06   -0.43578E-06  3872   0.241E-03
  24 F= -.33314863E+04 E0= -.33314863E+04  d E =-.180829E-02
 BRION: g(F)=  0.190E-02 g(S)=  0.000E+00 retain N=  2 mean eig= 0.16
 eig:   0.203  0.112
 bond charge predicted
       N       E                     dE             d eps       ncg     rms          rms(c)
DAV:   1    -0.331737683033E+04   -0.38771E-03   -0.25282E-02  3776   0.135E-01    0.289E-02
DAV:   2    -0.331737687443E+04   -0.44099E-04   -0.59284E-04  3840   0.170E-02    0.167E-02
DAV:   3    -0.331737687669E+04   -0.22615E-05   -0.91357E-06  4096   0.309E-03    0.125E-02
DAV:   4    -0.331737688409E+04   -0.73980E-05   -0.88244E-06  3712   0.343E-03    0.322E-03
DAV:   5    -0.331737688445E+04   -0.35914E-06   -0.19240E-06  3296   0.149E-03
  25 F= -.33314868E+04 E0= -.33314868E+04  d E =-.454396E-03
 BRION: g(F)=  0.180E-02 g(S)=  0.000E+00 retain N=  1 mean eig= 0.22
 eig:   0.225
 bond charge predicted
       N       E                     dE             d eps       ncg     rms          rms(c)
DAV:   1    -0.331737780064E+04   -0.91655E-03   -0.37055E-01  3776   0.503E-01    0.107E-01
DAV:   2    -0.331737842501E+04   -0.62437E-03   -0.82758E-03  3744   0.609E-02    0.617E-02
DAV:   3    -0.331737845477E+04   -0.29759E-04   -0.11755E-04  4224   0.109E-02    0.463E-02
DAV:   4    -0.331737854663E+04   -0.91857E-04   -0.12592E-04  3904   0.123E-02    0.106E-02
DAV:   5    -0.331737855029E+04   -0.36659E-05   -0.29720E-05  3968   0.520E-03    0.933E-03
DAV:   6    -0.331737854976E+04    0.53574E-06   -0.40187E-06  3808   0.231E-03
  26 F= -.33314885E+04 E0= -.33314885E+04  d E =-.171039E-02
 BRION: g(F)=  0.195E-02 g(S)=  0.000E+00 retain N=  2 mean eig= 0.13
 eig:   0.197  0.062
 bond charge predicted
       N       E                     dE             d eps       ncg     rms          rms(c)
DAV:   1    -0.331737893059E+04   -0.38030E-03   -0.24105E-02  3776   0.135E-01    0.283E-02
DAV:   2    -0.331737897326E+04   -0.42662E-04   -0.56846E-04  3872   0.171E-02    0.167E-02
DAV:   3    -0.331737897508E+04   -0.18193E-05   -0.92969E-06  4128   0.314E-03    0.125E-02
DAV:   4    -0.331737898113E+04   -0.60555E-05   -0.87547E-06  3776   0.349E-03    0.338E-03
DAV:   5    -0.331737898158E+04   -0.44808E-06   -0.19197E-06  3232   0.152E-03
  27 F= -.33314889E+04 E0= -.33314889E+04  d E =-.442627E-03
 BRION: g(F)=  0.178E-02 g(S)=  0.000E+00 retain N=  1 mean eig= 0.21
 eig:   0.206
 bond charge predicted
       N       E                     dE             d eps       ncg     rms          rms(c)
DAV:   1    -0.331737988013E+04   -0.89900E-03   -0.37029E-01  3712   0.502E-01    0.107E-01
DAV:   2    -0.331738050945E+04   -0.62933E-03   -0.82594E-03  3744   0.609E-02    0.614E-02
DAV:   3    -0.331738053763E+04   -0.28181E-04   -0.11750E-04  4192   0.108E-02    0.461E-02
DAV:   4    -0.331738062372E+04   -0.86085E-04   -0.12591E-04  3904   0.123E-02    0.105E-02
DAV:   5    -0.331738062738E+04   -0.36615E-05   -0.29631E-05  4000   0.520E-03    0.931E-03
DAV:   6    -0.331738062683E+04    0.54925E-06   -0.40640E-06  3808   0.232E-03
  28 F= -.33314906E+04 E0= -.33314906E+04  d E =-.169205E-02
 BRION: g(F)=  0.196E-02 g(S)=  0.000E+00 retain N=  2 mean eig= 0.10
 eig:   0.173  0.029
 bond charge predicted
       N       E                     dE             d eps       ncg     rms          rms(c)
DAV:   1    -0.331738097943E+04   -0.35205E-03   -0.20363E-02  3776   0.125E-01    0.260E-02
DAV:   2    -0.331738101601E+04   -0.36578E-04   -0.48295E-04  3872   0.160E-02    0.155E-02
DAV:   3    -0.331738101723E+04   -0.12135E-05   -0.81114E-06  4128   0.296E-03    0.116E-02
DAV:   4    -0.331738102201E+04   -0.47792E-05   -0.75022E-06  3648   0.326E-03    0.328E-03
DAV:   5    -0.331738102241E+04   -0.40245E-06   -0.15983E-06  3104   0.141E-03
  29 F= -.33314910E+04 E0= -.33314910E+04  d E =-.405268E-03
 BRION: g(F)=  0.175E-02 g(S)=  0.000E+00 retain N=  1 mean eig= 0.20
 eig:   0.201
 bond charge predicted
       N       E                     dE             d eps       ncg     rms          rms(c)
DAV:   1    -0.331738191690E+04   -0.89489E-03   -0.37271E-01  3712   0.502E-01    0.107E-01
DAV:   2    -0.331738255503E+04   -0.63814E-03   -0.82915E-03  3744   0.608E-02    0.613E-02
DAV:   3    -0.331738257969E+04   -0.24654E-04   -0.11678E-04  4224   0.108E-02    0.460E-02
DAV:   4    -0.331738266364E+04   -0.83952E-04   -0.12541E-04  3840   0.122E-02    0.104E-02
DAV:   5    -0.331738266702E+04   -0.33807E-05   -0.29508E-05  3968   0.515E-03    0.928E-03
DAV:   6    -0.331738266641E+04    0.61491E-06   -0.38802E-06  3808   0.226E-03
  30 F= -.33314927E+04 E0= -.33314927E+04  d E =-.169066E-02
 BRION: g(F)=  0.186E-02 g(S)=  0.000E+00 retain N=  2 mean eig= 0.16
 eig:   0.157  0.157
 bond charge predicted
       N       E                     dE             d eps       ncg     rms          rms(c)
DAV:   1    -0.331738302797E+04   -0.36095E-03   -0.22801E-02  3776   0.129E-01    0.273E-02
DAV:   2    -0.331738306920E+04   -0.41231E-04   -0.53608E-04  3840   0.164E-02    0.159E-02
DAV:   3    -0.331738307066E+04   -0.14562E-05   -0.83281E-06  4128   0.295E-03    0.119E-02
DAV:   4    -0.331738307603E+04   -0.53658E-05   -0.79994E-06  3648   0.329E-03    0.313E-03
DAV:   5    -0.331738307635E+04   -0.32771E-06   -0.17367E-06  3296   0.142E-03
  31 F= -.33314931E+04 E0= -.33314931E+04  d E =-.421565E-03
 BRION: g(F)=  0.172E-02 g(S)=  0.000E+00 retain N=  1 mean eig= 0.21
 eig:   0.209
 bond charge predicted
       N       E                     dE             d eps       ncg     rms          rms(c)
DAV:   1    -0.331738395371E+04   -0.87768E-03   -0.35631E-01  3712   0.490E-01    0.104E-01
DAV:   2    -0.331738456748E+04   -0.61378E-03   -0.79202E-03  3744   0.594E-02    0.597E-02
DAV:   3    -0.331738458882E+04   -0.21342E-04   -0.11058E-04  4192   0.104E-02    0.448E-02
DAV:   4    -0.331738466749E+04   -0.78669E-04   -0.11871E-04  3840   0.118E-02    0.101E-02
DAV:   5    -0.331738467060E+04   -0.31118E-05   -0.27782E-05  4000   0.498E-03    0.902E-03
DAV:   6    -0.331738466996E+04    0.64110E-06   -0.36564E-06  3712   0.219E-03
  32 F= -.33314948E+04 E0= -.33314948E+04  d E =-.163913E-02
 BRION: g(F)=  0.181E-02 g(S)=  0.000E+00 retain N=  2 mean eig= 0.17
 eig:   0.142  0.190
 bond charge predicted
       N       E                     dE             d eps       ncg     rms          rms(c)
DAV:   1    -0.331738506212E+04   -0.39152E-03   -0.28799E-02  3776   0.144E-01    0.304E-02
DAV:   2    -0.331738511412E+04   -0.51994E-04   -0.67108E-04  3808   0.182E-02    0.176E-02
DAV:   3    -0.331738511574E+04   -0.16205E-05   -0.10418E-05  4192   0.328E-03    0.132E-02
DAV:   4    -0.331738512227E+04   -0.65293E-05   -0.10037E-05  3712   0.366E-03    0.344E-03
DAV:   5    -0.331738512267E+04   -0.40664E-06   -0.22304E-06  3360   0.159E-03
  33 F= -.33314953E+04 E0= -.33314953E+04  d E =-.466427E-03
 BRION: g(F)=  0.170E-02 g(S)=  0.000E+00 retain N=  2 mean eig= 3.68
 eig:   0.054  7.311
 bond charge predicted
       N       E                     dE             d eps       ncg     rms          rms(c)
DAV:   1    -0.331738597592E+04   -0.85365E-03   -0.37567E-01  3712   0.503E-01    0.107E-01
DAV:   2    -0.331738662817E+04   -0.65225E-03   -0.83644E-03  3712   0.611E-02    0.611E-02
DAV:   3    -0.331738664922E+04   -0.21054E-04   -0.11668E-04  4256   0.107E-02    0.459E-02
DAV:   4    -0.331738672976E+04   -0.80543E-04   -0.12432E-04  3840   0.121E-02    0.103E-02
DAV:   5    -0.331738673308E+04   -0.33178E-05   -0.29110E-05  3968   0.511E-03    0.923E-03
DAV:   6    -0.331738673244E+04    0.64296E-06   -0.39052E-06  3808   0.226E-03
  34 F= -.33314969E+04 E0= -.33314969E+04  d E =-.165807E-02
 BRION: g(F)=  0.183E-02 g(S)=  0.000E+00 retain N=  2 mean eig= 0.20
 eig:   0.199  0.199
 bond charge predicted
       N       E                     dE             d eps       ncg     rms          rms(c)
DAV:   1    -0.331738703863E+04   -0.30555E-03   -0.16965E-02  3776   0.117E-01    0.237E-02
DAV:   2    -0.331738707028E+04   -0.31647E-04   -0.40802E-04  3872   0.151E-02    0.145E-02
DAV:   3    -0.331738707068E+04   -0.40943E-06   -0.73309E-06  4096   0.282E-03
  35 F= -.33314973E+04 E0= -.33314973E+04  d E =-.348066E-03
 BRION: g(F)=  0.166E-02 g(S)=  0.000E+00 retain N=  2 mean eig= 3.49
 eig:   0.076  6.903
 bond charge predicted
       N       E                     dE             d eps       ncg     rms          rms(c)
DAV:   1    -0.331738790993E+04   -0.83966E-03   -0.33255E-01  3712   0.475E-01    0.102E-01
DAV:   2    -0.331738847456E+04   -0.56463E-03   -0.73221E-03  3712   0.573E-02    0.589E-02
DAV:   3    -0.331738849249E+04   -0.17925E-04   -0.10559E-04  4256   0.102E-02    0.442E-02
DAV:   4    -0.331738856759E+04   -0.75103E-04   -0.11031E-04  3840   0.115E-02    0.994E-03
DAV:   5    -0.331738857075E+04   -0.31542E-05   -0.26076E-05  3968   0.488E-03    0.881E-03
DAV:   6    -0.331738857017E+04    0.57020E-06   -0.35917E-06  3744   0.218E-03
  36 F= -.33314988E+04 E0= -.33314988E+04  d E =-.154824E-02
 BRION: g(F)=  0.176E-02 g(S)=  0.000E+00 retain N=  2 mean eig= 0.07
 eig:   0.109  0.027
 bond charge predicted
       N       E                     dE             d eps       ncg     rms          rms(c)
DAV:   1    -0.331738895121E+04   -0.38047E-03   -0.28774E-02  3776   0.147E-01    0.304E-02
DAV:   2    -0.331738900412E+04   -0.52910E-04   -0.67635E-04  3872   0.188E-02    0.181E-02
DAV:   3    -0.331738900506E+04   -0.93947E-06   -0.11031E-05  4224   0.342E-03    0.135E-02
DAV:   4    -0.331738901075E+04   -0.56877E-05   -0.10346E-05  3712   0.379E-03    0.371E-03
DAV:   5    -0.331738901127E+04   -0.52201E-06   -0.23075E-06  3392   0.164E-03
  37 F= -.33314993E+04 E0= -.33314993E+04  d E =-.454056E-03
 BRION: g(F)=  0.162E-02 g(S)=  0.000E+00 retain N=  1 mean eig= 0.21
 eig:   0.213
 bond charge predicted
       N       E                     dE             d eps       ncg     rms          rms(c)
DAV:   1    -0.331738981289E+04   -0.80214E-03   -0.30360E-01  3744   0.451E-01    0.961E-02
DAV:   2    -0.331739034500E+04   -0.53211E-03   -0.67582E-03  3744   0.548E-02    0.547E-02
DAV:   3    -0.331739035839E+04   -0.13392E-04   -0.94084E-05  4256   0.961E-03    0.411E-02
DAV:   4    -0.331739042199E+04   -0.63597E-04   -0.10036E-04  3872   0.109E-02    0.917E-03
DAV:   5    -0.331739042454E+04   -0.25540E-05   -0.23398E-05  3968   0.458E-03    0.826E-03
DAV:   6    -0.331739042402E+04    0.51968E-06   -0.30200E-06  3648   0.200E-03
  38 F= -.33315007E+04 E0= -.33315007E+04  d E =-.145943E-02
 BRION: g(F)=  0.163E-02 g(S)=  0.000E+00 retain N=  2 mean eig= 0.18
 eig:   0.051  0.309
 bond charge predicted
       N       E                     dE             d eps       ncg     rms          rms(c)
DAV:   1    -0.331739090970E+04   -0.48516E-03   -0.58189E-02  3744   0.203E-01    0.425E-02
DAV:   2    -0.331739101522E+04   -0.10552E-03   -0.13399E-03  3776   0.253E-02    0.246E-02
DAV:   3    -0.331739101789E+04   -0.26635E-05   -0.19914E-05  4256   0.450E-03    0.185E-02
DAV:   4    -0.331739102969E+04   -0.11800E-04   -0.20031E-05  3808   0.507E-03    0.456E-03
DAV:   5    -0.331739103042E+04   -0.73947E-06   -0.46206E-06  3744   0.217E-03
  39 F= -.33315013E+04 E0= -.33315013E+04  d E =-.627134E-03
 BRION: g(F)=  0.161E-02 g(S)=  0.000E+00 retain N=  2 mean eig= 0.59
 eig:   0.167  1.007
 bond charge predicted
       N       E                     dE             d eps       ncg     rms          rms(c)
DAV:   1    -0.331739175631E+04   -0.72662E-03   -0.21375E-01  3744   0.382E-01    0.813E-02
DAV:   2    -0.331739213441E+04   -0.37810E-03   -0.48073E-03  3776   0.467E-02    0.464E-02
DAV:   3    -0.331739214425E+04   -0.98387E-05   -0.68589E-05  4288   0.826E-03    0.349E-02
DAV:   4    -0.331739218871E+04   -0.44464E-04   -0.70533E-05  3872   0.926E-03    0.805E-03
DAV:   5    -0.331739219076E+04   -0.20480E-05   -0.16469E-05  3968   0.394E-03    0.696E-03
DAV:   6    -0.331739219051E+04    0.25157E-06   -0.23551E-06  3392   0.176E-03
  40 F= -.33315025E+04 E0= -.33315025E+04  d E =-.119929E-02
 BRION: g(F)=  0.166E-02 g(S)=  0.000E+00 retain N=  2 mean eig= 0.67
 eig:   0.143  1.206
 bond charge predicted
       N       E                     dE             d eps       ncg     rms          rms(c)
DAV:   1    -0.331739259456E+04   -0.40380E-03   -0.36467E-02  3776   0.163E-01    0.338E-02
DAV:   2    -0.331739266070E+04   -0.66145E-04   -0.84461E-04  3840   0.206E-02    0.199E-02
DAV:   3    -0.331739266209E+04   -0.13865E-05   -0.13452E-05  4224   0.372E-03    0.149E-02
DAV:   4    -0.331739266940E+04   -0.73137E-05   -0.12747E-05  3712   0.414E-03    0.393E-03
DAV:   5    -0.331739267000E+04   -0.59174E-06   -0.29055E-06  3488   0.179E-03
  41 F= -.33315030E+04 E0= -.33315030E+04  d E =-.496734E-03
 BRION: g(F)=  0.153E-02 g(S)=  0.000E+00 retain N=  2 mean eig= 1.04
 eig:   0.106  1.980
 bond charge predicted
       N       E                     dE             d eps       ncg     rms          rms(c)
DAV:   1    -0.331739335846E+04   -0.68906E-03   -0.17598E-01  3744   0.345E-01    0.734E-02
DAV:   2    -0.331739366902E+04   -0.31055E-03   -0.39424E-03  3744   0.421E-02    0.419E-02
DAV:   3    -0.331739367728E+04   -0.82626E-05   -0.55033E-05  4256   0.738E-03    0.314E-02
DAV:   4    -0.331739371364E+04   -0.36362E-04   -0.58036E-05  3840   0.832E-03    0.708E-03
DAV:   5    -0.331739371522E+04   -0.15808E-05   -0.13478E-05  3968   0.351E-03    0.629E-03
DAV:   6    -0.331739371496E+04    0.26647E-06   -0.17612E-06  3328   0.155E-03
  42 F= -.33315041E+04 E0= -.33315041E+04  d E =-.108210E-02
 BRION: g(F)=  0.152E-02 g(S)=  0.000E+00 retain N=  2 mean eig= 0.35
 eig:   0.130  0.577
 bond charge predicted
       N       E                     dE             d eps       ncg     rms          rms(c)
DAV:   1    -0.331739433280E+04   -0.61758E-03   -0.12505E-01  3744   0.291E-01    0.616E-02
DAV:   2    -0.331739455549E+04   -0.22269E-03   -0.28181E-03  3776   0.357E-02    0.351E-02
DAV:   3    -0.331739456108E+04   -0.55896E-05   -0.39834E-05  4256   0.627E-03    0.264E-02
DAV:   4    -0.331739458676E+04   -0.25679E-04   -0.42050E-05  3840   0.710E-03    0.606E-03
DAV:   5    -0.331739458789E+04   -0.11354E-05   -0.97521E-06  3904   0.301E-03    0.535E-03
DAV:   6    -0.331739458770E+04    0.18929E-06   -0.12671E-06  3200   0.133E-03
  43 F= -.33315050E+04 E0= -.33315050E+04  d E =-.904352E-03
 BRION: g(F)=  0.150E-02 g(S)=  0.000E+00 retain N=  2 mean eig= 0.56
 eig:   0.113  1.015
 bond charge predicted
       N       E                     dE             d eps       ncg     rms          rms(c)
DAV:   1    -0.331739518779E+04   -0.59990E-03   -0.12149E-01  3712   0.288E-01    0.606E-02
DAV:   2    -0.331739540484E+04   -0.21705E-03   -0.27419E-03  3808   0.355E-02    0.347E-02
DAV:   3    -0.331739540977E+04   -0.49390E-05   -0.39168E-05  4256   0.624E-03    0.261E-02
DAV:   4    -0.331739543425E+04   -0.24475E-04   -0.41282E-05  3840   0.707E-03    0.608E-03
DAV:   5    -0.331739543547E+04   -0.12182E-05   -0.96189E-06  3936   0.300E-03    0.530E-03
DAV:   6    -0.331739543530E+04    0.17101E-06   -0.13048E-06  3104   0.136E-03
  44 F= -.33315059E+04 E0= -.33315059E+04  d E =-.880013E-03
 BRION: g(F)=  0.152E-02 g(S)=  0.000E+00 retain N=  2 mean eig= 0.53
 eig:   0.071  0.986
 bond charge predicted
       N       E                     dE             d eps       ncg     rms          rms(c)
DAV:   1    -0.331739600513E+04   -0.56967E-03   -0.10252E-01  3744   0.266E-01    0.558E-02
DAV:   2    -0.331739618801E+04   -0.18287E-03   -0.23150E-03  3776   0.328E-02    0.321E-02
DAV:   3    -0.331739619195E+04   -0.39393E-05   -0.33359E-05  4256   0.578E-03    0.241E-02
DAV:   4    -0.331739621265E+04   -0.20705E-04   -0.34923E-05  3872   0.656E-03    0.568E-03
DAV:   5    -0.331739621371E+04   -0.10575E-05   -0.81031E-06  3936   0.278E-03    0.487E-03
DAV:   6    -0.331739621357E+04    0.13411E-06   -0.11187E-06  2976   0.125E-03
  45 F= -.33315067E+04 E0= -.33315067E+04  d E =-.807299E-03
 BRION: g(F)=  0.148E-02 g(S)=  0.000E+00 retain N=  2 mean eig= 0.99
 eig:   0.092  1.886
 bond charge predicted
       N       E                     dE             d eps       ncg     rms          rms(c)
DAV:   1    -0.331739677104E+04   -0.55733E-03   -0.10075E-01  3744   0.263E-01    0.552E-02
DAV:   2    -0.331739695088E+04   -0.17984E-03   -0.22738E-03  3776   0.325E-02    0.317E-02
DAV:   3    -0.331739695463E+04   -0.37436E-05   -0.32983E-05  4288   0.573E-03    0.239E-02
DAV:   4    -0.331739697507E+04   -0.20442E-04   -0.34166E-05  3872   0.648E-03    0.560E-03
DAV:   5    -0.331739697610E+04   -0.10285E-05   -0.79650E-06  3936   0.276E-03    0.482E-03
DAV:   6    -0.331739697597E+04    0.12992E-06   -0.10685E-06  3008   0.123E-03
  46 F= -.33315075E+04 E0= -.33315075E+04  d E =-.792091E-03
 BRION: g(F)=  0.146E-02 g(S)=  0.000E+00 retain N=  2 mean eig= 0.19
 eig:   0.020  0.354
 bond charge predicted
       N       E                     dE             d eps       ncg     rms          rms(c)
DAV:   1    -0.331739755420E+04   -0.57811E-03   -0.11652E-01  3712   0.283E-01    0.593E-02
DAV:   2    -0.331739776297E+04   -0.20877E-03   -0.26287E-03  3808   0.348E-02    0.340E-02
DAV:   3    -0.331739776712E+04   -0.41471E-05   -0.37410E-05  4256   0.611E-03    0.256E-02
DAV:   4    -0.331739779041E+04   -0.23289E-04   -0.39477E-05  3840   0.693E-03    0.590E-03
DAV:   5    -0.331739779157E+04   -0.11573E-05   -0.92026E-06  3968   0.293E-03    0.516E-03
DAV:   6    -0.331739779140E+04    0.16473E-06   -0.12183E-06  3072   0.131E-03
  47 F= -.33315084E+04 E0= -.33315084E+04  d E =-.847704E-03
 BRION: g(F)=  0.142E-02 g(S)=  0.000E+00 retain N=  2 mean eig= 0.73
 eig:   0.070  1.393
 bond charge predicted
       N       E                     dE             d eps       ncg     rms          rms(c)
DAV:   1    -0.331739838814E+04   -0.59658E-03   -0.14197E-01  3744   0.312E-01    0.654E-02
DAV:   2    -0.331739864282E+04   -0.25468E-03   -0.32010E-03  3776   0.384E-02    0.376E-02
DAV:   3    -0.331739864749E+04   -0.46684E-05   -0.45878E-05  4288   0.676E-03    0.283E-02
DAV:   4    -0.331739867559E+04   -0.28100E-04   -0.48338E-05  3840   0.767E-03    0.654E-03
DAV:   5    -0.331739867693E+04   -0.13398E-05   -0.11281E-05  4000   0.325E-03    0.572E-03
DAV:   6    -0.331739867673E+04    0.19651E-06   -0.15252E-06  3200   0.144E-03
  48 F= -.33315093E+04 E0= -.33315093E+04  d E =-.920656E-03
 BRION: g(F)=  0.144E-02 g(S)=  0.000E+00 retain N=  2 mean eig= 0.45
 eig:   0.022  0.876
 bond charge predicted
       N       E                     dE             d eps       ncg     rms          rms(c)
DAV:   1    -0.331739916121E+04   -0.48428E-03   -0.74533E-02  3712   0.229E-01    0.476E-02
DAV:   2    -0.331739929601E+04   -0.13480E-03   -0.17008E-03  3808   0.285E-02    0.275E-02
DAV:   3    -0.331739929879E+04   -0.27786E-05   -0.25398E-05  4256   0.507E-03    0.207E-02
DAV:   4    -0.331739931337E+04   -0.14587E-04   -0.25744E-05  3840   0.571E-03    0.504E-03
DAV:   5    -0.331739931421E+04   -0.83225E-06   -0.59863E-06  3776   0.245E-03
  49 F= -.33315099E+04 E0= -.33315099E+04  d E =-.663629E-03
 BRION: g(F)=  0.139E-02 g(S)=  0.000E+00 retain N=  2 mean eig= 0.86
 eig:   0.038  1.677
 bond charge predicted
       N       E                     dE             d eps       ncg     rms          rms(c)
DAV:   1    -0.331739986996E+04   -0.55659E-03   -0.12329E-01  3744   0.292E-01    0.620E-02
DAV:   2    -0.331740009068E+04   -0.22072E-03   -0.28013E-03  3776   0.361E-02    0.355E-02
DAV:   3    -0.331740009625E+04   -0.55666E-05   -0.40469E-05  4256   0.640E-03    0.266E-02
DAV:   4    -0.331740012205E+04   -0.25798E-04   -0.40518E-05  3840   0.711E-03    0.622E-03
DAV:   5    -0.331740012332E+04   -0.12750E-05   -0.94096E-06  3968   0.303E-03    0.525E-03
DAV:   6    -0.331740012318E+04    0.13807E-06   -0.13788E-06  3040   0.137E-03
  50 F= -.33315108E+04 E0= -.33315108E+04  d E =-.842230E-03
 BRION: g(F)=  0.141E-02 g(S)=  0.000E+00 retain N=  2 mean eig= 0.44
 eig:   0.147  0.732
 bond charge predicted
       N       E                     dE             d eps       ncg     rms          rms(c)
DAV:   1    -0.331740060252E+04   -0.47920E-03   -0.74315E-02  3808   0.228E-01    0.476E-02
DAV:   2    -0.331740073620E+04   -0.13368E-03   -0.16897E-03  3776   0.283E-02    0.274E-02
DAV:   3    -0.331740073916E+04   -0.29581E-05   -0.24974E-05  4288   0.501E-03    0.206E-02
DAV:   4    -0.331740075406E+04   -0.14899E-04   -0.25362E-05  3808   0.565E-03    0.490E-03
DAV:   5    -0.331740075484E+04   -0.78650E-06   -0.58985E-06  3808   0.241E-03
  51 F= -.33315114E+04 E0= -.33315114E+04  d E =-.657549E-03
 BRION: g(F)=  0.131E-02 g(S)=  0.000E+00 retain N=  2 mean eig= 0.67
 eig:   0.046  1.303
 bond charge predicted
       N       E                     dE             d eps       ncg     rms          rms(c)
DAV:   1    -0.331740128618E+04   -0.53212E-03   -0.11232E-01  3744   0.278E-01    0.591E-02
DAV:   2    -0.331740148582E+04   -0.19963E-03   -0.25480E-03  3808   0.342E-02    0.336E-02
DAV:   3    -0.331740149221E+04   -0.63987E-05   -0.36370E-05  4256   0.604E-03    0.252E-02
DAV:   4    -0.331740151704E+04   -0.24822E-04   -0.36475E-05  3840   0.669E-03    0.577E-03
DAV:   5    -0.331740151807E+04   -0.10369E-05   -0.84255E-06  3968   0.286E-03    0.496E-03
DAV:   6    -0.331740151794E+04    0.13458E-06   -0.11766E-06  3008   0.129E-03
  52 F= -.33315122E+04 E0= -.33315122E+04  d E =-.795408E-03
 BRION: g(F)=  0.132E-02 g(S)=  0.000E+00 retain N=  2 mean eig= 0.74
 eig:   0.167  1.309
 bond charge predicted
       N       E                     dE             d eps       ncg     rms          rms(c)
DAV:   1    -0.331740205751E+04   -0.53943E-03   -0.11691E-01  3776   0.283E-01    0.592E-02
DAV:   2    -0.331740226391E+04   -0.20641E-03   -0.26303E-03  3776   0.347E-02    0.338E-02
DAV:   3    -0.331740227032E+04   -0.64047E-05   -0.37113E-05  4288   0.608E-03    0.255E-02
DAV:   4    -0.331740229489E+04   -0.24568E-04   -0.39732E-05  3840   0.692E-03    0.578E-03
DAV:   5    -0.331740229592E+04   -0.10305E-05   -0.91457E-06  3968   0.291E-03    0.513E-03
DAV:   6    -0.331740229574E+04    0.17672E-06   -0.11638E-06  3040   0.128E-03
  53 F= -.33315130E+04 E0= -.33315130E+04  d E =-.810586E-03
 BRION: g(F)=  0.128E-02 g(S)=  0.000E+00 retain N=  2 mean eig= 0.83
 eig:   0.077  1.582
 bond charge predicted
       N       E                     dE             d eps       ncg     rms          rms(c)
DAV:   1    -0.331740269199E+04   -0.39607E-03   -0.49202E-02  3808   0.185E-01    0.385E-02
DAV:   2    -0.331740277952E+04   -0.87531E-04   -0.11189E-03  3808   0.230E-02    0.222E-02
DAV:   3    -0.331740278217E+04   -0.26516E-05   -0.16416E-05  4288   0.407E-03    0.167E-02
DAV:   4    -0.331740279266E+04   -0.10486E-04   -0.16951E-05  3712   0.461E-03    0.397E-03
DAV:   5    -0.331740279319E+04   -0.53179E-06   -0.38834E-06  3680   0.197E-03
  54 F= -.33315136E+04 E0= -.33315136E+04  d E =-.518949E-03
 BRION: g(F)=  0.126E-02 g(S)=  0.000E+00 retain N=  2 mean eig= 0.22
 eig:   0.127  0.314
 bond charge predicted
       N       E                     dE             d eps       ncg     rms          rms(c)
DAV:   1    -0.331740338468E+04   -0.59202E-03   -0.19825E-01  3744   0.366E-01    0.775E-02
DAV:   2    -0.331740373101E+04   -0.34633E-03   -0.44456E-03  3744   0.449E-02    0.440E-02
DAV:   3    -0.331740374335E+04   -0.12339E-04   -0.62045E-05  4288   0.785E-03    0.331E-02
DAV:   4    -0.331740378810E+04   -0.44758E-04   -0.65411E-05  3840   0.882E-03    0.732E-03
DAV:   5    -0.331740378984E+04   -0.17334E-05   -0.15025E-05  4032   0.371E-03    0.657E-03
DAV:   6    -0.331740378955E+04    0.28848E-06   -0.19483E-06  3328   0.162E-03
  55 F= -.33315146E+04 E0= -.33315146E+04  d E =-.103973E-02
 BRION: g(F)=  0.127E-02 g(S)=  0.000E+00 retain N=  2 mean eig= 0.97
 eig:   0.160  1.771
 bond charge predicted
       N       E                     dE             d eps       ncg     rms          rms(c)
DAV:   1    -0.331740410024E+04   -0.31040E-03   -0.27909E-02  3776   0.142E-01    0.292E-02
DAV:   2    -0.331740415014E+04   -0.49908E-04   -0.64581E-04  3808   0.179E-02    0.170E-02
DAV:   3    -0.331740415176E+04   -0.16112E-05   -0.98276E-06  4160   0.320E-03    0.128E-02
DAV:   4    -0.331740415808E+04   -0.63195E-05   -0.99153E-06  3648   0.362E-03    0.320E-03
DAV:   5    -0.331740415846E+04   -0.38103E-06   -0.22110E-06  3424   0.154E-03
  56 F= -.33315150E+04 E0= -.33315150E+04  d E =-.384919E-03
 BRION: g(F)=  0.124E-02 g(S)=  0.000E+00 retain N=  2 mean eig= 0.51
 eig:   0.032  0.981
 bond charge predicted
       N       E                     dE             d eps       ncg     rms          rms(c)
DAV:   1    -0.331740465905E+04   -0.50097E-03   -0.10050E-01  3808   0.261E-01    0.551E-02
DAV:   2    -0.331740483411E+04   -0.17506E-03   -0.22499E-03  3744   0.320E-02    0.313E-02
DAV:   3    -0.331740484041E+04   -0.62927E-05   -0.31648E-05  4288   0.561E-03    0.236E-02
DAV:   4    -0.331740486303E+04   -0.22626E-04   -0.33324E-05  3872   0.631E-03    0.529E-03
DAV:   5    -0.331740486398E+04   -0.94727E-06   -0.76296E-06  3904   0.267E-03
  57 F= -.33315157E+04 E0= -.33315157E+04  d E =-.736714E-03
 BRION: g(F)=  0.120E-02 g(S)=  0.000E+00 retain N=  2 mean eig= 0.99
 eig:   0.136  1.852
 bond charge predicted
       N       E                     dE             d eps       ncg     rms          rms(c)
DAV:   1    -0.331740541700E+04   -0.55396E-03   -0.16437E-01  3776   0.333E-01    0.709E-02
DAV:   2    -0.331740570030E+04   -0.28330E-03   -0.36877E-03  3744   0.409E-02    0.400E-02
DAV:   3    -0.331740571540E+04   -0.15099E-04   -0.51399E-05  4288   0.716E-03    0.301E-02
DAV:   4    -0.331740575376E+04   -0.38358E-04   -0.52199E-05  3872   0.788E-03    0.661E-03
DAV:   5    -0.331740575514E+04   -0.13866E-05   -0.11957E-05  4000   0.333E-03    0.591E-03
DAV:   6    -0.331740575491E+04    0.23644E-06   -0.15679E-06  3168   0.146E-03
  58 F= -.33315167E+04 E0= -.33315167E+04  d E =-.930535E-03
 BRION: g(F)=  0.123E-02 g(S)=  0.000E+00 retain N=  2 mean eig= 0.49
 eig:   0.165  0.817
 bond charge predicted
       N       E                     dE             d eps       ncg     rms          rms(c)
DAV:   1    -0.331740608250E+04   -0.32736E-03   -0.32261E-02  3840   0.150E-01    0.311E-02
DAV:   2    -0.331740613981E+04   -0.57316E-04   -0.73421E-04  3808   0.187E-02    0.179E-02
DAV:   3    -0.331740614207E+04   -0.22599E-05   -0.10705E-05  4224   0.329E-03    0.135E-02
DAV:   4    -0.331740614888E+04   -0.68092E-05   -0.11065E-05  3648   0.373E-03    0.319E-03
DAV:   5    -0.331740614923E+04   -0.34389E-06   -0.24898E-06  3520   0.159E-03
  59 F= -.33315171E+04 E0= -.33315171E+04  d E =-.411847E-03
 BRION: g(F)=  0.119E-02 g(S)=  0.000E+00 retain N=  2 mean eig= 0.65
 eig:   0.018  1.274
 bond charge predicted
       N       E                     dE             d eps       ncg     rms          rms(c)
DAV:   1    -0.331740661941E+04   -0.47052E-03   -0.89778E-02  3840   0.247E-01    0.520E-02
DAV:   2    -0.331740677157E+04   -0.15216E-03   -0.20042E-03  3744   0.302E-02    0.295E-02
DAV:   3    -0.331740677952E+04   -0.79443E-05   -0.28068E-05  4288   0.529E-03    0.222E-02
DAV:   4    -0.331740680177E+04   -0.22252E-04   -0.29446E-05  3840   0.594E-03    0.492E-03
DAV:   5    -0.331740680253E+04   -0.76101E-06   -0.66754E-06  3808   0.250E-03
  60 F= -.33315178E+04 E0= -.33315178E+04  d E =-.683053E-03
 BRION: g(F)=  0.117E-02 g(S)=  0.000E+00 retain N=  2 mean eig= 0.57
 eig:   0.069  1.063
 bond charge predicted
       N       E                     dE             d eps       ncg     rms          rms(c)
DAV:   1    -0.331740735018E+04   -0.54842E-03   -0.18353E-01  3776   0.352E-01    0.746E-02
DAV:   2    -0.331740767016E+04   -0.31998E-03   -0.41002E-03  3744   0.431E-02    0.421E-02
DAV:   3    -0.331740768076E+04   -0.10604E-04   -0.56880E-05  4288   0.749E-03    0.317E-02
DAV:   4    -0.331740772447E+04   -0.43710E-04   -0.58810E-05  3872   0.836E-03    0.696E-03
DAV:   5    -0.331740772613E+04   -0.16572E-05   -0.13441E-05  4032   0.351E-03    0.626E-03
DAV:   6    -0.331740772588E+04    0.25088E-06   -0.17616E-06  3200   0.154E-03
  61 F= -.33315187E+04 E0= -.33315187E+04  d E =-.965599E-03
 BRION: g(F)=  0.120E-02 g(S)=  0.000E+00 retain N=  2 mean eig= 0.81
 eig:   0.086  1.540
 bond charge predicted
       N       E                     dE             d eps       ncg     rms          rms(c)
DAV:   1    -0.331740800192E+04   -0.27579E-03   -0.23762E-02  3776   0.133E-01    0.268E-02
DAV:   2    -0.331740804397E+04   -0.42051E-04   -0.54974E-04  3776   0.168E-02    0.158E-02
DAV:   3    -0.331740804540E+04   -0.14235E-05   -0.87106E-06  4128   0.302E-03    0.119E-02
DAV:   4    -0.331740805094E+04   -0.55390E-05   -0.86367E-06  3584   0.341E-03    0.311E-03
DAV:   5    -0.331740805134E+04   -0.40326E-06   -0.19111E-06  3328   0.147E-03
  62 F= -.33315191E+04 E0= -.33315191E+04  d E =-.340518E-03
 BRION: g(F)=  0.119E-02 g(S)=  0.000E+00 retain N=  2 mean eig= 0.26
 eig:   0.020  0.496
 bond charge predicted
       N       E                     dE             d eps       ncg     rms          rms(c)
DAV:   1    -0.331740848067E+04   -0.42973E-03   -0.71399E-02  3840   0.222E-01    0.463E-02
DAV:   2    -0.331740860449E+04   -0.12382E-03   -0.15950E-03  3776   0.272E-02    0.265E-02
DAV:   3    -0.331740860854E+04   -0.40504E-05   -0.22490E-05  4288   0.475E-03    0.199E-02
DAV:   4    -0.331740862530E+04   -0.16758E-04   -0.23764E-05  3808   0.539E-03    0.451E-03
DAV:   5    -0.331740862605E+04   -0.74925E-06   -0.54286E-06  3776   0.227E-03
  63 F= -.33315197E+04 E0= -.33315197E+04  d E =-.601305E-03
 BRION: g(F)=  0.113E-02 g(S)=  0.000E+00 retain N=  2 mean eig= 0.96
 eig:   0.148  1.765
 bond charge predicted
       N       E                     dE             d eps       ncg     rms          rms(c)
DAV:   1    -0.331740914404E+04   -0.51874E-03   -0.15442E-01  3840   0.323E-01    0.682E-02
DAV:   2    -0.331740940925E+04   -0.26521E-03   -0.34427E-03  3744   0.395E-02    0.386E-02
DAV:   3    -0.331740942131E+04   -0.12061E-04   -0.47695E-05  4288   0.688E-03    0.290E-02
DAV:   4    -0.331740945847E+04   -0.37161E-04   -0.49404E-05  3872   0.764E-03    0.635E-03
DAV:   5    -0.331740945989E+04   -0.14199E-05   -0.11356E-05  4000   0.322E-03    0.574E-03
DAV:   6    -0.331740945969E+04    0.19954E-06   -0.14476E-06  3072   0.141E-03
  64 F= -.33315205E+04 E0= -.33315205E+04  d E =-.872893E-03
 BRION: g(F)=  0.114E-02 g(S)=  0.000E+00 retain N=  2 mean eig= 0.54
 eig:   0.075  0.999
 bond charge predicted
       N       E                     dE             d eps       ncg     rms          rms(c)
DAV:   1    -0.331740985470E+04   -0.39481E-03   -0.61251E-02  3840   0.205E-01    0.425E-02
DAV:   2    -0.331740996145E+04   -0.10675E-03   -0.13756E-03  3776   0.254E-02    0.243E-02
DAV:   3    -0.331740996506E+04   -0.36042E-05   -0.19501E-05  4288   0.442E-03    0.183E-02
DAV:   4    -0.331740997936E+04   -0.14307E-04   -0.20836E-05  3712   0.502E-03    0.422E-03
DAV:   5    -0.331740998004E+04   -0.67241E-06   -0.47863E-06  3776   0.213E-03
  65 F= -.33315211E+04 E0= -.33315211E+04  d E =-.544877E-03
 BRION: g(F)=  0.112E-02 g(S)=  0.000E+00 retain N=  2 mean eig= 0.48
 eig:   0.483  0.483
 bond charge predicted
       N       E                     dE             d eps       ncg     rms          rms(c)
DAV:   1    -0.331741044029E+04   -0.46093E-03   -0.10635E-01  3840   0.270E-01    0.568E-02
DAV:   2    -0.331741061828E+04   -0.17798E-03   -0.23823E-03  3776   0.333E-02    0.323E-02
DAV:   3    -0.331741062724E+04   -0.89600E-05   -0.33614E-05  4288   0.582E-03    0.243E-02
DAV:   4    -0.331741065810E+04   -0.30863E-04   -0.34456E-05  3840   0.649E-03    0.548E-03
DAV:   5    -0.331741065929E+04   -0.11945E-05   -0.79268E-06  3904   0.275E-03    0.479E-03
DAV:   6    -0.331741065922E+04    0.70781E-07   -0.10853E-06  2944   0.123E-03
  66 F= -.33315218E+04 E0= -.33315218E+04  d E =-.711878E-03
 BRION: g(F)=  0.116E-02 g(S)=  0.000E+00 retain N=  2 mean eig= 0.62
 eig:   0.208  1.036
 bond charge predicted
       N       E                     dE             d eps       ncg     rms          rms(c)
DAV:   1    -0.331741103613E+04   -0.37684E-03   -0.53301E-02  3840   0.192E-01    0.397E-02
DAV:   2    -0.331741112461E+04   -0.88475E-04   -0.11935E-03  3776   0.237E-02    0.227E-02
DAV:   3    -0.331741112917E+04   -0.45624E-05   -0.17079E-05  4288   0.413E-03    0.171E-02
DAV:   4    -0.331741114514E+04   -0.15971E-04   -0.18002E-05  3680   0.471E-03    0.392E-03
DAV:   5    -0.331741114578E+04   -0.63959E-06   -0.41268E-06  3712   0.199E-03
  67 F= -.33315223E+04 E0= -.33315223E+04  d E =-.509406E-03
 BRION: g(F)=  0.110E-02 g(S)=  0.000E+00 retain N=  2 mean eig= 0.96
 eig:   0.136  1.776
 bond charge predicted
       N       E                     dE             d eps       ncg     rms          rms(c)
DAV:   1    -0.331741152844E+04   -0.38330E-03   -0.56983E-02  3840   0.196E-01    0.417E-02
DAV:   2    -0.331741162060E+04   -0.92158E-04   -0.12729E-03  3776   0.241E-02    0.235E-02
DAV:   3    -0.331741162682E+04   -0.62250E-05   -0.17516E-05  4288   0.417E-03    0.176E-02
DAV:   4    -0.331741164647E+04   -0.19646E-04   -0.17811E-05  3680   0.462E-03    0.386E-03
DAV:   5    -0.331741164706E+04   -0.59174E-06   -0.40259E-06  3712   0.196E-03
  68 F= -.33315228E+04 E0= -.33315228E+04  d E =-.524616E-03
 BRION: g(F)=  0.108E-02 g(S)=  0.000E+00 retain N=  2 mean eig= 0.88
 eig:   0.219  1.548
 bond charge predicted
       N       E                     dE             d eps       ncg     rms          rms(c)
DAV:   1    -0.331741217019E+04   -0.52372E-03   -0.18516E-01  3776   0.351E-01    0.740E-02
DAV:   2    -0.331741247187E+04   -0.30168E-03   -0.40806E-03  3744   0.428E-02    0.416E-02
DAV:   3    -0.331741248835E+04   -0.16479E-04   -0.55193E-05  4256   0.734E-03    0.314E-02
DAV:   4    -0.331741254842E+04   -0.60074E-04   -0.59219E-05  3808   0.826E-03    0.672E-03
DAV:   5    -0.331741255032E+04   -0.18973E-05   -0.13439E-05  4032   0.345E-03    0.624E-03
DAV:   6    -0.331741255015E+04    0.16415E-06   -0.16622E-06  3232   0.149E-03
  69 F= -.33315238E+04 E0= -.33315238E+04  d E =-.945034E-03
 BRION: g(F)=  0.108E-02 g(S)=  0.000E+00 retain N=  2 mean eig= 2.16
 eig:   0.273  4.050
 bond charge predicted
       N       E                     dE             d eps       ncg     rms          rms(c)
DAV:   1    -0.331741063618E+04    0.19141E-02   -0.34161E-01  3776   0.477E-01    0.985E-02
DAV:   2    -0.331741118308E+04   -0.54690E-03   -0.73753E-03  3712   0.576E-02    0.562E-02
DAV:   3    -0.331741121845E+04   -0.35369E-04   -0.10079E-04  4256   0.985E-03    0.423E-02
DAV:   4    -0.331741131229E+04   -0.93843E-04   -0.11382E-04  3840   0.115E-02    0.923E-03
DAV:   5    -0.331741131534E+04   -0.30460E-05   -0.26503E-05  3968   0.482E-03    0.856E-03
DAV:   6    -0.331741131500E+04    0.33795E-06   -0.30440E-06  3680   0.197E-03
  70 F= -.33315225E+04 E0= -.33315225E+04  d E =0.129107E-02
 BRION: g(F)=  0.119E-02 g(S)=  0.000E+00 retain N=  2 mean eig= 1.80
 eig:   3.470  0.131
 bond charge predicted
       N       E                     dE             d eps       ncg     rms          rms(c)
DAV:   1    -0.331741177865E+04   -0.46332E-03   -0.54327E-01  3776   0.602E-01    0.124E-01
DAV:   2    -0.331741265858E+04   -0.87993E-03   -0.11750E-02  3712   0.729E-02    0.710E-02
DAV:   3    -0.331741270062E+04   -0.42045E-04   -0.16188E-04  4256   0.125E-02    0.535E-02
DAV:   4    -0.331741285457E+04   -0.15394E-03   -0.18166E-04  3840   0.144E-02    0.116E-02
DAV:   5    -0.331741286106E+04   -0.64949E-05   -0.41844E-05  3968   0.598E-03    0.109E-02
DAV:   6    -0.331741286084E+04    0.22491E-06   -0.53630E-06  3936   0.257E-03
  71 F= -.33315241E+04 E0= -.33315241E+04  d E =-.161643E-02
 BRION: g(F)=  0.119E-02 g(S)=  0.000E+00 retain N=  2 mean eig= 1.33
 eig:   0.035  2.622
 bond charge predicted
       N       E                     dE             d eps       ncg     rms          rms(c)
DAV:   1    -0.331741340343E+04   -0.54237E-03   -0.22767E-01  3776   0.389E-01    0.813E-02
DAV:   2    -0.331741376717E+04   -0.36374E-03   -0.50174E-03  3744   0.477E-02    0.459E-02
DAV:   3    -0.331741378884E+04   -0.21666E-04   -0.67917E-05  4256   0.815E-03    0.346E-02
DAV:   4    -0.331741386888E+04   -0.80048E-04   -0.75516E-05  3840   0.929E-03    0.760E-03
DAV:   5    -0.331741387138E+04   -0.24979E-05   -0.17120E-05  4000   0.387E-03    0.703E-03
DAV:   6    -0.331741387132E+04    0.59837E-07   -0.23021E-06  3424   0.172E-03
  72 F= -.33315251E+04 E0= -.33315251E+04  d E =-.105559E-02
 BRION: g(F)=  0.109E-02 g(S)=  0.000E+00 retain N=  2 mean eig= 1.12
 eig:   0.268  1.969
 bond charge predicted
       N       E                     dE             d eps       ncg     rms          rms(c)
DAV:   1    -0.331741439396E+04   -0.52258E-03   -0.17859E-01  3776   0.344E-01    0.716E-02
DAV:   2    -0.331741466288E+04   -0.26892E-03   -0.38958E-03  3744   0.420E-02    0.405E-02
DAV:   3    -0.331741468508E+04   -0.22197E-04   -0.52700E-05  4256   0.718E-03    0.306E-02
DAV:   4    -0.331741475480E+04   -0.69726E-04   -0.59086E-05  3808   0.821E-03    0.668E-03
DAV:   5    -0.331741475677E+04   -0.19633E-05   -0.13341E-05  3968   0.340E-03    0.621E-03
DAV:   6    -0.331741475670E+04    0.69500E-07   -0.17347E-06  3296   0.150E-03
  73 F= -.33315261E+04 E0= -.33315261E+04  d E =-.925150E-03
 BRION: g(F)=  0.114E-02 g(S)=  0.000E+00 retain N=  3 mean eig= 1.15
 eig:   0.322  0.724  2.393
 bond charge predicted
       N       E                     dE             d eps       ncg     rms          rms(c)
DAV:   1    -0.331741476878E+04   -0.12020E-04   -0.87062E-05  3712   0.110E-02    0.219E-03
DAV:   2    -0.331741476897E+04   -0.18312E-06   -0.27088E-06  3424   0.168E-03
  74 F= -.33315261E+04 E0= -.33315261E+04  d E =-.125850E-04
 BRION: g(F)=  0.111E-02 g(S)=  0.000E+00 retain N=  2 mean eig= 3.66
 eig:   0.120  7.191
 bond charge predicted
       N       E                     dE             d eps       ncg     rms          rms(c)
DAV:   1    -0.331741489776E+04   -0.12898E-03   -0.43426E-03  3840   0.548E-02    0.116E-02
DAV:   2    -0.331741490419E+04   -0.64293E-05   -0.95850E-05  3776   0.678E-03    0.678E-03
DAV:   3    -0.331741490472E+04   -0.52713E-06   -0.12318E-06  3136   0.119E-03
  75 F= -.33315262E+04 E0= -.33315262E+04  d E =-.141932E-03
 BRION: g(F)=  0.112E-02 g(S)=  0.000E+00 retain N=  3 mean eig= 2.72
 eig:   7.839  0.132  0.192
 bond charge predicted
       N       E                     dE             d eps       ncg     rms          rms(c)
DAV:   1    -0.331741493922E+04   -0.35032E-04   -0.22166E-04  3680   0.128E-02    0.343E-03
DAV:   2    -0.331741493933E+04   -0.10571E-06   -0.41168E-06  3648   0.156E-03
  76 F= -.33315263E+04 E0= -.33315263E+04  d E =-.360915E-04
 BRION: g(F)=  0.111E-02 g(S)=  0.000E+00 retain N=  1 mean eig= 0.29
 eig:   0.295
 bond charge predicted
       N       E                     dE             d eps       ncg     rms          rms(c)
DAV:   1    -0.331741548086E+04   -0.54164E-03   -0.31324E-01  3776   0.454E-01    0.953E-02
DAV:   2    -0.331741596732E+04   -0.48646E-03   -0.67508E-03  3712   0.552E-02    0.542E-02
DAV:   3    -0.331741599208E+04   -0.24763E-04   -0.92585E-05  4256   0.938E-03    0.408E-02
DAV:   4    -0.331741610830E+04   -0.11622E-03   -0.10298E-04  3776   0.108E-02    0.885E-03
DAV:   5    -0.331741611240E+04   -0.40999E-05   -0.23327E-05  4000   0.445E-03    0.828E-03
DAV:   6    -0.331741611228E+04    0.12247E-06   -0.31722E-06  3456   0.198E-03
  77 F= -.33315275E+04 E0= -.33315275E+04  d E =-.122268E-02
 BRION: g(F)=  0.131E-02 g(S)=  0.000E+00 retain N=  2 mean eig= 0.61
 eig:   0.344  0.877
 bond charge predicted
       N       E                     dE             d eps       ncg     rms          rms(c)
DAV:   1    -0.331741630963E+04   -0.19723E-03   -0.98942E-03  3840   0.839E-02    0.174E-02
DAV:   2    -0.331741632469E+04   -0.15056E-04   -0.22712E-04  3744   0.107E-02    0.100E-02
DAV:   3    -0.331741632627E+04   -0.15814E-05   -0.32571E-06  3872   0.185E-03    0.756E-03
DAV:   4    -0.331741633074E+04   -0.44758E-05   -0.33499E-06  3360   0.214E-03    0.184E-03
DAV:   5    -0.331741633093E+04   -0.18289E-06   -0.63789E-07  2560   0.891E-04
  78 F= -.33315277E+04 E0= -.33315277E+04  d E =-.227240E-03
 BRION: g(F)=  0.120E-02 g(S)=  0.000E+00 retain N=  1 mean eig= 0.16
 eig:   0.165
 bond charge predicted
       N       E                     dE             d eps       ncg     rms          rms(c)
DAV:   1    -0.331741678495E+04   -0.45421E-03   -0.28939E-01  3776   0.453E-01    0.912E-02
DAV:   2    -0.331741725020E+04   -0.46524E-03   -0.63269E-03  3712   0.561E-02    0.535E-02
DAV:   3    -0.331741727256E+04   -0.22360E-04   -0.96207E-05  4256   0.979E-03    0.403E-02
DAV:   4    -0.331741736360E+04   -0.91037E-04   -0.99314E-05  3808   0.113E-02    0.985E-03
DAV:   5    -0.331741736992E+04   -0.63190E-05   -0.23572E-05  4032   0.476E-03    0.808E-03
DAV:   6    -0.331741737085E+04   -0.93877E-06   -0.40819E-06  3648   0.219E-03
  79 F= -.33315288E+04 E0= -.33315288E+04  d E =-.108972E-02
 BRION: g(F)=  0.238E-02 g(S)=  0.000E+00 retain N=  2 mean eig= 0.16
 eig:   0.161  0.161
 bond charge predicted
       N       E                     dE             d eps       ncg     rms          rms(c)
DAV:   1    -0.331741765717E+04   -0.28725E-03   -0.12924E-02  3616   0.120E-01    0.213E-02
DAV:   2    -0.331741767822E+04   -0.21055E-04   -0.31971E-04  4000   0.163E-02    0.161E-02
DAV:   3    -0.331741767764E+04    0.58732E-06   -0.89536E-06  4384   0.319E-03
  80 F= -.33315291E+04 E0= -.33315291E+04  d E =-.313281E-03
 BRION: g(F)=  0.120E-02 g(S)=  0.000E+00 retain N=  1 mean eig= 0.20
 eig:   0.200
 bond charge predicted
       N       E                     dE             d eps       ncg     rms          rms(c)
DAV:   1    -0.331741828956E+04   -0.61133E-03   -0.28517E-01  3776   0.431E-01    0.913E-02
DAV:   2    -0.331741871147E+04   -0.42191E-03   -0.60036E-03  3712   0.516E-02    0.522E-02
DAV:   3    -0.331741874278E+04   -0.31312E-04   -0.80970E-05  4288   0.873E-03    0.392E-02
DAV:   4    -0.331741884886E+04   -0.10609E-03   -0.92368E-05  3776   0.102E-02    0.838E-03
DAV:   5    -0.331741885185E+04   -0.29814E-05   -0.21150E-05  3968   0.420E-03    0.792E-03
DAV:   6    -0.331741885184E+04    0.25611E-08   -0.27945E-06  3456   0.185E-03
  81 F= -.33315303E+04 E0= -.33315303E+04  d E =-.121978E-02
 BRION: g(F)=  0.122E-02 g(S)=  0.000E+00 retain N=  2 mean eig= 1.20
 eig:   0.181  2.225
 bond charge predicted
       N       E                     dE             d eps       ncg     rms          rms(c)
DAV:   1    -0.331741781056E+04    0.10413E-02   -0.12641E-01  3776   0.287E-01    0.587E-02
DAV:   2    -0.331741799706E+04   -0.18650E-03   -0.26326E-03  3744   0.345E-02    0.338E-02
DAV:   3    -0.331741800727E+04   -0.10208E-04   -0.36261E-05  4256   0.583E-03    0.254E-02
DAV:   4    -0.331741805085E+04   -0.43581E-04   -0.42194E-05  3840   0.695E-03    0.556E-03
DAV:   5    -0.331741805250E+04   -0.16526E-05   -0.94851E-06  3968   0.283E-03    0.525E-03
DAV:   6    -0.331741805260E+04   -0.96508E-07   -0.11410E-06  3008   0.123E-03
  82 F= -.33315295E+04 E0= -.33315295E+04  d E =0.831658E-03
 BRION: g(F)=  0.144E-02 g(S)=  0.000E+00 retain N=  2 mean eig= 1.89
 eig:   3.363  0.415
 bond charge predicted
       N       E                     dE             d eps       ncg     rms          rms(c)
DAV:   1    -0.331741850068E+04   -0.44818E-03   -0.84585E-02  3744   0.246E-01    0.487E-02
DAV:   2    -0.331741862811E+04   -0.12742E-03   -0.18199E-03  3744   0.304E-02    0.292E-02
DAV:   3    -0.331741863564E+04   -0.75342E-05   -0.27961E-05  4288   0.530E-03    0.220E-02
DAV:   4    -0.331741866324E+04   -0.27602E-04   -0.30783E-05  3840   0.634E-03    0.527E-03
DAV:   5    -0.331741866484E+04   -0.16000E-05   -0.71546E-06  3776   0.260E-03    0.443E-03
DAV:   6    -0.331741866506E+04   -0.21607E-06   -0.10956E-06  2912   0.119E-03
  83 F= -.33315301E+04 E0= -.33315301E+04  d E =-.639009E-03
 BRION: g(F)=  0.160E-02 g(S)=  0.000E+00 retain N=  2 mean eig= 0.94
 eig:   0.011  1.872
 bond charge predicted
       N       E                     dE             d eps       ncg     rms          rms(c)
DAV:   1    -0.331741927694E+04   -0.61210E-03   -0.47171E-01  3776   0.554E-01    0.115E-01
DAV:   2    -0.331742001536E+04   -0.73842E-03   -0.10005E-02  3680   0.670E-02    0.648E-02
DAV:   3    -0.331742005434E+04   -0.38982E-04   -0.13613E-04  4224   0.113E-02    0.489E-02
DAV:   4    -0.331742019968E+04   -0.14534E-03   -0.15062E-04  3744   0.130E-02    0.110E-02
DAV:   5    -0.331742020495E+04   -0.52688E-05   -0.34335E-05  4000   0.539E-03    0.102E-02
DAV:   6    -0.331742020495E+04   -0.68685E-08   -0.52186E-06  3712   0.248E-03
  84 F= -.33315317E+04 E0= -.33315317E+04  d E =-.159985E-02
 BRION: g(F)=  0.123E-02 g(S)=  0.000E+00 retain N=  2 mean eig= 1.18
 eig:   0.207  2.162
 bond charge predicted
       N       E                     dE             d eps       ncg     rms          rms(c)
DAV:   1    -0.331742071783E+04   -0.51288E-03   -0.11448E-01  3776   0.272E-01    0.572E-02
DAV:   2    -0.331742089134E+04   -0.17351E-03   -0.24522E-03  3744   0.330E-02    0.317E-02
DAV:   3    -0.331742090456E+04   -0.13220E-04   -0.32240E-05  4224   0.550E-03    0.239E-02
DAV:   4    -0.331742094718E+04   -0.42619E-04   -0.34835E-05  3744   0.623E-03    0.524E-03
DAV:   5    -0.331742094819E+04   -0.10063E-05   -0.77156E-06  3936   0.257E-03    0.490E-03
DAV:   6    -0.331742094815E+04    0.44121E-07   -0.10853E-06  3040   0.119E-03
  85 F= -.33315325E+04 E0= -.33315325E+04  d E =-.771621E-03
 BRION: g(F)=  0.123E-02 g(S)=  0.000E+00 retain N=  3 mean eig= 1.35
 eig:   2.200  0.213  1.626
 bond charge predicted
       N       E                     dE             d eps       ncg     rms          rms(c)
DAV:   1    -0.331742132926E+04   -0.38107E-03   -0.48207E-02  3776   0.178E-01    0.370E-02
DAV:   2    -0.331742140380E+04   -0.74541E-04   -0.10399E-03  3744   0.217E-02    0.210E-02
DAV:   3    -0.331742140891E+04   -0.51168E-05   -0.14051E-05  4192   0.369E-03    0.158E-02
DAV:   4    -0.331742142534E+04   -0.16426E-04   -0.16309E-05  3616   0.437E-03    0.357E-03
DAV:   5    -0.331742142583E+04   -0.48848E-06   -0.35393E-06  3648   0.178E-03
  86 F= -.33315330E+04 E0= -.33315330E+04  d E =-.499103E-03
 BRION: g(F)=  0.123E-02 g(S)=  0.000E+00 retain N=  1 mean eig= 0.06
 eig:   0.056
 bond charge predicted
       N       E                     dE             d eps       ncg     rms          rms(c)
DAV:   1    -0.331742198314E+04   -0.55780E-03   -0.16951E-01  3904   0.333E-01    0.700E-02
DAV:   2    -0.331742224801E+04   -0.26487E-03   -0.36418E-03  3776   0.404E-02    0.391E-02
DAV:   3    -0.331742226560E+04   -0.17587E-04   -0.49267E-05  4256   0.676E-03    0.293E-02
DAV:   4    -0.331742231918E+04   -0.53584E-04   -0.51399E-05  3776   0.772E-03    0.655E-03
DAV:   5    -0.331742232122E+04   -0.20382E-05   -0.11787E-05  4000   0.319E-03    0.593E-03
DAV:   6    -0.331742232120E+04    0.18044E-07   -0.17028E-06  3104   0.148E-03
  87 F= -.33315339E+04 E0= -.33315339E+04  d E =-.925779E-03
 BRION: g(F)=  0.134E-02 g(S)=  0.000E+00 retain N=  2 mean eig= 0.41
 eig:   0.406  0.406
 bond charge predicted
       N       E                     dE             d eps       ncg     rms          rms(c)
DAV:   1    -0.331742254359E+04   -0.22237E-03   -0.12275E-02  3744   0.941E-02    0.194E-02
DAV:   2    -0.331742256406E+04   -0.20467E-04   -0.28098E-04  3744   0.119E-02    0.115E-02
DAV:   3    -0.331742256506E+04   -0.99931E-06   -0.42627E-06  3872   0.212E-03
  88 F= -.33315342E+04 E0= -.33315342E+04  d E =-.254998E-03
 BRION: g(F)=  0.120E-02 g(S)=  0.000E+00 retain N=  2 mean eig= 2.33
 eig:   0.281  4.374
 bond charge predicted
       N       E                     dE             d eps       ncg     rms          rms(c)
DAV:   1    -0.331742314089E+04   -0.57682E-03   -0.16676E-01  3776   0.329E-01    0.694E-02
DAV:   2    -0.331742339648E+04   -0.25560E-03   -0.34881E-03  3648   0.394E-02    0.394E-02
DAV:   3    -0.331742341170E+04   -0.15215E-04   -0.47438E-05  4256   0.667E-03    0.296E-02
DAV:   4    -0.331742346311E+04   -0.51412E-04   -0.51475E-05  3776   0.762E-03    0.636E-03
DAV:   5    -0.331742346451E+04   -0.14022E-05   -0.11566E-05  3936   0.313E-03    0.597E-03
DAV:   6    -0.331742346441E+04    0.96974E-07   -0.15737E-06  3232   0.141E-03
  89 F= -.33315351E+04 E0= -.33315351E+04  d E =-.937615E-03
 BRION: g(F)=  0.123E-02 g(S)=  0.000E+00 retain N=  2 mean eig= 0.45
 eig:   0.199  0.710
 bond charge predicted
       N       E                     dE             d eps       ncg     rms          rms(c)
DAV:   1    -0.331742392068E+04   -0.45617E-03   -0.77516E-02  3840   0.223E-01    0.467E-02
DAV:   2    -0.331742404531E+04   -0.12463E-03   -0.16498E-03  3744   0.270E-02    0.260E-02
DAV:   3    -0.331742405113E+04   -0.58190E-05   -0.21615E-05  4224   0.448E-03    0.196E-02
DAV:   4    -0.331742407375E+04   -0.22625E-04   -0.24205E-05  3616   0.517E-03    0.431E-03
DAV:   5    -0.331742407434E+04   -0.59057E-06   -0.53126E-06  3808   0.213E-03
  90 F= -.33315358E+04 E0= -.33315358E+04  d E =-.634366E-03
 BRION: g(F)=  0.121E-02 g(S)=  0.000E+00 retain N=  3 mean eig= 2.42
 eig:   6.136  0.199  0.921
 bond charge predicted
       N       E                     dE             d eps       ncg     rms          rms(c)
DAV:   1    -0.331742446132E+04   -0.38757E-03   -0.76367E-01  3904   0.700E-01    0.146E-01
DAV:   2    -0.331742571019E+04   -0.12489E-02   -0.16229E-02  3680   0.846E-02    0.822E-02
DAV:   3    -0.331742576215E+04   -0.51957E-04   -0.21624E-04  4224   0.142E-02    0.620E-02
DAV:   4    -0.331742595900E+04   -0.19685E-03   -0.23775E-04  3808   0.161E-02    0.140E-02
DAV:   5    -0.331742596499E+04   -0.59893E-05   -0.53091E-05  4000   0.666E-03    0.129E-02
DAV:   6    -0.331742596453E+04    0.45588E-06   -0.85559E-06  3872   0.313E-03
  91 F= -.33315377E+04 E0= -.33315377E+04  d E =-.196916E-02
 BRION: g(F)=  0.149E-02 g(S)=  0.000E+00 retain N=  2 mean eig= 4.98
 eig:   4.291  5.672
 bond charge predicted
       N       E                     dE             d eps       ncg     rms          rms(c)
DAV:   1    -0.331738707077E+04    0.38894E-01   -0.22064E+01  3904   0.375E+00    0.801E-01
DAV:   2    -0.331743205965E+04   -0.44989E-01   -0.52819E-01  3776   0.464E-01    0.444E-01
DAV:   3    -0.331743232714E+04   -0.26748E-03   -0.71911E-03  4224   0.813E-02    0.339E-01
DAV:   4    -0.331743552968E+04   -0.32025E-02   -0.75154E-03  3840   0.892E-02    0.100E-01
DAV:   5    -0.331743581148E+04   -0.28181E-03   -0.15842E-03  4000   0.393E-02    0.784E-02
DAV:   6    -0.331743584708E+04   -0.35600E-04   -0.36318E-04  4032   0.192E-02    0.401E-02
DAV:   7    -0.331743584000E+04    0.70818E-05   -0.55841E-05  4096   0.864E-03    0.267E-02
DAV:   8    -0.331743583500E+04    0.50009E-05   -0.61440E-05  3904   0.798E-03    0.676E-03
DAV:   9    -0.331743583626E+04   -0.12544E-05   -0.16640E-05  3904   0.358E-03    0.315E-03
DAV:  10    -0.331743583618E+04    0.75088E-07   -0.12125E-06  3328   0.120E-03
  92 F= -.33315480E+04 E0= -.33315480E+04  d E =-.102883E-01
 BRION: g(F)=  0.131E-02 g(S)=  0.000E+00 retain N=  2 mean eig= 3.28
 eig:   0.315  6.250
 bond charge predicted
       N       E                     dE             d eps       ncg     rms          rms(c)
DAV:   1    -0.331740898507E+04    0.26851E-01   -0.10068E+01  3904   0.255E+00    0.529E-01
DAV:   2    -0.331742725209E+04   -0.18267E-01   -0.22031E-01  3744   0.307E-01    0.296E-01
DAV:   3    -0.331742754930E+04   -0.29722E-03   -0.29414E-03  4224   0.506E-02    0.224E-01
DAV:   4    -0.331742919218E+04   -0.16429E-02   -0.31516E-03  3840   0.598E-02    0.501E-02
DAV:   5    -0.331742927252E+04   -0.80340E-04   -0.71323E-04  4000   0.257E-02    0.451E-02
DAV:   6    -0.331742925900E+04    0.13522E-04   -0.90567E-05  4160   0.104E-02    0.260E-02
DAV:   7    -0.331742925693E+04    0.20755E-05   -0.48644E-05  3904   0.700E-03    0.904E-03
DAV:   8    -0.331742925749E+04   -0.56042E-06   -0.12277E-05  4128   0.336E-03    0.340E-03
DAV:   9    -0.331742925732E+04    0.16810E-06   -0.11114E-06  2944   0.123E-03
  93 F= -.33315412E+04 E0= -.33315412E+04  d E =0.686527E-02
 BRION: g(F)=  0.188E-02 g(S)=  0.000E+00 retain N=  2 mean eig= 3.31
 eig:   6.578  0.042
 bond charge predicted
       N       E                     dE             d eps       ncg     rms          rms(c)
DAV:   1    -0.331741582381E+04    0.13434E-01   -0.96321E+00  3904   0.249E+00    0.523E-01
DAV:   2    -0.331743343861E+04   -0.17615E-01   -0.21574E-01  3744   0.303E-01    0.291E-01
DAV:   3    -0.331743375813E+04   -0.31952E-03   -0.29115E-03  4224   0.518E-02    0.221E-01
DAV:   4    -0.331743558664E+04   -0.18285E-02   -0.31732E-03  3840   0.582E-02    0.578E-02
DAV:   5    -0.331743567217E+04   -0.85535E-04   -0.68509E-04  4000   0.248E-02    0.492E-02
DAV:   6    -0.331743567188E+04    0.29325E-06   -0.13837E-04  4032   0.121E-02    0.250E-02
DAV:   7    -0.331743567048E+04    0.13990E-05   -0.25990E-05  4128   0.550E-03    0.155E-02
DAV:   8    -0.331743566900E+04    0.14765E-05   -0.20499E-05  3872   0.475E-03    0.425E-03
DAV:   9    -0.331743566949E+04   -0.48941E-06   -0.56743E-06  3712   0.218E-03
  94 F= -.33315479E+04 E0= -.33315479E+04  d E =-.669663E-02
 BRION: g(F)=  0.176E-02 g(S)=  0.000E+00 retain N=  3 mean eig= 2.98
 eig:   5.942  0.355  2.640
 bond charge predicted
       N       E                     dE             d eps       ncg     rms          rms(c)
DAV:   1    -0.331743037702E+04    0.52920E-02   -0.47245E+00  3904   0.175E+00    0.363E-01
DAV:   2    -0.331743856977E+04   -0.81928E-02   -0.10290E-01  3712   0.212E-01    0.204E-01
DAV:   3    -0.331743882798E+04   -0.25821E-03   -0.13885E-03  4192   0.360E-02    0.154E-01
DAV:   4    -0.331743979368E+04   -0.96570E-03   -0.15802E-03  3840   0.412E-02    0.387E-02
DAV:   5    -0.331743982775E+04   -0.34070E-04   -0.33969E-04  4000   0.172E-02    0.341E-02
DAV:   6    -0.331743982563E+04    0.21197E-05   -0.65453E-05  4000   0.839E-03    0.170E-02
DAV:   7    -0.331743982535E+04    0.28370E-06   -0.13370E-05  4128   0.383E-03    0.100E-02
DAV:   8    -0.331743982473E+04    0.61805E-06   -0.85657E-06  3872   0.314E-03
  95 F= -.33315522E+04 E0= -.33315522E+04  d E =-.435899E-02
 BRION: g(F)=  0.165E-02 g(S)=  0.000E+00 retain N=  3 mean eig= 2.45
 eig:   6.175  0.117  1.072
 bond charge predicted
       N       E                     dE             d eps       ncg     rms          rms(c)
DAV:   1    -0.331742820845E+04    0.11617E-01   -0.40098E+00  3904   0.161E+00    0.333E-01
DAV:   2    -0.331743514010E+04   -0.69317E-02   -0.85504E-02  3712   0.194E-01    0.187E-01
DAV:   3    -0.331743529409E+04   -0.15399E-03   -0.11451E-03  4256   0.320E-02    0.141E-01
DAV:   4    -0.331743603355E+04   -0.73946E-03   -0.12493E-03  3840   0.375E-02    0.305E-02
DAV:   5    -0.331743605780E+04   -0.24246E-04   -0.28450E-04  3968   0.158E-02    0.283E-02
DAV:   6    -0.331743604963E+04    0.81720E-05   -0.36148E-05  4160   0.658E-03    0.155E-02
DAV:   7    -0.331743604919E+04    0.43702E-06   -0.21927E-05  3872   0.452E-03    0.490E-03
DAV:   8    -0.331743604934E+04   -0.14831E-06   -0.39170E-06  3680   0.196E-03
  96 F= -.33315483E+04 E0= -.33315483E+04  d E =0.396019E-02
 BRION: g(F)=  0.136E-02 g(S)=  0.000E+00 retain N=  3 mean eig= 2.18
 eig:   5.161  1.093  0.275
 bond charge predicted
       N       E                     dE             d eps       ncg     rms          rms(c)
DAV:   1    -0.331740978972E+04    0.26259E-01   -0.15593E+01  3904   0.317E+00    0.673E-01
DAV:   2    -0.331744054308E+04   -0.30753E-01   -0.36493E-01  3776   0.391E-01    0.370E-01
DAV:   3    -0.331744072496E+04   -0.18188E-03   -0.49566E-03  4256   0.676E-02    0.281E-01
DAV:   4    -0.331744316268E+04   -0.24377E-02   -0.52283E-03  3840   0.749E-02    0.786E-02
DAV:   5    -0.331744333730E+04   -0.17462E-03   -0.11121E-03  4032   0.324E-02    0.642E-02
DAV:   6    -0.331744335056E+04   -0.13262E-04   -0.24475E-04  4000   0.160E-02    0.329E-02
DAV:   7    -0.331744334817E+04    0.23947E-05   -0.40797E-05  4128   0.711E-03    0.213E-02
DAV:   8    -0.331744334531E+04    0.28572E-05   -0.40010E-05  3904   0.655E-03    0.556E-03
DAV:   9    -0.331744334619E+04   -0.88068E-06   -0.10997E-05  3872   0.297E-03    0.266E-03
DAV:  10    -0.331744334611E+04    0.75903E-07   -0.79790E-07  2976   0.102E-03
  97 F= -.33315559E+04 E0= -.33315559E+04  d E =-.766656E-02
 BRION: g(F)=  0.129E-02 g(S)=  0.000E+00 retain N=  4 mean eig= 3.49
 eig:   4.261  4.261  2.712  2.712
 bond charge predicted
       N       E                     dE             d eps       ncg     rms          rms(c)
DAV:   1    -0.331703738499E+04    0.40596E+00   -0.12711E+02  3904   0.905E+00    0.210E+00
DAV:   2    -0.331745790093E+04   -0.42052E+00   -0.45485E+00  3904   0.125E+00    0.114E+00
DAV:   3    -0.331745332584E+04    0.45751E-02   -0.64839E-02  4160   0.239E-01    0.874E-01
DAV:   4    -0.331745794039E+04   -0.46145E-02   -0.59638E-02  3936   0.260E-01    0.389E-01
DAV:   5    -0.331745916104E+04   -0.12207E-02   -0.11672E-02  4064   0.120E-01    0.252E-01
[...]
DAV:   4    -0.331746097801E+04    0.14591E-05   -0.15452E-05  3808   0.488E-03    0.533E-03
DAV:   5    -0.331746097862E+04   -0.61013E-06   -0.32959E-06  3264   0.214E-03
 123 F= -.33315750E+04 E0= -.33315750E+04  d E =-.291042E-03
 BRION: g(F)=  0.586E-03 g(S)=  0.000E+00 retain N=  1 mean eig= 0.20
 eig:   0.198
 bond charge predicted
       N       E                     dE             d eps       ncg     rms          rms(c)
DAV:   1    -0.331746123818E+04   -0.26017E-03   -0.12983E-01  3840   0.295E-01    0.605E-02
DAV:   2    -0.331746145386E+04   -0.21568E-03   -0.27642E-03  3776   0.366E-02    0.354E-02
DAV:   3    -0.331746145898E+04   -0.51196E-05   -0.40219E-05  4256   0.617E-03    0.269E-02
DAV:   4    -0.331746148882E+04   -0.29841E-04   -0.47044E-05  3808   0.739E-03    0.747E-03
DAV:   5    -0.331746148970E+04   -0.88091E-06   -0.10119E-05  4032   0.306E-03    0.650E-03
DAV:   6    -0.331746148979E+04   -0.89523E-07   -0.26218E-06  3328   0.170E-03
 124 F= -.33315755E+04 E0= -.33315755E+04  d E =-.557367E-03
 BRION: g(F)=  0.779E-03 g(S)=  0.000E+00 retain N=  2 mean eig= 0.14
 eig:   0.207  0.083
 bond charge predicted
       N       E                     dE             d eps       ncg     rms          rms(c)
DAV:   1    -0.331746159024E+04   -0.10054E-03   -0.49075E-03  3680   0.669E-02    0.133E-02
DAV:   2    -0.331746159875E+04   -0.85153E-05   -0.11715E-04  3936   0.887E-03    0.848E-03
DAV:   3    -0.331746159880E+04   -0.50641E-07   -0.21286E-06  3424   0.162E-03
 125 F= -.33315756E+04 E0= -.33315756E+04  d E =-.117473E-03
 BRION: g(F)=  0.565E-03 g(S)=  0.000E+00 retain N=  1 mean eig= 0.24
 eig:   0.241
 bond charge predicted
       N       E                     dE             d eps       ncg     rms          rms(c)
DAV:   1    -0.331746187286E+04   -0.27411E-03   -0.13386E-01  3904   0.296E-01    0.615E-02
DAV:   2    -0.331746208880E+04   -0.21594E-03   -0.27901E-03  3776   0.360E-02    0.357E-02
DAV:   3    -0.331746209543E+04   -0.66244E-05   -0.39761E-05  4256   0.601E-03    0.271E-02
DAV:   4    -0.331746212711E+04   -0.31684E-04   -0.46005E-05  3808   0.711E-03    0.732E-03
DAV:   5    -0.331746212794E+04   -0.82818E-06   -0.99062E-06  4032   0.293E-03
 126 F= -.33315762E+04 E0= -.33315762E+04  d E =-.576615E-03
 BRION: g(F)=  0.575E-03 g(S)=  0.000E+00 retain N=  2 mean eig= 0.23
 eig:   0.232  0.232
 bond charge predicted
       N       E                     dE             d eps       ncg     rms          rms(c)
DAV:   1    -0.331746232625E+04   -0.19914E-03   -0.39704E-02  3840   0.166E-01    0.356E-02
DAV:   2    -0.331746239428E+04   -0.68028E-04   -0.88946E-04  3808   0.209E-02    0.200E-02
DAV:   3    -0.331746239684E+04   -0.25568E-05   -0.13310E-05  4256   0.363E-03    0.151E-02
DAV:   4    -0.331746240720E+04   -0.10363E-04   -0.12824E-05  3648   0.410E-03    0.430E-03
DAV:   5    -0.331746240757E+04   -0.36776E-06   -0.26647E-06  3744   0.173E-03
 127 F= -.33315765E+04 E0= -.33315765E+04  d E =-.303808E-03
 BRION: g(F)=  0.603E-03 g(S)=  0.000E+00 retain N=  2 mean eig= 4.11
 eig:   0.282  7.930
 bond charge predicted
       N       E                     dE             d eps       ncg     rms          rms(c)
DAV:   1    -0.331746257837E+04   -0.17117E-03   -0.27781E-01  3904   0.431E-01    0.889E-02
DAV:   2    -0.331746304912E+04   -0.47075E-03   -0.59432E-03  3776   0.534E-02    0.513E-02
DAV:   3    -0.331746306005E+04   -0.10936E-04   -0.86368E-05  4256   0.895E-03    0.390E-02
DAV:   4    -0.331746311832E+04   -0.58269E-04   -0.95931E-05  3776   0.106E-02    0.112E-02
DAV:   5    -0.331746311998E+04   -0.16604E-05   -0.20988E-05  4032   0.440E-03    0.960E-03
DAV:   6    -0.331746311986E+04    0.12189E-06   -0.59270E-06  3680   0.254E-03
 128 F= -.33315773E+04 E0= -.33315773E+04  d E =-.778293E-03
 BRION: g(F)=  0.949E-03 g(S)=  0.000E+00 retain N=  2 mean eig= 0.14
 eig:   0.192  0.080
 bond charge predicted
       N       E                     dE             d eps       ncg     rms          rms(c)
DAV:   1    -0.331746280215E+04    0.31783E-03   -0.41677E-02  3840   0.175E-01    0.331E-02
DAV:   2    -0.331746287233E+04   -0.70175E-04   -0.87703E-04  3904   0.220E-02    0.208E-02
DAV:   3    -0.331746287098E+04    0.13491E-05   -0.14427E-05  4256   0.374E-03    0.158E-02
DAV:   4    -0.331746287657E+04   -0.55890E-05   -0.16961E-05  3680   0.474E-03    0.439E-03
DAV:   5    -0.331746287725E+04   -0.68895E-06   -0.40833E-06  3872   0.196E-03
 129 F= -.33315770E+04 E0= -.33315770E+04  d E =0.267702E-03
 BRION: g(F)=  0.537E-03 g(S)=  0.000E+00 retain N=  1 mean eig= 0.18
 eig:   0.176
 bond charge predicted
       N       E                     dE             d eps       ncg     rms          rms(c)
DAV:   1    -0.331746313262E+04   -0.25606E-03   -0.11848E-01  3840   0.278E-01    0.559E-02
DAV:   2    -0.331746333116E+04   -0.19854E-03   -0.24736E-03  3808   0.340E-02    0.327E-02
DAV:   3    -0.331746333381E+04   -0.26544E-05   -0.34997E-05  4224   0.563E-03    0.250E-02
DAV:   4    -0.331746335595E+04   -0.22136E-04   -0.44378E-05  3808   0.696E-03    0.688E-03
DAV:   5    -0.331746335663E+04   -0.68394E-06   -0.95866E-06  4000   0.284E-03
 130 F= -.33315776E+04 E0= -.33315776E+04  d E =-.524675E-03
 BRION: g(F)=  0.523E-03 g(S)=  0.000E+00 retain N=  2 mean eig= 0.29
 eig:   0.151  0.421
 bond charge predicted
       N       E                     dE             d eps       ncg     rms          rms(c)
DAV:   1    -0.331746356621E+04   -0.21026E-03   -0.69300E-02  3904   0.217E-01    0.468E-02
DAV:   2    -0.331746368624E+04   -0.12003E-03   -0.15396E-03  3872   0.272E-02    0.261E-02
DAV:   3    -0.331746368942E+04   -0.31855E-05   -0.22819E-05  4224   0.462E-03    0.197E-02
DAV:   4    -0.331746370549E+04   -0.16064E-04   -0.21566E-05  3712   0.522E-03    0.543E-03
DAV:   5    -0.331746370619E+04   -0.69826E-06   -0.48117E-06  3936   0.218E-03
 131 F= -.33315779E+04 E0= -.33315779E+04  d E =-.378700E-03
 BRION: g(F)=  0.601E-03 g(S)=  0.000E+00 retain N=  3 mean eig= 2.70
 eig:   0.134  5.724  2.230
 bond charge predicted
       N       E                     dE             d eps       ncg     rms          rms(c)
DAV:   1    -0.331741433357E+04    0.49372E-01   -0.23658E+01  3904   0.391E+00    0.867E-01
DAV:   2    -0.331746658165E+04   -0.52248E-01   -0.60778E-01  3904   0.498E-01    0.484E-01
DAV:   3    -0.331746650786E+04    0.73793E-04   -0.86592E-03  4128   0.903E-02    0.372E-01
DAV:   4    -0.331746934221E+04   -0.28344E-02   -0.10098E-02  3872   0.104E-01    0.143E-01
DAV:   5    -0.331746947143E+04   -0.12922E-03   -0.20382E-03  4064   0.464E-02    0.105E-01
DAV:   6    -0.331746955257E+04   -0.81134E-04   -0.69811E-04  3936   0.260E-02    0.456E-02
DAV:   7    -0.331746953496E+04    0.17611E-04   -0.93949E-05  4064   0.104E-02    0.324E-02
DAV:   8    -0.331746952279E+04    0.12167E-04   -0.84923E-05  3968   0.927E-03    0.888E-03
DAV:   9    -0.331746952516E+04   -0.23725E-05   -0.24531E-05  3936   0.420E-03    0.365E-03
DAV:  10    -0.331746952499E+04    0.17649E-06   -0.13227E-06  3328   0.130E-03
 132 F= -.33315843E+04 E0= -.33315843E+04  d E =-.641000E-02
 BRION: g(F)=  0.102E-02 g(S)=  0.000E+00 retain N=  3 mean eig= 5.61
 eig:   7.396  7.396  2.047
 bond charge predicted
       N       E                     dE             d eps       ncg     rms          rms(c)
DAV:   1    -0.331746920483E+04    0.32033E-03   -0.43379E-02  3616   0.220E-01    0.401E-02
DAV:   2    -0.331746929370E+04   -0.88869E-04   -0.11336E-03  4000   0.304E-02    0.300E-02
DAV:   3    -0.331746928669E+04    0.70115E-05   -0.30834E-05  4416   0.591E-03    0.223E-02
DAV:   4    -0.331746928239E+04    0.43046E-05   -0.23562E-05  3904   0.641E-03    0.759E-03
DAV:   5    -0.331746928379E+04   -0.14002E-05   -0.84503E-06  4000   0.306E-03    0.394E-03
DAV:   6    -0.331746928361E+04    0.17521E-06   -0.15409E-06  2880   0.156E-03
 133 F= -.33315841E+04 E0= -.33315841E+04  d E =0.252945E-03
 BRION: g(F)=  0.198E-02 g(S)=  0.000E+00 retain N=  3 mean eig= 1.91
 eig:   5.061  0.666  0.004
 bond charge predicted
       N       E                     dE             d eps       ncg     rms          rms(c)
DAV:   1    -0.331744953747E+04    0.19746E-01   -0.86600E+00  3904   0.239E+00    0.483E-01
DAV:   2    -0.331746462297E+04   -0.15086E-01   -0.18036E-01  3808   0.291E-01    0.283E-01
DAV:   3    -0.331746474455E+04   -0.12158E-03   -0.26327E-03  4288   0.469E-02    0.214E-01
DAV:   4    -0.331746596880E+04   -0.12242E-02   -0.25278E-03  3776   0.534E-02    0.473E-02
DAV:   5    -0.331746604593E+04   -0.77134E-04   -0.58446E-04  4064   0.227E-02    0.436E-02
DAV:   6    -0.331746602050E+04    0.25429E-04   -0.10476E-04  4064   0.109E-02    0.240E-02
DAV:   7    -0.331746601441E+04    0.60879E-05   -0.38772E-05  4064   0.603E-03    0.123E-02
DAV:   8    -0.331746601382E+04    0.59290E-06   -0.13430E-05  3936   0.374E-03    0.420E-03
DAV:   9    -0.331746601392E+04   -0.10384E-06   -0.18227E-06  3424   0.169E-03
 134 F= -.33315805E+04 E0= -.33315805E+04  d E =0.361975E-02
 BRION: g(F)=  0.863E-03 g(S)=  0.000E+00 retain N=  2 mean eig= 0.40
 eig:   0.397  0.397
 bond charge predicted
       N       E                     dE             d eps       ncg     rms          rms(c)
DAV:   1    -0.331746030994E+04    0.57039E-02   -0.40144E+00  3904   0.162E+00    0.343E-01
DAV:   2    -0.331746756699E+04   -0.72571E-02   -0.89488E-02  3872   0.200E-01    0.194E-01
DAV:   3    -0.331746766384E+04   -0.96848E-04   -0.12726E-03  4160   0.343E-02    0.148E-01
DAV:   4    -0.331746841449E+04   -0.75065E-03   -0.15043E-03  3840   0.403E-02    0.471E-02
DAV:   5    -0.331746842734E+04   -0.12841E-04   -0.31821E-04  4032   0.170E-02    0.395E-02
DAV:   6    -0.331746842502E+04    0.23179E-05   -0.96713E-05  3968   0.100E-02    0.178E-02
DAV:   7    -0.331746842267E+04    0.23481E-05   -0.15723E-05  4064   0.411E-03    0.123E-02
DAV:   8    -0.331746842088E+04    0.17905E-05   -0.13387E-05  3904   0.377E-03    0.361E-03
DAV:   9    -0.331746842138E+04   -0.50315E-06   -0.37039E-06  3680   0.170E-03
 135 F= -.33315831E+04 E0= -.33315831E+04  d E =-.265536E-02
 BRION: g(F)=  0.390E-03 g(S)=  0.000E+00 retain N=  3 mean eig= 1.25
 eig:   0.634  0.634  2.471
 bond charge predicted
       N       E                     dE             d eps       ncg     rms          rms(c)
DAV:   1    -0.331746856924E+04   -0.14836E-03   -0.10545E-01  3904   0.268E-01    0.543E-02
DAV:   2    -0.331746875146E+04   -0.18222E-03   -0.22603E-03  3872   0.333E-02    0.321E-02
DAV:   3    -0.331746875323E+04   -0.17763E-05   -0.33086E-05  4160   0.560E-03    0.245E-02
DAV:   4    -0.331746877222E+04   -0.18984E-04   -0.40418E-05  3808   0.693E-03    0.689E-03
DAV:   5    -0.331746877286E+04   -0.64576E-06   -0.86282E-06  4000   0.282E-03
 136 F= -.33315835E+04 E0= -.33315835E+04  d E =-.393406E-03
 BRION: g(F)=  0.405E-03 g(S)=  0.000E+00 retain N=  3 mean eig= 1.45
 eig:   1.853  1.853  0.641
 bond charge predicted
       N       E                     dE             d eps       ncg     rms          rms(c)
DAV:   1    -0.331746689914E+04    0.18731E-02   -0.15934E+00  3904   0.103E+00    0.216E-01
DAV:   2    -0.331746972587E+04   -0.28267E-02   -0.34975E-02  3808   0.127E-01    0.123E-01
DAV:   3    -0.331746977181E+04   -0.45942E-04   -0.49706E-04  4192   0.215E-02    0.940E-02
DAV:   4    -0.331747007311E+04   -0.30130E-03   -0.58636E-04  3808   0.253E-02    0.285E-02
DAV:   5    -0.331747007712E+04   -0.40088E-05   -0.12308E-04  4032   0.106E-02    0.243E-02
DAV:   6    -0.331747007542E+04    0.17025E-05   -0.37357E-05  3936   0.626E-03    0.108E-02
DAV:   7    -0.331747007465E+04    0.76997E-06   -0.60669E-06  4096   0.256E-03
 137 F= -.33315850E+04 E0= -.33315850E+04  d E =-.146592E-02
 BRION: g(F)=  0.381E-03 g(S)=  0.000E+00 retain N=  4 mean eig= 4.47
 eig:   7.923  7.923  1.015  1.015
 bond charge predicted
       N       E                     dE             d eps       ncg     rms          rms(c)
DAV:   1    -0.331739112740E+04    0.78948E-01   -0.33494E+01  3904   0.469E+00    0.106E+00
DAV:   2    -0.331747167953E+04   -0.80552E-01   -0.91850E-01  3904   0.605E-01    0.585E-01
DAV:   3    -0.331747136564E+04    0.31389E-03   -0.13245E-02  4160   0.112E-01    0.450E-01
DAV:   4    -0.331747426220E+04   -0.28966E-02   -0.15447E-02  3872   0.131E-01    0.183E-01
DAV:   5    -0.331747433713E+04   -0.74939E-04   -0.30828E-03  4096   0.579E-02    0.132E-01
DAV:   6    -0.331747452107E+04   -0.18394E-03   -0.11287E-03  3936   0.333E-02    0.557E-02
DAV:   7    -0.331747450009E+04    0.20982E-04   -0.15272E-04  4032   0.131E-02    0.395E-02
DAV:   8    -0.331747448452E+04    0.15567E-04   -0.12232E-04  3968   0.112E-02    0.113E-02
DAV:   9    -0.331747448798E+04   -0.34573E-05   -0.35609E-05  3968   0.512E-03    0.442E-03
DAV:  10    -0.331747448772E+04    0.26054E-06   -0.21160E-06  3648   0.162E-03
 138 F= -.33315901E+04 E0= -.33315901E+04  d E =-.514323E-02
 BRION: g(F)=  0.716E-03 g(S)=  0.000E+00 retain N=  3 mean eig= 4.86
 eig:   0.695  6.941  6.941
 bond charge predicted
       N       E                     dE             d eps       ncg     rms          rms(c)
DAV:   1    -0.331744013574E+04    0.34352E-01   -0.16105E+01  3904   0.328E+00    0.661E-01
DAV:   2    -0.331746945021E+04   -0.29314E-01   -0.34338E-01  3872   0.400E-01    0.388E-01
DAV:   3    -0.331746970302E+04   -0.25280E-03   -0.50768E-03  4288   0.646E-02    0.293E-01
DAV:   4    -0.331747149164E+04   -0.17886E-02   -0.45335E-03  3776   0.724E-02    0.640E-02
DAV:   5    -0.331747168420E+04   -0.19255E-03   -0.11009E-03  4064   0.320E-02    0.565E-02
DAV:   6    -0.331747163696E+04    0.47234E-04   -0.17780E-04  4096   0.147E-02    0.321E-02
DAV:   7    -0.331747162544E+04    0.11525E-04   -0.78666E-05  4032   0.861E-03    0.150E-02
DAV:   8    -0.331747162496E+04    0.47963E-06   -0.20977E-05  3936   0.459E-03    0.527E-03
DAV:   9    -0.331747162488E+04    0.75204E-07   -0.24735E-06  3776   0.210E-03
 139 F= -.33315868E+04 E0= -.33315868E+04  d E =0.335733E-02
 BRION: g(F)=  0.134E-02 g(S)=  0.000E+00 retain N=  1 mean eig= 1.06
 eig:   1.059
 bond charge predicted
       N       E                     dE             d eps       ncg     rms          rms(c)
DAV:   1    -0.331745940747E+04    0.12217E-01   -0.67454E+00  3840   0.212E+00    0.453E-01
DAV:   2    -0.331747245462E+04   -0.13047E-01   -0.15625E-01  3872   0.267E-01    0.259E-01
DAV:   3    -0.331747251599E+04   -0.61370E-04   -0.22818E-03  4192   0.468E-02    0.198E-01
DAV:   4    -0.331747350934E+04   -0.99335E-03   -0.27987E-03  3808   0.560E-02    0.671E-02
DAV:   5    -0.331747353166E+04   -0.22322E-04   -0.57092E-04  4064   0.235E-02    0.545E-02
DAV:   6    -0.331747353475E+04   -0.30838E-05   -0.19089E-04  3968   0.141E-02    0.234E-02
DAV:   7    -0.331747353136E+04    0.33901E-05   -0.28763E-05  4064   0.566E-03    0.166E-02
DAV:   8    -0.331747352786E+04    0.34953E-05   -0.23754E-05  3936   0.505E-03    0.509E-03
DAV:   9    -0.331747352871E+04   -0.85414E-06   -0.66651E-06  3840   0.226E-03
 140 F= -.33315890E+04 E0= -.33315890E+04  d E =-.223910E-02
 BRION: g(F)=  0.183E-02 g(S)=  0.000E+00 retain N=  2 mean eig= 0.68
 eig:   1.122  0.243
 bond charge predicted
       N       E                     dE             d eps       ncg     rms          rms(c)
DAV:   1    -0.331747372849E+04   -0.20063E-03   -0.16948E-02  3648   0.147E-01    0.261E-02
DAV:   2    -0.331747376553E+04   -0.37036E-04   -0.50036E-04  4128   0.214E-02    0.229E-02
DAV:   3    -0.331747376028E+04    0.52445E-05   -0.16891E-05  4480   0.434E-03    0.175E-02
DAV:   4    -0.331747375501E+04    0.52773E-05   -0.14280E-05  3840   0.482E-03    0.664E-03
DAV:   5    -0.331747375545E+04   -0.44762E-06   -0.58808E-06  3904   0.257E-03
 141 F= -.33315892E+04 E0= -.33315892E+04  d E =-.230691E-03
 BRION: g(F)=  0.163E-03 g(S)=  0.000E+00 retain N=  2 mean eig= 1.64
 eig:   0.240  3.042
 bond charge predicted
       N       E                     dE             d eps       ncg     rms          rms(c)
DAV:   1    -0.331747367724E+04    0.77770E-04   -0.15365E-01  3808   0.335E-01    0.683E-02
DAV:   2    -0.331747394908E+04   -0.27184E-03   -0.34385E-03  3904   0.422E-02    0.403E-02
DAV:   3    -0.331747395097E+04   -0.18935E-05   -0.53854E-05  4224   0.754E-03    0.305E-02
DAV:   4    -0.331747398225E+04   -0.31279E-04   -0.62042E-05  3840   0.906E-03    0.907E-03
DAV:   5    -0.331747398386E+04   -0.16057E-05   -0.14212E-05  4032   0.388E-03    0.736E-03
DAV:   6    -0.331747398393E+04   -0.69849E-07   -0.42652E-06  3520   0.229E-03
 142 F= -.33315895E+04 E0= -.33315895E+04  d E =-.280309E-03
 BRION: g(F)=  0.349E-03 g(S)=  0.000E+00 retain N=  3 mean eig= 1.21
 eig:   2.946  0.429  0.263
 bond charge predicted
       N       E                     dE             d eps       ncg     rms          rms(c)
DAV:   1    -0.331747405143E+04   -0.67575E-04   -0.19909E-02  3744   0.128E-01    0.266E-02
DAV:   2    -0.331747408731E+04   -0.35876E-04   -0.48150E-04  3968   0.168E-02    0.167E-02
DAV:   3    -0.331747408765E+04   -0.33970E-06   -0.90464E-06  4192   0.323E-03
 143 F= -.33315896E+04 E0= -.33315896E+04  d E =-.121606E-03
 BRION: g(F)=  0.144E-03 g(S)=  0.000E+00 retain N=  1 mean eig= 0.25
 eig:   0.253
 bond charge predicted
       N       E                     dE             d eps       ncg     rms          rms(c)
DAV:   1    -0.331747411121E+04   -0.23901E-04   -0.28260E-02  3712   0.158E-01    0.327E-02
DAV:   2    -0.331747415723E+04   -0.46023E-04   -0.64506E-04  3840   0.202E-02    0.210E-02
DAV:   3    -0.331747415727E+04   -0.37486E-07   -0.14895E-05  4256   0.400E-03    0.154E-02
DAV:   4    -0.331747416309E+04   -0.58163E-05   -0.99318E-06  3712   0.394E-03    0.514E-03
DAV:   5    -0.331747416445E+04   -0.13637E-05   -0.29257E-06  3744   0.181E-03    0.305E-03
DAV:   6    -0.331747416448E+04   -0.30617E-07   -0.64583E-07  2528   0.105E-03
 144 F= -.33315897E+04 E0= -.33315897E+04  d E =-.982658E-04
 BRION: g(F)=  0.411E-03 g(S)=  0.000E+00 retain N=  2 mean eig= 0.25
 eig:   0.255  0.255
 bond charge predicted
       N       E                     dE             d eps       ncg     rms          rms(c)
DAV:   1    -0.331747421159E+04   -0.47136E-04   -0.29678E-03  3680   0.614E-02    0.111E-02
DAV:   2    -0.331747421764E+04   -0.60542E-05   -0.83687E-05  4064   0.885E-03    0.963E-03
DAV:   3    -0.331747421689E+04    0.74587E-06   -0.25724E-06  3424   0.183E-03
 145 F= -.33315898E+04 E0= -.33315898E+04  d E =-.582435E-04
 BRION: g(F)=  0.125E-03 g(S)=  0.000E+00 retain N=  1 mean eig= 0.21
 eig:   0.211
 bond charge predicted
       N       E                     dE             d eps       ncg     rms          rms(c)
DAV:   1    -0.331747425723E+04   -0.39594E-04   -0.24831E-02  3744   0.141E-01    0.286E-02
DAV:   2    -0.331747430048E+04   -0.43243E-04   -0.57174E-04  3936   0.179E-02    0.183E-02
DAV:   3    -0.331747430091E+04   -0.43248E-06   -0.97553E-06  4224   0.334E-03
 146 F= -.33315899E+04 E0= -.33315899E+04  d E =-.105490E-03
 BRION: g(F)=  0.177E-03 g(S)=  0.000E+00 retain N=  2 mean eig= 0.18
 eig:   0.238  0.114
 bond charge predicted
       N       E                     dE             d eps       ncg     rms          rms(c)
DAV:   1    -0.331747433515E+04   -0.34673E-04   -0.20777E-03  3680   0.459E-02    0.116E-02
DAV:   2    -0.331747433758E+04   -0.24253E-05   -0.50953E-05  4064   0.635E-03    0.804E-03
DAV:   3    -0.331747433757E+04    0.18626E-08   -0.34399E-06  3776   0.198E-03
 147 F= -.33315899E+04 E0= -.33315899E+04  d E =-.420556E-04
 BRION: g(F)=  0.116E-03 g(S)=  0.000E+00 retain N=  1 mean eig= 0.27
 eig:   0.274
 bond charge predicted
       N       E                     dE             d eps       ncg     rms          rms(c)
DAV:   1    -0.331747438302E+04   -0.45449E-04   -0.23264E-02  3776   0.135E-01    0.288E-02
