 running  256 mpi-ranks, with    1 threads/rank, on    7 nodes
 distrk:  each k-point on  128 cores,    2 groups
 distr:  one band on    4 cores,   32 groups
 vasp.6.4.1 05Apr23 (build May 18 2023 13:19:41) complex                         
 POSCAR found type information on POSCAR C S O 
 POSCAR found :  3 types and     366 ions
 Reading from existing POTCAR
 scaLAPACK will be used
 Reading from existing POTCAR
 -----------------------------------------------------------------------------
|                                                                             |
|               ----> ADVICE to this user running VASP <----                  |
|                                                                             |
|     You have a (more or less) 'large supercell' and for larger cells it     |
|     might be more efficient to use real-space projection operators.         |
|     Therefore, try LREAL= Auto in the INCAR file.                           |
|     Mind: If you want to do very accurate calculations, keep the            |
|     reciprocal projection scheme (i.e. LREAL=.FALSE.).                      |
|                                                                             |
 -----------------------------------------------------------------------------

 LDA part: xc-table for Pade appr. of Perdew
 POSCAR, INCAR and KPOINTS ok, starting setup
 FFT: planning ... GRIDC
 FFT: planning ... GRID_SOFT
 FFT: planning ... GRID
 WAVECAR not read
 charge-density read from file: 01_AOPT                                 
 WARNING: random wavefunctions but no delay for mixing, default for NELMDL
 entering main loop
       N       E                     dE             d eps       ncg     rms          rms(c)
DAV:   1     0.112593220142E+05    0.11259E+05   -0.41491E+05  4288   0.934E+02
DAV:   2     0.393167794452E+03   -0.10866E+05   -0.10100E+05  5568   0.212E+02
DAV:   3    -0.301182311290E+04   -0.34050E+04   -0.32479E+04  4608   0.115E+02
DAV:   4    -0.330525489013E+04   -0.29343E+03   -0.28377E+03  4448   0.387E+01
DAV:   5    -0.331702430225E+04   -0.11769E+02   -0.11564E+02  5120   0.694E+00    0.120E-01
DAV:   6    -0.331722549567E+04   -0.20119E+00   -0.19896E+00  4896   0.995E-01    0.297E-02
DAV:   7    -0.331723103599E+04   -0.55403E-02   -0.54542E-02  4928   0.168E-01    0.290E-02
DAV:   8    -0.331723123951E+04   -0.20352E-03   -0.22422E-03  4864   0.331E-02    0.247E-02
DAV:   9    -0.331723123586E+04    0.36521E-05   -0.10304E-04  4640   0.758E-03    0.203E-02
DAV:  10    -0.331723122690E+04    0.89618E-05   -0.11761E-05  4160   0.300E-03    0.165E-02
DAV:  11    -0.331723121558E+04    0.11318E-04   -0.54345E-06  3840   0.275E-03    0.108E-02
DAV:  12    -0.331723120483E+04    0.10748E-04   -0.33446E-06  3552   0.217E-03    0.542E-03
DAV:  13    -0.331723119703E+04    0.78039E-05   -0.75460E-07  2624   0.130E-03    0.230E-03
DAV:  14    -0.331723119383E+04    0.32036E-05   -0.32526E-07  2496   0.775E-04    0.122E-03
DAV:  15    -0.331723119189E+04    0.19321E-05   -0.74992E-08  2560   0.492E-04    0.657E-04
DAV:  16    -0.331723119114E+04    0.75728E-06    0.50185E-08  2528   0.298E-04
   1 F= -.33313441E+04 E0= -.33313441E+04  d E =-.333134E+04
 BRION: g(F)=  0.165E-02 g(S)=  0.000E+00
 bond charge predicted
       N       E                     dE             d eps       ncg     rms          rms(c)
DAV:   1    -0.331723270737E+04   -0.15155E-02   -0.32822E-01  4032   0.396E-01    0.101E-01
DAV:   2    -0.331723285916E+04   -0.15179E-03   -0.32748E-03  4032   0.348E-02    0.708E-02
DAV:   3    -0.331723289701E+04   -0.37850E-04   -0.52142E-04  4128   0.144E-02    0.671E-02
DAV:   4    -0.331723291865E+04   -0.21642E-04   -0.40496E-04  4160   0.121E-02    0.324E-02
DAV:   5    -0.331723298162E+04   -0.62964E-04   -0.83418E-05  3936   0.741E-03    0.904E-03
DAV:   6    -0.331723298083E+04    0.78802E-06   -0.64730E-06  4096   0.287E-03
   2 F= -.33313458E+04 E0= -.33313458E+04  d E =-.164201E-02
 BRION: g(F)=  0.166E-02 g(S)=  0.000E+00 retain N=  1 mean eig= 1.46
 eig:   1.465
 bond charge predicted
       N       E                     dE             d eps       ncg     rms          rms(c)
DAV:   1    -0.331723362378E+04   -0.64216E-03   -0.58077E-02  4064   0.168E-01    0.439E-02
DAV:   2    -0.331723365347E+04   -0.29691E-04   -0.68710E-04  3936   0.154E-02    0.280E-02
DAV:   3    -0.331723366202E+04   -0.85502E-05   -0.30043E-05  4096   0.421E-03    0.220E-02
DAV:   4    -0.331723367636E+04   -0.14339E-04   -0.57482E-05  3808   0.453E-03    0.162E-02
DAV:   5    -0.331723368433E+04   -0.79714E-05   -0.29767E-05  3776   0.372E-03    0.355E-03
DAV:   6    -0.331723368472E+04   -0.39407E-06   -0.12120E-06  3296   0.139E-03
   3 F= -.33313464E+04 E0= -.33313464E+04  d E =-.654566E-03
 BRION: g(F)=  0.165E-02 g(S)=  0.000E+00 retain N=  1 mean eig= 0.13
 eig:   0.133
 bond charge predicted
       N       E                     dE             d eps       ncg     rms          rms(c)
DAV:   1    -0.331723499796E+04   -0.13136E-02   -0.24023E-01  3904   0.340E-01    0.869E-02
DAV:   2    -0.331723509031E+04   -0.92348E-04   -0.23466E-03  3808   0.296E-02    0.599E-02
DAV:   3    -0.331723512065E+04   -0.30343E-04   -0.33393E-04  4192   0.117E-02    0.558E-02
DAV:   4    -0.331723514935E+04   -0.28698E-04   -0.29162E-04  4256   0.103E-02    0.280E-02
DAV:   5    -0.331723519641E+04   -0.47068E-04   -0.65304E-05  3712   0.646E-03    0.746E-03
DAV:   6    -0.331723519592E+04    0.49418E-06   -0.44216E-06  3808   0.242E-03
   4 F= -.33313478E+04 E0= -.33313478E+04  d E =-.138941E-02
 BRION: g(F)=  0.162E-02 g(S)=  0.000E+00 retain N=  1 mean eig= 2.44
 eig:   2.444
 bond charge predicted
       N       E                     dE             d eps       ncg     rms          rms(c)
DAV:   1    -0.331723723644E+04   -0.20400E-02   -0.83140E-01  3904   0.634E-01    0.160E-01
DAV:   2    -0.331723752856E+04   -0.29212E-03   -0.77896E-03  3808   0.533E-02    0.107E-01
DAV:   3    -0.331723767141E+04   -0.14284E-03   -0.75525E-04  4128   0.184E-02    0.927E-02
DAV:   4    -0.331723777878E+04   -0.10738E-03   -0.88628E-04  4384   0.182E-02    0.519E-02
DAV:   5    -0.331723789629E+04   -0.11751E-03   -0.26021E-04  3808   0.120E-02    0.123E-02
DAV:   6    -0.331723789623E+04    0.64145E-07   -0.14987E-05  4192   0.428E-03    0.768E-03
DAV:   7    -0.331723789580E+04    0.42282E-06   -0.31758E-06  3552   0.176E-03
   5 F= -.33313503E+04 E0= -.33313503E+04  d E =-.249479E-02
 BRION: g(F)=  0.166E-02 g(S)=  0.000E+00 retain N=  1 mean eig= 0.94
 eig:   0.937
 bond charge predicted
       N       E                     dE             d eps       ncg     rms          rms(c)
DAV:   1    -0.331723751844E+04    0.37778E-03   -0.21034E-02  4064   0.102E-01    0.272E-02
DAV:   2    -0.331723753344E+04   -0.14995E-04   -0.29089E-04  3936   0.980E-03    0.186E-02
DAV:   3    -0.331723753495E+04   -0.15097E-05   -0.37556E-05  4064   0.413E-03    0.157E-02
DAV:   4    -0.331723753426E+04    0.68685E-06   -0.28768E-05  3648   0.324E-03    0.984E-03
DAV:   5    -0.331723753760E+04   -0.33410E-05   -0.54600E-06  3552   0.196E-03    0.228E-03
DAV:   6    -0.331723753779E+04   -0.18917E-06   -0.48223E-07  2496   0.801E-04
   6 F= -.33313500E+04 E0= -.33313500E+04  d E =0.339609E-03
 BRION: g(F)=  0.161E-02 g(S)=  0.000E+00 retain N=  1 mean eig= 0.11
 eig:   0.112
 bond charge predicted
       N       E                     dE             d eps       ncg     rms          rms(c)
DAV:   1    -0.331723908136E+04   -0.15438E-02   -0.38909E-01  3840   0.433E-01    0.108E-01
DAV:   2    -0.331723920534E+04   -0.12398E-03   -0.34741E-03  3808   0.355E-02    0.726E-02
DAV:   3    -0.331723926954E+04   -0.64194E-04   -0.32781E-04  4096   0.122E-02    0.616E-02
DAV:   4    -0.331723932087E+04   -0.51336E-04   -0.39817E-04  4384   0.123E-02    0.347E-02
DAV:   5    -0.331723936632E+04   -0.45449E-04   -0.12188E-04  3872   0.821E-03    0.831E-03
DAV:   6    -0.331723936652E+04   -0.20210E-06   -0.68183E-06  4032   0.286E-03
   7 F= -.33313517E+04 E0= -.33313517E+04  d E =-.169157E-02
 BRION: g(F)=  0.154E-02 g(S)=  0.000E+00 retain N=  1 mean eig= 0.70
 eig:   0.701
 bond charge predicted
       N       E                     dE             d eps       ncg     rms          rms(c)
DAV:   1    -0.331724090861E+04   -0.15423E-02   -0.41097E-01  3840   0.443E-01    0.114E-01
DAV:   2    -0.331724106903E+04   -0.16042E-03   -0.42638E-03  3840   0.395E-02    0.803E-02
DAV:   3    -0.331724112193E+04   -0.52896E-04   -0.57032E-04  4192   0.157E-02    0.721E-02
DAV:   4    -0.331724120236E+04   -0.80428E-04   -0.46460E-04  4224   0.133E-02    0.368E-02
DAV:   5    -0.331724126851E+04   -0.66150E-04   -0.10782E-04  3776   0.831E-03    0.106E-02
DAV:   6    -0.331724126781E+04    0.69744E-06   -0.81649E-06  4128   0.332E-03
   8 F= -.33313534E+04 E0= -.33313534E+04  d E =-.174433E-02
 BRION: g(F)=  0.157E-02 g(S)=  0.000E+00 retain N=  1 mean eig= 1.26
 eig:   1.260
 bond charge predicted
       N       E                     dE             d eps       ncg     rms          rms(c)
DAV:   1    -0.331724169658E+04   -0.42807E-03   -0.38358E-02  4032   0.137E-01    0.370E-02
DAV:   2    -0.331724172574E+04   -0.29166E-04   -0.54521E-04  3904   0.133E-02    0.241E-02
DAV:   3    -0.331724173130E+04   -0.55587E-05   -0.48412E-05  4320   0.494E-03    0.191E-02
DAV:   4    -0.331724173250E+04   -0.12016E-05   -0.43663E-05  3680   0.405E-03    0.140E-02
DAV:   5    -0.331724173986E+04   -0.73555E-05   -0.97699E-06  3680   0.256E-03    0.282E-03
DAV:   6    -0.331724174012E+04   -0.26636E-06   -0.88317E-07  2912   0.107E-03
   9 F= -.33313539E+04 E0= -.33313539E+04  d E =-.450580E-03
 BRION: g(F)=  0.153E-02 g(S)=  0.000E+00 retain N=  1 mean eig= 0.11
 eig:   0.105
 bond charge predicted
       N       E                     dE             d eps       ncg     rms          rms(c)
DAV:   1    -0.331724294425E+04   -0.12044E-02   -0.22070E-01  3808   0.324E-01    0.832E-02
DAV:   2    -0.331724301975E+04   -0.75505E-04   -0.21668E-03  3840   0.281E-02    0.589E-02
DAV:   3    -0.331724304722E+04   -0.27461E-04   -0.29488E-04  4160   0.113E-02    0.524E-02
DAV:   4    -0.331724308915E+04   -0.41932E-04   -0.24571E-04  4224   0.979E-03    0.259E-02
DAV:   5    -0.331724312757E+04   -0.38423E-04   -0.56072E-05  3648   0.602E-03    0.786E-03
DAV:   6    -0.331724312719E+04    0.38068E-06   -0.42509E-06  3712   0.237E-03
  10 F= -.33313551E+04 E0= -.33313551E+04  d E =-.127272E-02
 BRION: g(F)=  0.145E-02 g(S)=  0.000E+00 retain N=  1 mean eig= 0.94
 eig:   0.939
 bond charge predicted
       N       E                     dE             d eps       ncg     rms          rms(c)
DAV:   1    -0.331724436984E+04   -0.12423E-02   -0.28564E-01  3872   0.371E-01    0.942E-02
DAV:   2    -0.331724445965E+04   -0.89809E-04   -0.27929E-03  3840   0.315E-02    0.624E-02
DAV:   3    -0.331724450618E+04   -0.46538E-04   -0.20163E-04  4128   0.101E-02    0.509E-02
DAV:   4    -0.331724456793E+04   -0.61750E-04   -0.27314E-04  4384   0.103E-02    0.309E-02
DAV:   5    -0.331724461071E+04   -0.42778E-04   -0.99218E-05  3840   0.731E-03    0.731E-03
DAV:   6    -0.331724461165E+04   -0.94017E-06   -0.50539E-06  3840   0.258E-03
  11 F= -.33313565E+04 E0= -.33313565E+04  d E =-.137554E-02
 BRION: g(F)=  0.144E-02 g(S)=  0.000E+00 retain N=  1 mean eig= 1.33
 eig:   1.330
 bond charge predicted
       N       E                     dE             d eps       ncg     rms          rms(c)
DAV:   1    -0.331724542445E+04   -0.81374E-03   -0.10038E-01  3776   0.218E-01    0.573E-02
DAV:   2    -0.331724546805E+04   -0.43595E-04   -0.11713E-03  3840   0.206E-02    0.407E-02
DAV:   3    -0.331724547840E+04   -0.10353E-04   -0.13678E-04  4096   0.791E-03    0.350E-02
DAV:   4    -0.331724550407E+04   -0.25672E-04   -0.10840E-04  4160   0.645E-03    0.193E-02
DAV:   5    -0.331724552666E+04   -0.22587E-04   -0.28582E-05  3552   0.432E-03    0.610E-03
DAV:   6    -0.331724552668E+04   -0.22352E-07   -0.23338E-06  3520   0.188E-03
  12 F= -.33313573E+04 E0= -.33313573E+04  d E =-.838773E-03
 BRION: g(F)=  0.144E-02 g(S)=  0.000E+00 retain N=  1 mean eig= 0.72
 eig:   0.724
 bond charge predicted
       N       E                     dE             d eps       ncg     rms          rms(c)
DAV:   1    -0.331724646773E+04   -0.94107E-03   -0.15839E-01  3904   0.276E-01    0.698E-02
DAV:   2    -0.331724651717E+04   -0.49443E-04   -0.15714E-03  3808   0.233E-02    0.455E-02
DAV:   3    -0.331724654736E+04   -0.30192E-04   -0.67266E-05  4064   0.646E-03    0.336E-02
DAV:   4    -0.331724658926E+04   -0.41902E-04   -0.12552E-04  4128   0.715E-03    0.227E-02
DAV:   5    -0.331724660247E+04   -0.13211E-04   -0.64066E-05  3904   0.550E-03    0.544E-03
DAV:   6    -0.331724660391E+04   -0.14327E-05   -0.26082E-06  3552   0.193E-03    0.316E-03
DAV:   7    -0.331724660384E+04    0.71013E-07   -0.56048E-07  2688   0.821E-04
  13 F= -.33313583E+04 E0= -.33313583E+04  d E =-.100286E-02
 BRION: g(F)=  0.141E-02 g(S)=  0.000E+00 retain N=  1 mean eig= 0.74
 eig:   0.736
 bond charge predicted
       N       E                     dE             d eps       ncg     rms          rms(c)
DAV:   1    -0.331724768246E+04   -0.10785E-02   -0.19862E-01  3840   0.307E-01    0.771E-02
DAV:   2    -0.331724773112E+04   -0.48666E-04   -0.18449E-03  3872   0.256E-02    0.522E-02
DAV:   3    -0.331724776935E+04   -0.38233E-04   -0.16572E-04  4128   0.890E-03    0.434E-02
DAV:   4    -0.331724781116E+04   -0.41801E-04   -0.18894E-04  4320   0.871E-03    0.241E-02
DAV:   5    -0.331724784286E+04   -0.31707E-04   -0.56684E-05  3680   0.574E-03    0.634E-03
DAV:   6    -0.331724784297E+04   -0.11071E-06   -0.31982E-06  3648   0.202E-03
  14 F= -.33313595E+04 E0= -.33313595E+04  d E =-.114545E-02
 BRION: g(F)=  0.140E-02 g(S)=  0.000E+00 retain N=  1 mean eig= 1.41
 eig:   1.408
 bond charge predicted
       N       E                     dE             d eps       ncg     rms          rms(c)
DAV:   1    -0.331724901966E+04   -0.11768E-02   -0.26981E-01  3904   0.358E-01    0.899E-02
DAV:   2    -0.331724907475E+04   -0.55093E-04   -0.25678E-03  3840   0.298E-02    0.593E-02
DAV:   3    -0.331724913959E+04   -0.64832E-04   -0.14329E-04  4096   0.892E-03    0.455E-02
DAV:   4    -0.331724921244E+04   -0.72858E-04   -0.22073E-04  4384   0.947E-03    0.285E-02
DAV:   5    -0.331724924502E+04   -0.32578E-04   -0.91301E-05  3904   0.686E-03    0.695E-03
DAV:   6    -0.331724924606E+04   -0.10415E-05   -0.42699E-06  3744   0.237E-03    0.414E-03
DAV:   7    -0.331724924595E+04    0.11409E-06   -0.93160E-07  2880   0.999E-04
  15 F= -.33313608E+04 E0= -.33313608E+04  d E =-.130497E-02
 BRION: g(F)=  0.140E-02 g(S)=  0.000E+00 retain N=  1 mean eig= 2.59
 eig:   2.591
 bond charge predicted
       N       E                     dE             d eps       ncg     rms          rms(c)
DAV:   1    -0.331724991949E+04   -0.67343E-03   -0.70662E-02  3840   0.182E-01    0.461E-02
DAV:   2    -0.331724993836E+04   -0.18867E-04   -0.72335E-04  3904   0.158E-02    0.315E-02
DAV:   3    -0.331724995354E+04   -0.15188E-04   -0.62338E-05  4000   0.552E-03    0.262E-02
DAV:   4    -0.331724997030E+04   -0.16752E-04   -0.66922E-05  3936   0.518E-03    0.149E-02
DAV:   5    -0.331724998318E+04   -0.12882E-04   -0.20555E-05  3552   0.350E-03    0.421E-03
DAV:   6    -0.331724998318E+04   -0.65193E-08   -0.12066E-06  3104   0.131E-03
  16 F= -.33313615E+04 E0= -.33313615E+04  d E =-.681160E-03
 BRION: g(F)=  0.139E-02 g(S)=  0.000E+00 retain N=  2 mean eig= 4.68
 eig:   5.583  3.772
 bond charge predicted
       N       E                     dE             d eps       ncg     rms          rms(c)
DAV:   1    -0.331723755080E+04    0.12432E-01   -0.27878E+01  3808   0.365E+00    0.870E-01
DAV:   2    -0.331725737406E+04   -0.19823E-01   -0.29551E-01  3904   0.302E-01    0.591E-01
DAV:   3    -0.331725904606E+04   -0.16720E-02   -0.65542E-03  4160   0.715E-02    0.374E-01
DAV:   4    -0.331726426794E+04   -0.52219E-02   -0.75563E-03  4160   0.678E-02    0.156E-01
DAV:   5    -0.331726423597E+04    0.31972E-04   -0.45292E-03  4192   0.444E-02    0.653E-02
DAV:   6    -0.331726424125E+04   -0.52819E-05   -0.24331E-04  4096   0.175E-02    0.362E-02
DAV:   7    -0.331726423214E+04    0.91109E-05   -0.10533E-04  4064   0.899E-03    0.163E-02
DAV:   8    -0.331726423128E+04    0.86252E-06   -0.25142E-05  4064   0.505E-03    0.541E-03
DAV:   9    -0.331726423160E+04   -0.31956E-06   -0.35628E-06  3840   0.211E-03
  17 F= -.33313748E+04 E0= -.33313748E+04  d E =-.132731E-01
 BRION: g(F)=  0.145E-02 g(S)=  0.000E+00 BRIONS problems: POTIM should be increased
 retain N=  1 mean eig=13.96
 eig:  13.963
 bond charge predicted
       N       E                     dE             d eps       ncg     rms          rms(c)
DAV:   1    -0.331723858136E+04    0.25650E-01   -0.15817E+01  3776   0.272E+00    0.692E-01
DAV:   2    -0.331724904054E+04   -0.10459E-01   -0.17347E-01  3840   0.240E-01    0.466E-01
DAV:   3    -0.331724957370E+04   -0.53315E-03   -0.12451E-02  4128   0.788E-02    0.383E-01
DAV:   4    -0.331725138622E+04   -0.18125E-02   -0.13938E-02  4288   0.755E-02    0.243E-01
DAV:   5    -0.331725333142E+04   -0.19452E-02   -0.56940E-03  3968   0.577E-02    0.752E-02
DAV:   6    -0.331725334737E+04   -0.15953E-04   -0.41898E-04  4064   0.237E-02    0.365E-02
DAV:   7    -0.331725336494E+04   -0.17563E-04   -0.90267E-05  4096   0.868E-03    0.235E-02
DAV:   8    -0.331725336109E+04    0.38489E-05   -0.29188E-05  4032   0.512E-03    0.107E-02
DAV:   9    -0.331725336072E+04    0.36345E-06   -0.18504E-05  4160   0.427E-03    0.293E-03
DAV:  10    -0.331725336119E+04   -0.46159E-06   -0.44843E-06  3680   0.169E-03
  18 F= -.33313646E+04 E0= -.33313646E+04  d E =0.101184E-01
 BRION: g(F)=  0.150E-02 g(S)=  0.000E+00 retain N=  1 mean eig= 0.25
 eig:   0.251
 bond charge predicted
       N       E                     dE             d eps       ncg     rms          rms(c)
DAV:   1    -0.331725401052E+04   -0.64980E-03   -0.85877E+00  3808   0.201E+00    0.487E-01
DAV:   2    -0.331725835239E+04   -0.43419E-02   -0.82238E-02  3904   0.164E-01    0.328E-01
DAV:   3    -0.331725940107E+04   -0.10487E-02   -0.30317E-03  4096   0.450E-02    0.225E-01
DAV:   4    -0.331726092094E+04   -0.15199E-02   -0.48300E-03  4288   0.473E-02    0.134E-01
DAV:   5    -0.331726132314E+04   -0.40220E-03   -0.24012E-03  4160   0.338E-02    0.372E-02
DAV:   6    -0.331726134606E+04   -0.22916E-04   -0.10697E-04  4064   0.112E-02    0.223E-02
DAV:   7    -0.331726134226E+04    0.37923E-05   -0.34472E-05  4288   0.534E-03    0.106E-02
DAV:   8    -0.331726134257E+04   -0.30687E-06   -0.91753E-06  3840   0.299E-03
  19 F= -.33313721E+04 E0= -.33313721E+04  d E =-.744963E-02
 BRION: g(F)=  0.147E-02 g(S)=  0.000E+00 retain N=  1 mean eig= 3.35
 eig:   3.349
 bond charge predicted
       N       E                     dE             d eps       ncg     rms          rms(c)
DAV:   1    -0.331725929376E+04    0.20485E-02   -0.39626E-01  3840   0.436E-01    0.111E-01
DAV:   2    -0.331725946114E+04   -0.16738E-03   -0.42876E-03  3808   0.381E-02    0.716E-02
DAV:   3    -0.331725951578E+04   -0.54647E-04   -0.17235E-04  4096   0.105E-02    0.537E-02
DAV:   4    -0.331725961861E+04   -0.10282E-03   -0.27859E-04  4288   0.112E-02    0.341E-02
DAV:   5    -0.331725964978E+04   -0.31172E-04   -0.14376E-04  4128   0.859E-03    0.884E-03
DAV:   6    -0.331725965176E+04   -0.19846E-05   -0.67847E-06  4000   0.304E-03    0.517E-03
DAV:   7    -0.331725965175E+04    0.14901E-07   -0.14997E-06  3264   0.122E-03
  20 F= -.33313705E+04 E0= -.33313705E+04  d E =0.157715E-02
 BRION: g(F)=  0.155E-02 g(S)=  0.000E+00 retain N=  1 mean eig= 1.07
 eig:   1.070
 bond charge predicted
       N       E                     dE             d eps       ncg     rms          rms(c)
DAV:   1    -0.331726174694E+04   -0.20952E-02   -0.13497E+00  3840   0.797E-01    0.193E-01
DAV:   2    -0.331726209892E+04   -0.35198E-03   -0.11656E-02  3840   0.629E-02    0.127E-01
DAV:   3    -0.331726238792E+04   -0.28900E-03   -0.35393E-04  4160   0.159E-02    0.818E-02
DAV:   4    -0.331726270396E+04   -0.31603E-03   -0.53279E-04  4192   0.167E-02    0.443E-02
DAV:   5    -0.331726272770E+04   -0.23738E-04   -0.29801E-04  4192   0.120E-02    0.145E-02
DAV:   6    -0.331726273037E+04   -0.26756E-05   -0.13366E-05  4032   0.439E-03    0.852E-03
DAV:   7    -0.331726273030E+04    0.66473E-07   -0.55471E-06  3776   0.225E-03
  21 F= -.33313734E+04 E0= -.33313734E+04  d E =-.289736E-02
 BRION: g(F)=  0.150E-02 g(S)=  0.000E+00 retain N=  1 mean eig= 1.53
 eig:   1.533
 bond charge predicted
       N       E                     dE             d eps       ncg     rms          rms(c)
DAV:   1    -0.331726302930E+04   -0.29893E-03   -0.21627E-02  3904   0.975E-02    0.219E-02
DAV:   2    -0.331726303717E+04   -0.78694E-05   -0.21721E-04  4000   0.826E-03    0.140E-02
DAV:   3    -0.331726304213E+04   -0.49601E-05   -0.10899E-05  3808   0.234E-03    0.107E-02
DAV:   4    -0.331726304639E+04   -0.42560E-05   -0.12075E-05  3424   0.241E-03    0.682E-03
DAV:   5    -0.331726304885E+04   -0.24608E-05   -0.29828E-06  3104   0.133E-03    0.215E-03
DAV:   6    -0.331726304896E+04   -0.10605E-06   -0.35203E-07  2624   0.633E-04
  22 F= -.33313737E+04 E0= -.33313737E+04  d E =-.313679E-03
 BRION: g(F)=  0.146E-02 g(S)=  0.000E+00 retain N=  1 mean eig= 4.07
 eig:   4.066
 bond charge predicted
       N       E                     dE             d eps       ncg     rms          rms(c)
DAV:   1    -0.331726506467E+04   -0.20158E-02   -0.31588E+00  3872   0.118E+00    0.261E-01
DAV:   2    -0.331726576109E+04   -0.69642E-03   -0.23612E-02  3936   0.853E-02    0.176E-01
DAV:   3    -0.331726640339E+04   -0.64231E-03   -0.18617E-03  4320   0.315E-02    0.130E-01
DAV:   4    -0.331726679150E+04   -0.38811E-03   -0.17649E-03  4224   0.284E-02    0.685E-02
DAV:   5    -0.331726702991E+04   -0.23840E-03   -0.27766E-04  3936   0.131E-02    0.227E-02
DAV:   6    -0.331726703343E+04   -0.35258E-05   -0.32921E-05  3936   0.545E-03    0.143E-02
DAV:   7    -0.331726703881E+04   -0.53800E-05   -0.14818E-05  3904   0.351E-03    0.619E-03
DAV:   8    -0.331726703876E+04    0.55879E-07   -0.40492E-06  3360   0.235E-03
  23 F= -.33313776E+04 E0= -.33313776E+04  d E =-.391275E-02
 BRION: g(F)=  0.211E-02 g(S)=  0.000E+00 retain N=  1 mean eig= 1.28
 eig:   1.283
 bond charge predicted
       N       E                     dE             d eps       ncg     rms          rms(c)
DAV:   1    -0.331726284726E+04    0.41915E-02   -0.19805E+00  3712   0.933E-01    0.203E-01
DAV:   2    -0.331726342509E+04   -0.57783E-03   -0.15828E-02  3872   0.703E-02    0.137E-01
DAV:   3    -0.331726370192E+04   -0.27683E-03   -0.14195E-03  4448   0.269E-02    0.109E-01
DAV:   4    -0.331726392281E+04   -0.22089E-03   -0.11532E-03  4160   0.232E-02    0.565E-02
DAV:   5    -0.331726413933E+04   -0.21653E-03   -0.19615E-04  3840   0.108E-02    0.196E-02
DAV:   6    -0.331726414238E+04   -0.30512E-05   -0.27712E-05  3872   0.487E-03    0.127E-02
DAV:   7    -0.331726414686E+04   -0.44792E-05   -0.93438E-06  4032   0.270E-03    0.695E-03
DAV:   8    -0.331726414671E+04    0.15646E-06   -0.31318E-06  3232   0.216E-03
  24 F= -.33313747E+04 E0= -.33313747E+04  d E =0.288857E-02
 BRION: g(F)=  0.146E-02 g(S)=  0.000E+00 retain N=  1 mean eig= 0.67
 eig:   0.673
 bond charge predicted
       N       E                     dE             d eps       ncg     rms          rms(c)
DAV:   1    -0.331726564769E+04   -0.15008E-02   -0.62468E-01  3904   0.530E-01    0.123E-01
DAV:   2    -0.331726582751E+04   -0.17982E-03   -0.53768E-03  3872   0.410E-02    0.808E-02
DAV:   3    -0.331726596594E+04   -0.13843E-03   -0.11727E-04  4224   0.909E-03    0.487E-02
DAV:   4    -0.331726611300E+04   -0.14706E-03   -0.66011E-05  3744   0.764E-03    0.104E-02
DAV:   5    -0.331726611496E+04   -0.19631E-05   -0.15440E-05  3968   0.312E-03    0.914E-03
DAV:   6    -0.331726611471E+04    0.25472E-06   -0.57123E-06  3424   0.211E-03
  25 F= -.33313766E+04 E0= -.33313766E+04  d E =-.189130E-02
 BRION: g(F)=  0.140E-02 g(S)=  0.000E+00 retain N=  1 mean eig= 2.89
 eig:   2.891
 bond charge predicted
       N       E                     dE             d eps       ncg     rms          rms(c)
DAV:   1    -0.331724556014E+04    0.20555E-01   -0.34265E+01  3936   0.393E+00    0.906E-01
DAV:   2    -0.331727178695E+04   -0.26227E-01   -0.37855E-01  3904   0.318E-01    0.597E-01
DAV:   3    -0.331727391257E+04   -0.21256E-02   -0.10482E-02  4288   0.721E-02    0.395E-01
DAV:   4    -0.331727897087E+04   -0.50583E-02   -0.14802E-02  4192   0.868E-02    0.246E-01
DAV:   5    -0.331727966193E+04   -0.69106E-03   -0.51482E-03  4160   0.574E-02    0.692E-02
DAV:   6    -0.331727979122E+04   -0.12928E-03   -0.41315E-04  3968   0.197E-02    0.418E-02
DAV:   7    -0.331727978934E+04    0.18728E-05   -0.12139E-04  3936   0.108E-02    0.209E-02
DAV:   8    -0.331727978961E+04   -0.27008E-06   -0.35922E-05  4192   0.678E-03    0.851E-03
DAV:   9    -0.331727978937E+04    0.24424E-06   -0.81020E-06  4000   0.274E-03
  26 F= -.33313897E+04 E0= -.33313897E+04  d E =-.130792E-01
 BRION: g(F)=  0.397E-02 g(S)=  0.000E+00 retain N=  1 mean eig= 3.02
 eig:   3.020
 bond charge predicted
       N       E                     dE             d eps       ncg     rms          rms(c)
DAV:   1    -0.331724285418E+04    0.36935E-01   -0.26497E+01  3872   0.343E+00    0.815E-01
DAV:   2    -0.331726153327E+04   -0.18679E-01   -0.28431E-01  3872   0.294E-01    0.542E-01
DAV:   3    -0.331726233942E+04   -0.80615E-03   -0.11327E-02  4160   0.786E-02    0.410E-01
DAV:   4    -0.331726568142E+04   -0.33420E-02   -0.14898E-02  4288   0.820E-02    0.264E-01
DAV:   5    -0.331726777852E+04   -0.20971E-02   -0.76432E-03  4160   0.679E-02    0.952E-02
DAV:   6    -0.331726780857E+04   -0.30049E-04   -0.61665E-04  4032   0.273E-02    0.470E-02
DAV:   7    -0.331726782516E+04   -0.16594E-04   -0.12989E-04  4096   0.104E-02    0.292E-02
DAV:   8    -0.331726781997E+04    0.51957E-05   -0.43428E-05  4064   0.666E-03    0.115E-02
DAV:   9    -0.331726781909E+04    0.87440E-06   -0.22931E-05  4128   0.459E-03    0.367E-03
DAV:  10    -0.331726781934E+04   -0.24505E-06   -0.41996E-06  3680   0.170E-03
  27 F= -.33313783E+04 E0= -.33313783E+04  d E =0.114455E-01
 BRION: g(F)=  0.148E-02 g(S)=  0.000E+00 retain N=  1 mean eig= 2.19
 eig:   2.195
 bond charge predicted
       N       E                     dE             d eps       ncg     rms          rms(c)
DAV:   1    -0.331726984243E+04   -0.20233E-02   -0.24321E+00  3936   0.105E+00    0.243E-01
DAV:   2    -0.331727061797E+04   -0.77554E-03   -0.20924E-02  3936   0.809E-02    0.161E-01
DAV:   3    -0.331727112664E+04   -0.50867E-03   -0.45130E-04  4160   0.180E-02    0.948E-02
DAV:   4    -0.331727164668E+04   -0.52003E-03   -0.25259E-04  3808   0.146E-02    0.204E-02
DAV:   5    -0.331727165279E+04   -0.61102E-05   -0.69626E-05  4032   0.611E-03    0.189E-02
DAV:   6    -0.331727165057E+04    0.22190E-05   -0.23132E-05  4000   0.450E-03    0.107E-02
DAV:   7    -0.331727165154E+04   -0.97579E-06   -0.62827E-06  3584   0.252E-03
  28 F= -.33313819E+04 E0= -.33313819E+04  d E =-.367405E-02
 BRION: g(F)=  0.139E-02 g(S)=  0.000E+00 BRIONS problems: POTIM should be increased
 retain N=  1 mean eig=30.04
 eig:  30.041
 bond charge predicted
       N       E                     dE             d eps       ncg     rms          rms(c)
DAV:   1    -0.331561659708E+04    0.16551E+01   -0.47363E+02  3968   0.146E+01    0.377E+00
DAV:   2    -0.331733527443E+04   -0.17187E+01   -0.18175E+01  3968   0.188E+00    0.255E+00
DAV:   3    -0.331729242583E+04    0.42849E-01   -0.46239E-01  4352   0.507E-01    0.183E+00
DAV:   4    -0.331729233647E+04    0.89361E-04   -0.88780E-02  4096   0.304E-01    0.127E+00
DAV:   5    -0.331731507285E+04   -0.22736E-01   -0.93943E-02  4096   0.302E-01    0.563E-01
DAV:   6    -0.331731470158E+04    0.37128E-03   -0.34489E-02  4160   0.194E-01    0.209E-01
DAV:   7    -0.331731531837E+04   -0.61680E-03   -0.42921E-03  3840   0.549E-02    0.139E-01
DAV:   8    -0.331731511109E+04    0.20729E-03   -0.94547E-04  3968   0.439E-02    0.588E-02
DAV:   9    -0.331731509012E+04    0.20970E-04   -0.53339E-04  4000   0.219E-02    0.245E-02
DAV:  10    -0.331731508570E+04    0.44187E-05   -0.85125E-05  4064   0.844E-03    0.145E-02
DAV:  11    -0.331731508597E+04   -0.27078E-06   -0.18114E-05  4160   0.461E-03    0.741E-03
DAV:  12    -0.331731508717E+04   -0.11999E-05   -0.45275E-06  3808   0.224E-03    0.346E-03
DAV:  13    -0.331731508710E+04    0.71013E-07   -0.66226E-07  2752   0.103E-03
  29 F= -.33314236E+04 E0= -.33314236E+04  d E =-.416130E-01
 BRION: g(F)=  0.321E-01 g(S)=  0.000E+00 retain N=  1 mean eig= 2.94
 eig:   2.942
 bond charge predicted
       N       E                     dE             d eps       ncg     rms          rms(c)
DAV:   1    -0.331617711574E+04    0.11380E+01   -0.38775E+02  3872   0.131E+01    0.368E+00
DAV:   2    -0.331730974326E+04   -0.11326E+01   -0.12497E+01  3776   0.169E+00    0.263E+00
DAV:   3    -0.331725402680E+04    0.55716E-01   -0.46889E-01  4096   0.534E-01    0.175E+00
DAV:   4    -0.331725358869E+04    0.43811E-03   -0.15846E-01  4256   0.321E-01    0.136E+00
DAV:   5    -0.331728462303E+04   -0.31034E-01   -0.21053E-01  4320   0.390E-01    0.990E-01
DAV:   6    -0.331727489675E+04    0.97263E-02   -0.91196E-02  4320   0.258E-01    0.263E-01
DAV:   7    -0.331727665245E+04   -0.17557E-02   -0.86640E-03  3872   0.730E-02    0.144E-01
DAV:   8    -0.331727650618E+04    0.14627E-03   -0.16226E-03  4064   0.458E-02    0.712E-02
DAV:   9    -0.331727650575E+04    0.42573E-06   -0.63786E-04  4128   0.256E-02    0.215E-02
DAV:  10    -0.331727651785E+04   -0.12097E-04   -0.89416E-05  4160   0.102E-02    0.175E-02
DAV:  11    -0.331727652042E+04   -0.25756E-05   -0.21884E-05  4160   0.470E-03    0.102E-02
DAV:  12    -0.331727652000E+04    0.42364E-06   -0.54657E-06  3936   0.293E-03
  30 F= -.33313866E+04 E0= -.33313866E+04  d E =0.369330E-01
 BRION: g(F)=  0.166E-02 g(S)=  0.000E+00 retain N=  1 mean eig= 2.47
 eig:   2.471
 bond charge predicted
       N       E                     dE             d eps       ncg     rms          rms(c)
DAV:   1    -0.331727581129E+04    0.70913E-03   -0.88713E+00  3936   0.201E+00    0.462E-01
DAV:   2    -0.331728022891E+04   -0.44176E-02   -0.84971E-02  3872   0.160E-01    0.303E-01
DAV:   3    -0.331728145149E+04   -0.12226E-02   -0.18812E-03  4288   0.349E-02    0.184E-01
DAV:   4    -0.331728333772E+04   -0.18862E-02   -0.19964E-03  3776   0.358E-02    0.808E-02
DAV:   5    -0.331728330055E+04    0.37166E-04   -0.70265E-04  4000   0.205E-02    0.367E-02
DAV:   6    -0.331728331618E+04   -0.15630E-04   -0.64514E-05  3968   0.895E-03    0.211E-02
DAV:   7    -0.331728331759E+04   -0.14118E-05   -0.23590E-05  4096   0.427E-03    0.109E-02
DAV:   8    -0.331728331749E+04    0.10442E-06   -0.88445E-06  3808   0.331E-03
  31 F= -.33313932E+04 E0= -.33313932E+04  d E =-.653367E-02
 BRION: g(F)=  0.155E-02 g(S)=  0.000E+00 BRIONS problems: POTIM should be increased
 retain N=  1 mean eig=41.23
 eig:  41.229
 bond charge predicted
       N       E                     dE             d eps       ncg     rms          rms(c)
DAV:   1    -0.331592855274E+04    0.13548E+01   -0.42354E+02  3936   0.139E+01    0.350E+00
DAV:   2    -0.331732890726E+04   -0.14004E+01   -0.14838E+01  3968   0.171E+00    0.231E+00
DAV:   3    -0.331729868078E+04    0.30226E-01   -0.34568E-01  4352   0.439E-01    0.169E+00
DAV:   4    -0.331730068226E+04   -0.20015E-02   -0.75390E-02  4096   0.283E-01    0.111E+00
DAV:   5    -0.331732176728E+04   -0.21085E-01   -0.68236E-02  4096   0.264E-01    0.464E-01
DAV:   6    -0.331732176226E+04    0.50291E-05   -0.22054E-02  4192   0.162E-01    0.185E-01
DAV:   7    -0.331732217830E+04   -0.41605E-03   -0.31795E-03  3840   0.485E-02    0.126E-01
DAV:   8    -0.331732202055E+04    0.15775E-03   -0.79073E-04  4032   0.385E-02    0.541E-02
DAV:   9    -0.331732198970E+04    0.30849E-04   -0.43625E-04  3936   0.201E-02    0.209E-02
DAV:  10    -0.331732198605E+04    0.36558E-05   -0.75502E-05  4064   0.756E-03    0.121E-02
DAV:  11    -0.331732198703E+04   -0.97975E-06   -0.12119E-05  4160   0.379E-03    0.582E-03
DAV:  12    -0.331732198777E+04   -0.73796E-06   -0.29341E-06  3616   0.191E-03
  32 F= -.33314305E+04 E0= -.33314305E+04  d E =-.372961E-01
 BRION: g(F)=  0.292E-01 g(S)=  0.000E+00 retain N=  1 mean eig= 2.65
 eig:   2.649
 bond charge predicted
       N       E                     dE             d eps       ncg     rms          rms(c)
DAV:   1    -0.331655786247E+04    0.76412E+00   -0.31182E+02  3936   0.118E+01    0.313E+00
DAV:   2    -0.331730022813E+04   -0.74237E+00   -0.82806E+00  3776   0.141E+00    0.219E+00
DAV:   3    -0.331726716794E+04    0.33060E-01   -0.28759E-01  4096   0.422E-01    0.153E+00
DAV:   4    -0.331726972414E+04   -0.25562E-02   -0.11179E-01  4256   0.278E-01    0.112E+00
DAV:   5    -0.331729470855E+04   -0.24984E-01   -0.12586E-01  4288   0.315E-01    0.751E-01
DAV:   6    -0.331728890002E+04    0.58085E-02   -0.47719E-02  4320   0.206E-01    0.199E-01
DAV:   7    -0.331729001765E+04   -0.11176E-02   -0.48571E-03  3840   0.572E-02    0.126E-01
DAV:   8    -0.331728986976E+04    0.14790E-03   -0.12920E-03  4096   0.374E-02    0.519E-02
DAV:   9    -0.331728987797E+04   -0.82093E-05   -0.45740E-04  4224   0.203E-02    0.181E-02
DAV:  10    -0.331728988214E+04   -0.41720E-05   -0.44923E-05  4160   0.745E-03    0.137E-02
DAV:  11    -0.331728988361E+04   -0.14679E-05   -0.14269E-05  4128   0.372E-03    0.677E-03
DAV:  12    -0.331728988352E+04    0.83586E-07   -0.30353E-06  3488   0.214E-03
  33 F= -.33313995E+04 E0= -.33313995E+04  d E =0.309553E-01
 BRION: g(F)=  0.147E-02 g(S)=  0.000E+00 retain N=  1 mean eig= 2.16
 eig:   2.157
 bond charge predicted
       N       E                     dE             d eps       ncg     rms          rms(c)
DAV:   1    -0.331728910929E+04    0.77432E-03   -0.74602E+00  3936   0.185E+00    0.423E-01
DAV:   2    -0.331729292936E+04   -0.38201E-02   -0.71385E-02  3904   0.148E-01    0.277E-01
DAV:   3    -0.331729384998E+04   -0.92061E-03   -0.14655E-03  4224   0.316E-02    0.167E-01
DAV:   4    -0.331729552653E+04   -0.16765E-02   -0.10507E-03  3680   0.286E-02    0.474E-02
DAV:   5    -0.331729552620E+04    0.32538E-06   -0.27329E-04  4160   0.133E-02    0.331E-02
DAV:   6    -0.331729552734E+04   -0.11406E-05   -0.44748E-05  4000   0.736E-03    0.185E-02
DAV:   7    -0.331729552760E+04   -0.25611E-06   -0.18313E-05  4064   0.381E-03    0.874E-03
DAV:   8    -0.331729552749E+04    0.10908E-06   -0.62628E-06  3776   0.267E-03
  34 F= -.33314049E+04 E0= -.33314049E+04  d E =-.545466E-02
 BRION: g(F)=  0.120E-02 g(S)=  0.000E+00 BRIONS problems: POTIM should be increased
 retain N=  1 mean eig= 8.88
 eig:   8.882
 bond charge predicted
       N       E                     dE             d eps       ncg     rms          rms(c)
DAV:   1    -0.331723556567E+04    0.59962E-01   -0.62571E+01  3904   0.536E+00    0.122E+00
DAV:   2    -0.331730117269E+04   -0.65607E-01   -0.80924E-01  3840   0.456E-01    0.797E-01
DAV:   3    -0.331730269996E+04   -0.15273E-02   -0.22135E-02  4448   0.109E-01    0.560E-01
DAV:   4    -0.331730843639E+04   -0.57364E-02   -0.17702E-02  4160   0.111E-01    0.283E-01
DAV:   5    -0.331731137693E+04   -0.29405E-02   -0.60733E-03  4032   0.734E-02    0.896E-02
DAV:   6    -0.331731147533E+04   -0.98406E-04   -0.59434E-04  3936   0.246E-02    0.657E-02
DAV:   7    -0.331731145227E+04    0.23060E-04   -0.39983E-04  3968   0.195E-02    0.175E-02
DAV:   8    -0.331731145633E+04   -0.40521E-05   -0.87479E-05  3904   0.909E-03    0.945E-03
DAV:   9    -0.331731145556E+04    0.76147E-06   -0.10949E-05  4192   0.337E-03    0.508E-03
DAV:  10    -0.331731145620E+04   -0.63854E-06   -0.22168E-06  3520   0.189E-03
  35 F= -.33314205E+04 E0= -.33314205E+04  d E =-.155107E-01
 BRION: g(F)=  0.127E-02 g(S)=  0.000E+00 retain N=  1 mean eig= 1.08
 eig:   1.080
 bond charge predicted
       N       E                     dE             d eps       ncg     rms          rms(c)
DAV:   1    -0.331729061040E+04    0.20845E-01   -0.13994E+01  3872   0.253E+00    0.586E-01
DAV:   2    -0.331729990154E+04   -0.92911E-02   -0.14517E-01  3840   0.213E-01    0.380E-01
DAV:   3    -0.331730068231E+04   -0.78077E-03   -0.37510E-03  4192   0.509E-02    0.268E-01
DAV:   4    -0.331730315123E+04   -0.24689E-02   -0.37782E-03  4224   0.499E-02    0.119E-01
DAV:   5    -0.331730373739E+04   -0.58616E-03   -0.17230E-03  4128   0.361E-02    0.555E-02
DAV:   6    -0.331730376062E+04   -0.23232E-04   -0.15816E-04  4128   0.148E-02    0.309E-02
DAV:   7    -0.331730377188E+04   -0.11256E-04   -0.49553E-05  4064   0.691E-03    0.170E-02
DAV:   8    -0.331730377418E+04   -0.23089E-05   -0.20005E-05  3936   0.428E-03    0.441E-03
DAV:   9    -0.331730377459E+04   -0.40245E-06   -0.51566E-06  3712   0.227E-03
  36 F= -.33314130E+04 E0= -.33314130E+04  d E =0.748326E-02
 BRION: g(F)=  0.920E-03 g(S)=  0.000E+00 retain N=  1 mean eig= 0.29
 eig:   0.291
 bond charge predicted
       N       E                     dE             d eps       ncg     rms          rms(c)
DAV:   1    -0.331730396910E+04   -0.19492E-03   -0.13806E-02  3776   0.798E-02    0.198E-02
DAV:   2    -0.331730398009E+04   -0.10994E-04   -0.23006E-04  4000   0.877E-03    0.140E-02
DAV:   3    -0.331730398258E+04   -0.24878E-05   -0.66187E-06  3872   0.219E-03    0.102E-02
DAV:   4    -0.331730398740E+04   -0.48208E-05   -0.57536E-06  3584   0.199E-03    0.531E-03
DAV:   5    -0.331730398916E+04   -0.17610E-05   -0.30268E-06  3200   0.164E-03    0.231E-03
DAV:   6    -0.331730398919E+04   -0.27590E-07   -0.24332E-07  2432   0.644E-04
  37 F= -.33314132E+04 E0= -.33314132E+04  d E =-.221983E-03
 BRION: g(F)=  0.979E-03 g(S)=  0.000E+00 retain N=  1 mean eig= 0.48
 eig:   0.484
 bond charge predicted
       N       E                     dE             d eps       ncg     rms          rms(c)
DAV:   1    -0.331730461200E+04   -0.62284E-03   -0.13601E-01  3904   0.250E-01    0.568E-02
DAV:   2    -0.331730463332E+04   -0.21318E-04   -0.11569E-03  3808   0.194E-02    0.369E-02
DAV:   3    -0.331730467386E+04   -0.40533E-04   -0.27222E-05  4288   0.449E-03    0.219E-02
DAV:   4    -0.331730471985E+04   -0.45998E-04   -0.21446E-05  3616   0.417E-03    0.721E-03
DAV:   5    -0.331730472074E+04   -0.89104E-06   -0.65326E-06  3456   0.216E-03
  38 F= -.33314139E+04 E0= -.33314139E+04  d E =-.719219E-03
 BRION: g(F)=  0.960E-03 g(S)=  0.000E+00 retain N=  1 mean eig= 1.16
 eig:   1.164
 bond charge predicted
       N       E                     dE             d eps       ncg     rms          rms(c)
DAV:   1    -0.331730530402E+04   -0.58416E-03   -0.13518E-01  3840   0.249E-01    0.575E-02
DAV:   2    -0.331730533355E+04   -0.29528E-04   -0.13136E-03  3808   0.205E-02    0.371E-02
DAV:   3    -0.331730537646E+04   -0.42915E-04   -0.32246E-05  4288   0.501E-03    0.232E-02
DAV:   4    -0.331730542397E+04   -0.47513E-04   -0.30211E-05  3744   0.497E-03    0.950E-03
DAV:   5    -0.331730542600E+04   -0.20301E-05   -0.10473E-05  3616   0.277E-03    0.466E-03
DAV:   6    -0.331730542660E+04   -0.59139E-06   -0.91111E-07  2944   0.122E-03
  39 F= -.33314146E+04 E0= -.33314146E+04  d E =-.712134E-03
 BRION: g(F)=  0.107E-02 g(S)=  0.000E+00 retain N=  1 mean eig= 0.75
 eig:   0.753
 bond charge predicted
       N       E                     dE             d eps       ncg     rms          rms(c)
DAV:   1    -0.331730559930E+04   -0.17330E-03   -0.68024E-03  3936   0.558E-02    0.140E-02
DAV:   2    -0.331730560180E+04   -0.24963E-05   -0.90984E-05  3936   0.543E-03    0.910E-03
DAV:   3    -0.331730560434E+04   -0.25393E-05   -0.19019E-06  3168   0.123E-03    0.604E-03
DAV:   4    -0.331730560728E+04   -0.29372E-05   -0.14190E-06  2560   0.965E-04    0.284E-03
DAV:   5    -0.331730560800E+04   -0.72387E-06   -0.70443E-07  2432   0.793E-04
  40 F= -.33314148E+04 E0= -.33314148E+04  d E =-.172878E-03
 BRION: g(F)=  0.100E-02 g(S)=  0.000E+00 retain N=  1 mean eig= 0.55
 eig:   0.551
 bond charge predicted
       N       E                     dE             d eps       ncg     rms          rms(c)
DAV:   1    -0.331730652502E+04   -0.91775E-03   -0.32954E-01  3968   0.388E-01    0.860E-02
DAV:   2    -0.331730658424E+04   -0.59213E-04   -0.27552E-03  3840   0.298E-02    0.565E-02
DAV:   3    -0.331730667911E+04   -0.94870E-04   -0.57658E-05  4192   0.645E-03    0.335E-02
DAV:   4    -0.331730677585E+04   -0.96740E-04   -0.35607E-05  3776   0.537E-03    0.844E-03
DAV:   5    -0.331730677808E+04   -0.22376E-05   -0.92070E-06  3744   0.241E-03    0.706E-03
DAV:   6    -0.331730677836E+04   -0.27299E-06   -0.21240E-06  3168   0.166E-03
  41 F= -.33314160E+04 E0= -.33314160E+04  d E =-.115846E-02
 BRION: g(F)=  0.998E-03 g(S)=  0.000E+00 retain N=  1 mean eig= 0.99
 eig:   0.992
 bond charge predicted
       N       E                     dE             d eps       ncg     rms          rms(c)
DAV:   1    -0.331730729304E+04   -0.51496E-03   -0.87869E-02  3904   0.200E-01    0.455E-02
DAV:   2    -0.331730732412E+04   -0.31078E-04   -0.93384E-04  3904   0.173E-02    0.295E-02
DAV:   3    -0.331730734783E+04   -0.23709E-04   -0.17865E-05  4096   0.351E-03    0.191E-02
DAV:   4    -0.331730737830E+04   -0.30474E-04   -0.13769E-05  3840   0.313E-03    0.640E-03
DAV:   5    -0.331730738039E+04   -0.20926E-05   -0.56496E-06  3328   0.197E-03    0.414E-03
DAV:   6    -0.331730738054E+04   -0.14214E-06   -0.53227E-07  2560   0.953E-04
  42 F= -.33314166E+04 E0= -.33314166E+04  d E =-.597251E-03
 BRION: g(F)=  0.104E-02 g(S)=  0.000E+00 retain N=  1 mean eig= 0.90
 eig:   0.901
 bond charge predicted
       N       E                     dE             d eps       ncg     rms          rms(c)
DAV:   1    -0.331730775178E+04   -0.37139E-03   -0.40814E-02  3904   0.137E-01    0.309E-02
DAV:   2    -0.331730776375E+04   -0.11970E-04   -0.39169E-04  3840   0.113E-02    0.198E-02
DAV:   3    -0.331730777437E+04   -0.10613E-04   -0.90210E-06  4064   0.254E-03    0.123E-02
DAV:   4    -0.331730778670E+04   -0.12332E-04   -0.81589E-06  3296   0.255E-03    0.488E-03
DAV:   5    -0.331730778717E+04   -0.47125E-06   -0.26916E-06  2944   0.143E-03
  43 F= -.33314170E+04 E0= -.33314170E+04  d E =-.406771E-03
 BRION: g(F)=  0.102E-02 g(S)=  0.000E+00 retain N=  1 mean eig= 0.91
 eig:   0.915
 bond charge predicted
       N       E                     dE             d eps       ncg     rms          rms(c)
DAV:   1    -0.331730861726E+04   -0.83056E-03   -0.26472E-01  3904   0.348E-01    0.765E-02
DAV:   2    -0.331730867646E+04   -0.59199E-04   -0.21965E-03  3808   0.267E-02    0.500E-02
DAV:   3    -0.331730874563E+04   -0.69170E-04   -0.55869E-05  4288   0.641E-03    0.297E-02
DAV:   4    -0.331730880974E+04   -0.64105E-04   -0.49128E-05  3840   0.626E-03    0.117E-02
DAV:   5    -0.331730881234E+04   -0.26010E-05   -0.15186E-05  3968   0.335E-03    0.643E-03
DAV:   6    -0.331730881310E+04   -0.75938E-06   -0.17003E-06  3200   0.156E-03
  44 F= -.33314180E+04 E0= -.33314180E+04  d E =-.102911E-02
 BRION: g(F)=  0.107E-02 g(S)=  0.000E+00 retain N=  1 mean eig= 1.40
 eig:   1.402
 bond charge predicted
       N       E                     dE             d eps       ncg     rms          rms(c)
DAV:   1    -0.331730890607E+04   -0.93732E-04   -0.20333E-03  3840   0.306E-02    0.768E-03
DAV:   2    -0.331730890742E+04   -0.13519E-05   -0.30449E-05  3904   0.317E-03    0.484E-03
DAV:   3    -0.331730890796E+04   -0.54424E-06   -0.44571E-07  2592   0.608E-04
  45 F= -.33314181E+04 E0= -.33314181E+04  d E =-.934612E-04
 BRION: g(F)=  0.104E-02 g(S)=  0.000E+00 retain N=  1 mean eig= 0.85
 eig:   0.849
 bond charge predicted
       N       E                     dE             d eps       ncg     rms          rms(c)
DAV:   1    -0.331730993647E+04   -0.10291E-02   -0.44031E-01  3840   0.448E-01    0.973E-02
DAV:   2    -0.331731001928E+04   -0.82803E-04   -0.33474E-03  3776   0.332E-02    0.643E-02
DAV:   3    -0.331731013097E+04   -0.11169E-03   -0.91749E-05  4256   0.827E-03    0.368E-02
DAV:   4    -0.331731022334E+04   -0.92375E-04   -0.76240E-05  3840   0.771E-03    0.143E-02
DAV:   5    -0.331731022738E+04   -0.40320E-05   -0.22607E-05  4000   0.409E-03    0.843E-03
DAV:   6    -0.331731022864E+04   -0.12672E-05   -0.27001E-06  3328   0.191E-03    0.431E-03
DAV:   7    -0.331731022909E+04   -0.44319E-06   -0.13699E-06  3008   0.107E-03
  46 F= -.33314194E+04 E0= -.33314194E+04  d E =-.132875E-02
 BRION: g(F)=  0.119E-02 g(S)=  0.000E+00 retain N=  1 mean eig= 2.07
 eig:   2.067
 bond charge predicted
       N       E                     dE             d eps       ncg     rms          rms(c)
DAV:   1    -0.331730861845E+04    0.16102E-02   -0.42264E-01  3840   0.439E-01    0.954E-02
DAV:   2    -0.331730873892E+04   -0.12048E-03   -0.35955E-03  3776   0.337E-02    0.622E-02
DAV:   3    -0.331730881805E+04   -0.79122E-04   -0.79033E-05  4256   0.738E-03    0.374E-02
DAV:   4    -0.331730893043E+04   -0.11239E-03   -0.57026E-05  3648   0.690E-03    0.107E-02
DAV:   5    -0.331730893184E+04   -0.14041E-05   -0.14270E-05  4000   0.311E-03    0.853E-03
DAV:   6    -0.331730893265E+04   -0.81595E-06   -0.25193E-06  3232   0.177E-03
  47 F= -.33314181E+04 E0= -.33314181E+04  d E =0.130484E-02
 BRION: g(F)=  0.105E-02 g(S)=  0.000E+00 retain N=  1 mean eig= 3.46
 eig:   3.458
 bond charge predicted
       N       E                     dE             d eps       ncg     rms          rms(c)
DAV:   1    -0.331730727542E+04    0.16564E-02   -0.42308E-01  3840   0.439E-01    0.952E-02
DAV:   2    -0.331730740930E+04   -0.13388E-03   -0.38131E-03  3872   0.350E-02    0.621E-02
DAV:   3    -0.331730749008E+04   -0.80780E-04   -0.75942E-05  4160   0.700E-03    0.382E-02
DAV:   4    -0.331730762242E+04   -0.13234E-03   -0.48297E-05  3648   0.623E-03    0.948E-03
DAV:   5    -0.331730762521E+04   -0.27892E-05   -0.90614E-06  3872   0.268E-03    0.657E-03
DAV:   6    -0.331730762583E+04   -0.61910E-06   -0.10702E-06  3008   0.997E-04
  48 F= -.33314168E+04 E0= -.33314168E+04  d E =0.131318E-02
 BRION: g(F)=  0.113E-02 g(S)=  0.000E+00 retain N=  1 mean eig= 1.77
 eig:   1.775
 bond charge predicted
       N       E                     dE             d eps       ncg     rms          rms(c)
DAV:   1    -0.331730869069E+04   -0.10655E-02   -0.37328E+00  3840   0.130E+00    0.278E-01
DAV:   2    -0.331731015033E+04   -0.14596E-02   -0.31564E-02  3872   0.994E-02    0.183E-01
DAV:   3    -0.331731072938E+04   -0.57905E-03   -0.72084E-04  4256   0.213E-02    0.107E-01
DAV:   4    -0.331731150179E+04   -0.77241E-03   -0.56303E-04  3776   0.206E-02    0.370E-02
DAV:   5    -0.331731151324E+04   -0.11453E-04   -0.15257E-04  3904   0.104E-02    0.254E-02
DAV:   6    -0.331731152172E+04   -0.84721E-05   -0.32287E-05  3904   0.582E-03    0.106E-02
DAV:   7    -0.331731152459E+04   -0.28774E-05   -0.93225E-06  3968   0.288E-03    0.422E-03
DAV:   8    -0.331731152475E+04   -0.15658E-06   -0.19514E-06  3328   0.147E-03
  49 F= -.33314207E+04 E0= -.33314207E+04  d E =-.391249E-02
 BRION: g(F)=  0.103E-02 g(S)=  0.000E+00 retain N=  1 mean eig= 1.97
 eig:   1.969
 bond charge predicted
       N       E                     dE             d eps       ncg     rms          rms(c)
DAV:   1    -0.331731155941E+04   -0.34816E-04   -0.58963E-04  3680   0.175E-02    0.444E-03
DAV:   2    -0.331731156010E+04   -0.69174E-06   -0.10562E-05  3872   0.189E-03    0.280E-03
DAV:   3    -0.331731156013E+04   -0.31549E-07   -0.13290E-07  2304   0.481E-04
  50 F= -.33314207E+04 E0= -.33314207E+04  d E =-.307401E-04
 BRION: g(F)=  0.103E-02 g(S)=  0.000E+00 retain N=  2 mean eig= 2.62
 eig:   3.079  2.165
 bond charge predicted
       N       E                     dE             d eps       ncg     rms          rms(c)
DAV:   1    -0.331728190728E+04    0.29653E-01   -0.40742E+01  3904   0.435E+00    0.967E-01
DAV:   2    -0.331731514552E+04   -0.33238E-01   -0.46055E-01  3840   0.363E-01    0.636E-01
DAV:   3    -0.331731711023E+04   -0.19647E-02   -0.11089E-02  4288   0.817E-02    0.416E-01
DAV:   4    -0.331732255783E+04   -0.54476E-02   -0.84000E-03  4096   0.797E-02    0.174E-01
DAV:   5    -0.331732366314E+04   -0.11053E-02   -0.26707E-03  4032   0.503E-02    0.712E-02
DAV:   6    -0.331732368579E+04   -0.22648E-04   -0.26716E-04  3936   0.173E-02    0.459E-02
DAV:   7    -0.331732367197E+04    0.13817E-04   -0.19746E-04  3904   0.133E-02    0.134E-02
DAV:   8    -0.331732367264E+04   -0.66846E-06   -0.45876E-05  3904   0.682E-03    0.733E-03
DAV:   9    -0.331732367202E+04    0.61980E-06   -0.64919E-06  4160   0.248E-03
  51 F= -.33314326E+04 E0= -.33314326E+04  d E =-.119026E-01
 BRION: g(F)=  0.827E-03 g(S)=  0.000E+00 BRIONS problems: POTIM should be increased
 retain N=  1 mean eig=33.23
 eig:  33.227
 bond charge predicted
       N       E                     dE             d eps       ncg     rms          rms(c)
DAV:   1    -0.331731174784E+04    0.11925E-01   -0.20523E+01  3936   0.310E+00    0.674E-01
DAV:   2    -0.331732531171E+04   -0.13564E-01   -0.20997E-01  3776   0.251E-01    0.440E-01
DAV:   3    -0.331732692779E+04   -0.16161E-02   -0.49445E-03  4288   0.561E-02    0.279E-01
DAV:   4    -0.331733020620E+04   -0.32784E-02   -0.34482E-03  3968   0.522E-02    0.103E-01
DAV:   5    -0.331733066270E+04   -0.45649E-03   -0.10092E-03  4000   0.309E-02    0.523E-02
DAV:   6    -0.331733067483E+04   -0.12134E-04   -0.11570E-04  3936   0.116E-02    0.303E-02
DAV:   7    -0.331733067682E+04   -0.19887E-05   -0.87052E-05  3968   0.847E-03    0.909E-03
DAV:   8    -0.331733067675E+04    0.68569E-07   -0.19820E-05  3968   0.458E-03    0.481E-03
DAV:   9    -0.331733067652E+04    0.23271E-06   -0.31139E-06  3840   0.170E-03
  52 F= -.33314396E+04 E0= -.33314396E+04  d E =-.698529E-02
 BRION: g(F)=  0.128E-02 g(S)=  0.000E+00 retain N=  1 mean eig= 0.86
 eig:   0.861
 bond charge predicted
       N       E                     dE             d eps       ncg     rms          rms(c)
DAV:   1    -0.331731971600E+04    0.10961E-01   -0.76575E+00  3904   0.189E+00    0.428E-01
DAV:   2    -0.331732376037E+04   -0.40444E-02   -0.77194E-02  3808   0.158E-01    0.271E-01
DAV:   3    -0.331732467494E+04   -0.91457E-03   -0.15456E-03  4224   0.337E-02    0.181E-01
DAV:   4    -0.331732649061E+04   -0.18157E-02   -0.11976E-03  4064   0.310E-02    0.496E-02
DAV:   5    -0.331732658119E+04   -0.90576E-04   -0.34328E-04  4032   0.166E-02    0.354E-02
DAV:   6    -0.331732657855E+04    0.26358E-05   -0.55226E-05  4224   0.853E-03    0.207E-02
DAV:   7    -0.331732658076E+04   -0.22125E-05   -0.18092E-05  3936   0.444E-03    0.104E-02
DAV:   8    -0.331732658037E+04    0.38953E-06   -0.10909E-05  3872   0.301E-03    0.228E-03
DAV:   9    -0.331732658050E+04   -0.12689E-06   -0.22671E-06  3200   0.126E-03
  53 F= -.33314356E+04 E0= -.33314356E+04  d E =0.405589E-02
 BRION: g(F)=  0.724E-03 g(S)=  0.000E+00 retain N=  1 mean eig= 0.72
 eig:   0.723
 bond charge predicted
       N       E                     dE             d eps       ncg     rms          rms(c)
DAV:   1    -0.331732743880E+04   -0.85843E-03   -0.10100E+00  3840   0.684E-01    0.146E-01
DAV:   2    -0.331732780473E+04   -0.36592E-03   -0.83751E-03  3808   0.525E-02    0.957E-02
DAV:   3    -0.331732796837E+04   -0.16365E-03   -0.17790E-04  4256   0.112E-02    0.555E-02
DAV:   4    -0.331732816210E+04   -0.19373E-03   -0.10826E-04  3680   0.953E-03    0.139E-02
DAV:   5    -0.331732816437E+04   -0.22763E-05   -0.22421E-05  4032   0.408E-03    0.117E-02
DAV:   6    -0.331732816523E+04   -0.86066E-06   -0.58808E-06  3648   0.242E-03
  54 F= -.33314372E+04 E0= -.33314372E+04  d E =-.160897E-02
 BRION: g(F)=  0.675E-03 g(S)=  0.000E+00 retain N=  1 mean eig= 1.27
 eig:   1.273
 bond charge predicted
       N       E                     dE             d eps       ncg     rms          rms(c)
DAV:   1    -0.331732289757E+04    0.52668E-02   -0.11961E+01  3840   0.236E+00    0.502E-01
DAV:   2    -0.331732990515E+04   -0.70076E-02   -0.11502E-01  3808   0.188E-01    0.326E-01
DAV:   3    -0.331733103861E+04   -0.11335E-02   -0.25370E-03  4288   0.399E-02    0.201E-01
DAV:   4    -0.331733309884E+04   -0.20602E-02   -0.17807E-03  3776   0.380E-02    0.652E-02
DAV:   5    -0.331733325930E+04   -0.16045E-03   -0.46476E-04  3936   0.201E-02    0.433E-02
DAV:   6    -0.331733327357E+04   -0.14273E-04   -0.89186E-05  3936   0.969E-03    0.180E-02
DAV:   7    -0.331733327902E+04   -0.54479E-05   -0.33637E-05  4064   0.506E-03    0.675E-03
DAV:   8    -0.331733327868E+04    0.34366E-06   -0.66051E-06  3904   0.288E-03
  55 F= -.33314424E+04 E0= -.33314424E+04  d E =-.522412E-02
 BRION: g(F)=  0.980E-03 g(S)=  0.000E+00 retain N=  1 mean eig= 5.65
 eig:   5.649
 bond charge predicted
       N       E                     dE             d eps       ncg     rms          rms(c)
DAV:   1    -0.331732071802E+04    0.12561E-01   -0.89251E+00  3904   0.204E+00    0.442E-01
DAV:   2    -0.331732582278E+04   -0.51048E-02   -0.90156E-02  3808   0.169E-01    0.287E-01
DAV:   3    -0.331732670527E+04   -0.88249E-03   -0.18445E-03  4224   0.357E-02    0.194E-01
DAV:   4    -0.331732865237E+04   -0.19471E-02   -0.14426E-03  4096   0.336E-02    0.629E-02
DAV:   5    -0.331732884595E+04   -0.19358E-03   -0.46166E-04  4064   0.199E-02    0.414E-02
DAV:   6    -0.331732884852E+04   -0.25698E-05   -0.62926E-05  4192   0.926E-03    0.240E-02
DAV:   7    -0.331732885174E+04   -0.32129E-05   -0.25838E-05  3936   0.539E-03    0.106E-02
DAV:   8    -0.331732885238E+04   -0.64052E-06   -0.11064E-05  4096   0.310E-03    0.267E-03
DAV:   9    -0.331732885246E+04   -0.86031E-07   -0.15266E-06  3072   0.136E-03
  56 F= -.33314379E+04 E0= -.33314379E+04  d E =0.449092E-02
 BRION: g(F)=  0.781E-03 g(S)=  0.000E+00 retain N=  1 mean eig= 2.32
 eig:   2.321
 bond charge predicted
       N       E                     dE             d eps       ncg     rms          rms(c)
DAV:   1    -0.331732934216E+04   -0.48978E-03   -0.25564E+00  3872   0.109E+00    0.229E-01
DAV:   2    -0.331733034183E+04   -0.99968E-03   -0.21893E-02  3840   0.840E-02    0.150E-01
DAV:   3    -0.331733075559E+04   -0.41375E-03   -0.46924E-04  4224   0.178E-02    0.874E-02
DAV:   4    -0.331733125078E+04   -0.49519E-03   -0.30079E-04  3712   0.157E-02    0.238E-02
DAV:   5    -0.331733126013E+04   -0.93539E-05   -0.63787E-05  3968   0.685E-03    0.201E-02
DAV:   6    -0.331733126499E+04   -0.48649E-05   -0.19658E-05  3776   0.447E-03    0.816E-03
DAV:   7    -0.331733126678E+04   -0.17870E-05   -0.57333E-06  3872   0.242E-03    0.302E-03
DAV:   8    -0.331733126683E+04   -0.53435E-07   -0.10225E-06  3040   0.110E-03
  57 F= -.33314404E+04 E0= -.33314404E+04  d E =-.248113E-02
 BRION: g(F)=  0.617E-03 g(S)=  0.000E+00 retain N=  1 mean eig= 7.93
 eig:   7.932
 bond charge predicted
       N       E                     dE             d eps       ncg     rms          rms(c)
DAV:   1    -0.331732979705E+04    0.14697E-02   -0.67490E+00  3872   0.177E+00    0.367E-01
DAV:   2    -0.331733295016E+04   -0.31531E-02   -0.58114E-02  3840   0.136E-01    0.242E-01
DAV:   3    -0.331733371071E+04   -0.76055E-03   -0.14150E-03  4256   0.308E-02    0.144E-01
DAV:   4    -0.331733488985E+04   -0.11791E-02   -0.95878E-04  3776   0.281E-02    0.469E-02
DAV:   5    -0.331733498261E+04   -0.92762E-04   -0.23314E-04  3968   0.142E-02    0.334E-02
DAV:   6    -0.331733499503E+04   -0.12417E-04   -0.46885E-05  3904   0.708E-03    0.139E-02
DAV:   7    -0.331733499933E+04   -0.43006E-05   -0.19759E-05  4064   0.375E-03    0.482E-03
DAV:   8    -0.331733499907E+04    0.26019E-06   -0.38337E-06  3648   0.213E-03
  58 F= -.33314443E+04 E0= -.33314443E+04  d E =-.388015E-02
 BRION: g(F)=  0.656E-03 g(S)=  0.000E+00 retain N=  1 mean eig= 1.24
 eig:   1.241
 bond charge predicted
       N       E                     dE             d eps       ncg     rms          rms(c)
DAV:   1    -0.331732069033E+04    0.14309E-01   -0.10739E+01  3840   0.224E+00    0.477E-01
DAV:   2    -0.331732696455E+04   -0.62742E-02   -0.10670E-01  3680   0.182E-01    0.308E-01
DAV:   3    -0.331732783872E+04   -0.87417E-03   -0.21033E-03  4288   0.371E-02    0.204E-01
DAV:   4    -0.331733011890E+04   -0.22802E-02   -0.16169E-03  3936   0.356E-02    0.560E-02
DAV:   5    -0.331733024098E+04   -0.12208E-03   -0.42067E-04  3936   0.178E-02    0.445E-02
DAV:   6    -0.331733024407E+04   -0.30964E-05   -0.73182E-05  4032   0.973E-03    0.257E-02
DAV:   7    -0.331733025258E+04   -0.85052E-05   -0.28878E-05  3968   0.573E-03    0.108E-02
DAV:   8    -0.331733025350E+04   -0.91607E-06   -0.12220E-05  4032   0.325E-03    0.276E-03
DAV:   9    -0.331733025354E+04   -0.40513E-07   -0.18581E-06  3232   0.136E-03
  59 F= -.33314394E+04 E0= -.33314394E+04  d E =0.492396E-02
 BRION: g(F)=  0.761E-03 g(S)=  0.000E+00 retain N=  1 mean eig= 1.65
 eig:   1.650
 bond charge predicted
       N       E                     dE             d eps       ncg     rms          rms(c)
DAV:   1    -0.331732946615E+04    0.78734E-03   -0.56282E+00  3776   0.162E+00    0.335E-01
DAV:   2    -0.331733195901E+04   -0.24929E-02   -0.47854E-02  3840   0.124E-01    0.221E-01
DAV:   3    -0.331733263102E+04   -0.67202E-03   -0.11874E-03  4256   0.286E-02    0.131E-01
DAV:   4    -0.331733360815E+04   -0.97713E-03   -0.80563E-04  3808   0.257E-02    0.433E-02
DAV:   5    -0.331733369406E+04   -0.85904E-04   -0.19871E-04  3904   0.131E-02    0.306E-02
DAV:   6    -0.331733370705E+04   -0.12988E-04   -0.36488E-05  3904   0.634E-03    0.132E-02
DAV:   7    -0.331733371109E+04   -0.40393E-05   -0.17294E-05  4064   0.350E-03    0.437E-03
DAV:   8    -0.331733371085E+04    0.23178E-06   -0.34813E-06  3584   0.201E-03
  60 F= -.33314430E+04 E0= -.33314430E+04  d E =-.360341E-02
 BRION: g(F)=  0.575E-03 g(S)=  0.000E+00 retain N=  1 mean eig= 1.33
 eig:   1.328
 bond charge predicted
       N       E                     dE             d eps       ncg     rms          rms(c)
DAV:   1    -0.331733349532E+04    0.21577E-03   -0.37992E+00  3776   0.133E+00    0.275E-01
DAV:   2    -0.331733518341E+04   -0.16881E-02   -0.32959E-02  3840   0.103E-01    0.180E-01
DAV:   3    -0.331733565182E+04   -0.46841E-03   -0.75105E-04  4224   0.223E-02    0.106E-01
DAV:   4    -0.331733641687E+04   -0.76505E-03   -0.50028E-04  3712   0.204E-02    0.317E-02
DAV:   5    -0.331733645246E+04   -0.35585E-04   -0.11326E-04  3968   0.946E-03    0.256E-02
DAV:   6    -0.331733646096E+04   -0.85047E-05   -0.32278E-05  3904   0.568E-03    0.947E-03
DAV:   7    -0.331733646360E+04   -0.26418E-05   -0.96609E-06  3936   0.278E-03    0.350E-03
DAV:   8    -0.331733646356E+04    0.47963E-07   -0.15089E-06  3328   0.139E-03
  61 F= -.33314458E+04 E0= -.33314458E+04  d E =-.289098E-02
 BRION: g(F)=  0.656E-03 g(S)=  0.000E+00 retain N=  1 mean eig= 6.04
 eig:   6.039
 bond charge predicted
       N       E                     dE             d eps       ncg     rms          rms(c)
DAV:   1    -0.331732999768E+04    0.64659E-02   -0.42516E+00  3840   0.141E+00    0.294E-01
DAV:   2    -0.331733200868E+04   -0.20110E-02   -0.39228E-02  3744   0.113E-01    0.193E-01
DAV:   3    -0.331733254098E+04   -0.53230E-03   -0.78488E-04  4288   0.228E-02    0.123E-01
DAV:   4    -0.331733346805E+04   -0.92707E-03   -0.55755E-04  3904   0.210E-02    0.336E-02
DAV:   5    -0.331733351988E+04   -0.51833E-04   -0.13479E-04  3936   0.100E-02    0.272E-02
DAV:   6    -0.331733352533E+04   -0.54500E-05   -0.23128E-05  4064   0.551E-03    0.154E-02
DAV:   7    -0.331733353010E+04   -0.47677E-05   -0.11800E-05  3936   0.372E-03    0.518E-03
DAV:   8    -0.331733353058E+04   -0.48778E-06   -0.35620E-06  3680   0.181E-03
  62 F= -.33314428E+04 E0= -.33314428E+04  d E =0.306175E-02
 BRION: g(F)=  0.575E-03 g(S)=  0.000E+00 retain N=  1 mean eig= 2.71
 eig:   2.708
 bond charge predicted
       N       E                     dE             d eps       ncg     rms          rms(c)
DAV:   1    -0.331733422844E+04   -0.69834E-03   -0.11067E+00  3776   0.719E-01    0.147E-01
DAV:   2    -0.331733459579E+04   -0.36735E-03   -0.90630E-03  3840   0.548E-02    0.968E-02
DAV:   3    -0.331733478031E+04   -0.18452E-03   -0.20511E-04  4192   0.118E-02    0.557E-02
DAV:   4    -0.331733502159E+04   -0.24128E-03   -0.12907E-04  3712   0.103E-02    0.158E-02
DAV:   5    -0.331733502700E+04   -0.54106E-05   -0.26902E-05  4032   0.443E-03    0.136E-02
DAV:   6    -0.331733502993E+04   -0.29256E-05   -0.89552E-06  3552   0.300E-03    0.508E-03
DAV:   7    -0.331733503078E+04   -0.85076E-06   -0.24249E-06  3296   0.161E-03
  63 F= -.33314444E+04 E0= -.33314444E+04  d E =-.158348E-02
 BRION: g(F)=  0.576E-03 g(S)=  0.000E+00 retain N=  1 mean eig= 1.25
 eig:   1.253
 bond charge predicted
       N       E                     dE             d eps       ncg     rms          rms(c)
DAV:   1    -0.331733475368E+04    0.27625E-03   -0.31274E-02  3840   0.122E-01    0.275E-02
DAV:   2    -0.331733476989E+04   -0.16219E-04   -0.35595E-04  3776   0.107E-02    0.178E-02
DAV:   3    -0.331733477416E+04   -0.42702E-05   -0.95855E-06  4160   0.268E-03    0.110E-02
DAV:   4    -0.331733478163E+04   -0.74707E-05   -0.57423E-06  3328   0.222E-03    0.448E-03
DAV:   5    -0.331733478304E+04   -0.14007E-05   -0.18510E-06  3072   0.133E-03    0.244E-03
DAV:   6    -0.331733478323E+04   -0.19034E-06   -0.12750E-07  2208   0.596E-04
  64 F= -.33314441E+04 E0= -.33314441E+04  d E =0.256570E-03
 BRION: g(F)=  0.681E-03 g(S)=  0.000E+00 retain N=  1 mean eig= 0.03
 eig:   0.027
 bond charge predicted
       N       E                     dE             d eps       ncg     rms          rms(c)
DAV:   1    -0.331733534847E+04   -0.56543E-03   -0.28021E-01  3712   0.362E-01    0.733E-02
DAV:   2    -0.331733541195E+04   -0.63485E-04   -0.21342E-03  3712   0.269E-02    0.489E-02
DAV:   3    -0.331733546755E+04   -0.55600E-04   -0.59718E-05  4224   0.671E-03    0.278E-02
DAV:   4    -0.331733552568E+04   -0.58126E-04   -0.37937E-05  3808   0.570E-03    0.952E-03
DAV:   5    -0.331733553051E+04   -0.48351E-05   -0.91189E-06  3904   0.281E-03    0.704E-03
DAV:   6    -0.331733553153E+04   -0.10192E-05   -0.14953E-06  3104   0.139E-03    0.317E-03
DAV:   7    -0.331733553182E+04   -0.28615E-06   -0.82118E-07  2848   0.822E-04
  65 F= -.33314449E+04 E0= -.33314449E+04  d E =-.799215E-03
 BRION: g(F)=  0.578E-03 g(S)=  0.000E+00 retain N=  1 mean eig= 0.72
 eig:   0.718
 bond charge predicted
       N       E                     dE             d eps       ncg     rms          rms(c)
DAV:   1    -0.331733594068E+04   -0.40915E-03   -0.13264E-01  3712   0.250E-01    0.496E-02
DAV:   2    -0.331733597245E+04   -0.31775E-04   -0.10457E-03  3808   0.187E-02    0.330E-02
DAV:   3    -0.331733599813E+04   -0.25680E-04   -0.25275E-05  4256   0.419E-03    0.190E-02
DAV:   4    -0.331733602963E+04   -0.31495E-04   -0.16475E-05  3744   0.373E-03    0.577E-03
DAV:   5    -0.331733603065E+04   -0.10184E-05   -0.35586E-06  3424   0.165E-03    0.493E-03
DAV:   6    -0.331733603115E+04   -0.50524E-06   -0.10629E-06  3008   0.109E-03
  66 F= -.33314455E+04 E0= -.33314455E+04  d E =-.541030E-03
 BRION: g(F)=  0.561E-03 g(S)=  0.000E+00 BRIONS problems: POTIM should be increased
 retain N=  1 mean eig=23.70
 eig:  23.696
 bond charge predicted
       N       E                     dE             d eps       ncg     rms          rms(c)
DAV:   1    -0.331731051143E+04    0.25519E-01   -0.37568E+01  3712   0.420E+00    0.840E-01
DAV:   2    -0.331733917035E+04   -0.28659E-01   -0.37274E-01  3872   0.345E-01    0.556E-01
DAV:   3    -0.331733961121E+04   -0.44085E-03   -0.92460E-03  4288   0.800E-02    0.379E-01
DAV:   4    -0.331734333301E+04   -0.37218E-02   -0.62116E-03  4064   0.733E-02    0.134E-01
DAV:   5    -0.331734460953E+04   -0.12765E-02   -0.17262E-03  4000   0.398E-02    0.876E-02
DAV:   6    -0.331734467806E+04   -0.68533E-04   -0.21195E-04  3968   0.156E-02    0.534E-02
DAV:   7    -0.331734473087E+04   -0.52809E-04   -0.17431E-04  3968   0.127E-02    0.165E-02
DAV:   8    -0.331734473470E+04   -0.38234E-05   -0.35745E-05  3904   0.612E-03    0.583E-03
DAV:   9    -0.331734473494E+04   -0.24121E-06   -0.46483E-06  4032   0.240E-03
  67 F= -.33314548E+04 E0= -.33314548E+04  d E =-.938349E-02
 BRION: g(F)=  0.246E-02 g(S)=  0.000E+00 retain N=  1 mean eig= 1.27
 eig:   1.272
 bond charge predicted
       N       E                     dE             d eps       ncg     rms          rms(c)
DAV:   1    -0.331730157312E+04    0.43162E-01   -0.33553E+01  3808   0.400E+00    0.800E-01
DAV:   2    -0.331733135065E+04   -0.29778E-01   -0.37857E-01  3744   0.334E-01    0.535E-01
DAV:   3    -0.331733141013E+04   -0.59481E-04   -0.75224E-03  4256   0.679E-02    0.379E-01
DAV:   4    -0.331733537714E+04   -0.39670E-02   -0.60531E-03  4064   0.698E-02    0.133E-01
DAV:   5    -0.331733637310E+04   -0.99597E-03   -0.20211E-03  4064   0.435E-02    0.902E-02
DAV:   6    -0.331733641214E+04   -0.39039E-04   -0.31725E-04  4000   0.206E-02    0.516E-02
DAV:   7    -0.331733647104E+04   -0.58900E-04   -0.12005E-04  3968   0.112E-02    0.240E-02
DAV:   8    -0.331733648169E+04   -0.10645E-04   -0.47442E-05  4160   0.659E-03    0.561E-03
DAV:   9    -0.331733648198E+04   -0.29174E-06   -0.80682E-06  3872   0.300E-03
  68 F= -.33314459E+04 E0= -.33314459E+04  d E =0.889837E-02
 BRION: g(F)=  0.576E-03 g(S)=  0.000E+00 retain N=  1 mean eig= 1.21
 eig:   1.206
 bond charge predicted
       N       E                     dE             d eps       ncg     rms          rms(c)
DAV:   1    -0.331733592681E+04    0.55487E-03   -0.11111E-01  3840   0.229E-01    0.459E-02
DAV:   2    -0.331733596423E+04   -0.37414E-04   -0.10578E-03  3744   0.191E-02    0.302E-02
DAV:   3    -0.331733598797E+04   -0.23746E-04   -0.22503E-05  4256   0.376E-03    0.190E-02
DAV:   4    -0.331733602310E+04   -0.35131E-04   -0.16177E-05  3616   0.368E-03    0.524E-03
DAV:   5    -0.331733602381E+04   -0.70967E-06   -0.38216E-06  3456   0.161E-03
  69 F= -.33314454E+04 E0= -.33314454E+04  d E =0.494138E-03
 BRION: g(F)=  0.581E-03 g(S)=  0.000E+00 BRIONS problems: POTIM should be increased
 retain N=  1 mean eig= 9.77
 eig:   9.773
 bond charge predicted
       N       E                     dE             d eps       ncg     rms          rms(c)
DAV:   1    -0.331733655849E+04   -0.53538E-03   -0.21788E+00  3712   0.101E+00    0.198E-01
DAV:   2    -0.331733733213E+04   -0.77364E-03   -0.16842E-02  3712   0.754E-02    0.133E-01
DAV:   3    -0.331733756881E+04   -0.23668E-03   -0.45764E-04  4224   0.181E-02    0.769E-02
DAV:   4    -0.331733800185E+04   -0.43304E-03   -0.30645E-04  3808   0.160E-02    0.263E-02
DAV:   5    -0.331733804581E+04   -0.43966E-04   -0.68904E-05  3904   0.759E-03    0.202E-02
DAV:   6    -0.331733805539E+04   -0.95742E-05   -0.13538E-05  3904   0.375E-03    0.856E-03
DAV:   7    -0.331733805856E+04   -0.31673E-05   -0.65023E-06  3872   0.209E-03    0.253E-03
DAV:   8    -0.331733805848E+04    0.73807E-07   -0.12269E-06  3200   0.116E-03
  70 F= -.33314476E+04 E0= -.33314476E+04  d E =-.219693E-02
 BRION: g(F)=  0.592E-03 g(S)=  0.000E+00 retain N=  1 mean eig= 3.09
 eig:   3.091
 bond charge predicted
       N       E                     dE             d eps       ncg     rms          rms(c)
DAV:   1    -0.331733728149E+04    0.77706E-03   -0.20124E-01  3776   0.308E-01    0.612E-02
DAV:   2    -0.331733733665E+04   -0.55161E-04   -0.17158E-03  3680   0.238E-02    0.403E-02
DAV:   3    -0.331733737986E+04   -0.43204E-04   -0.38440E-05  4256   0.505E-03    0.239E-02
DAV:   4    -0.331733743453E+04   -0.54669E-04   -0.25560E-05  3680   0.465E-03    0.699E-03
DAV:   5    -0.331733743639E+04   -0.18674E-05   -0.57501E-06  3712   0.205E-03    0.604E-03
DAV:   6    -0.331733743745E+04   -0.10520E-05   -0.15496E-06  3104   0.131E-03    0.230E-03
DAV:   7    -0.331733743767E+04   -0.22189E-06   -0.38639E-07  2496   0.690E-04
  71 F= -.33314470E+04 E0= -.33314470E+04  d E =0.669286E-03
 BRION: g(F)=  0.565E-03 g(S)=  0.000E+00 retain N=  1 mean eig= 2.13
 eig:   2.135
 bond charge predicted
       N       E                     dE             d eps       ncg     rms          rms(c)
DAV:   1    -0.331733770239E+04   -0.26495E-03   -0.46461E-02  3712   0.148E-01    0.293E-02
DAV:   2    -0.331733771333E+04   -0.10936E-04   -0.37120E-04  3744   0.112E-02    0.194E-02
DAV:   3    -0.331733772257E+04   -0.92353E-05   -0.86050E-06  4032   0.243E-03    0.112E-02
DAV:   4    -0.331733773533E+04   -0.12763E-04   -0.57238E-06  3488   0.221E-03    0.334E-03
DAV:   5    -0.331733773570E+04   -0.36927E-06   -0.11166E-06  2912   0.955E-04
  72 F= -.33314473E+04 E0= -.33314473E+04  d E =-.322134E-03
 BRION: g(F)=  0.567E-03 g(S)=  0.000E+00 BRIONS problems: POTIM should be increased
 retain N=  1 mean eig=24.66
 eig:  24.660
 bond charge predicted
       N       E                     dE             d eps       ncg     rms          rms(c)
DAV:   1    -0.331733242688E+04    0.53084E-02   -0.35891E+00  3776   0.130E+00    0.256E-01
DAV:   2    -0.331733399880E+04   -0.15719E-02   -0.29827E-02  3648   0.998E-02    0.171E-01
DAV:   3    -0.331733432987E+04   -0.33107E-03   -0.64012E-04  4256   0.202E-02    0.103E-01
DAV:   4    -0.331733508024E+04   -0.75038E-03   -0.44099E-04  3680   0.186E-02    0.282E-02
DAV:   5    -0.331733510656E+04   -0.26320E-04   -0.84556E-05  3968   0.754E-03    0.214E-02
DAV:   6    -0.331733511560E+04   -0.90402E-05   -0.16353E-05  4000   0.394E-03    0.101E-02
DAV:   7    -0.331733511798E+04   -0.23759E-05   -0.63886E-06  3936   0.317E-03    0.394E-03
DAV:   8    -0.331733511806E+04   -0.82538E-07   -0.18294E-06  3264   0.147E-03
  73 F= -.33314445E+04 E0= -.33314445E+04  d E =0.282096E-02
 BRION: g(F)=  0.588E-03 g(S)=  0.000E+00 retain N=  1 mean eig= 7.73
 eig:   7.727
 bond charge predicted
       N       E                     dE             d eps       ncg     rms          rms(c)
DAV:   1    -0.331733090277E+04    0.42152E-02   -0.11804E+01  3712   0.235E+00    0.465E-01
DAV:   2    -0.331733742351E+04   -0.65207E-02   -0.10000E-01  3808   0.182E-01    0.310E-01
DAV:   3    -0.331733797465E+04   -0.55114E-03   -0.27224E-03  4288   0.436E-02    0.195E-01
DAV:   4    -0.331733951055E+04   -0.15359E-02   -0.18794E-03  3936   0.395E-02    0.672E-02
DAV:   5    -0.331733982377E+04   -0.31321E-03   -0.45665E-04  3968   0.199E-02    0.476E-02
DAV:   6    -0.331733986586E+04   -0.42095E-04   -0.64043E-05  3936   0.830E-03    0.251E-02
DAV:   7    -0.331733989419E+04   -0.28330E-04   -0.46287E-05  4000   0.605E-03    0.690E-03
DAV:   8    -0.331733989470E+04   -0.51083E-06   -0.95064E-06  3904   0.305E-03
  74 F= -.33314496E+04 E0= -.33314496E+04  d E =-.514648E-02
 BRION: g(F)=  0.596E-03 g(S)=  0.000E+00 BRIONS problems: POTIM should be increased
 retain N=  1 mean eig=16.56
 eig:  16.556
 bond charge predicted
       N       E                     dE             d eps       ncg     rms          rms(c)
DAV:   1    -0.331733190761E+04    0.79866E-02   -0.56528E+00  3776   0.164E+00    0.324E-01
DAV:   2    -0.331733506210E+04   -0.31545E-02   -0.50317E-02  3648   0.127E-01    0.214E-01
DAV:   3    -0.331733544938E+04   -0.38728E-03   -0.10381E-03  4192   0.253E-02    0.133E-01
DAV:   4    -0.331733650093E+04   -0.10515E-02   -0.73285E-04  3648   0.238E-02    0.354E-02
DAV:   5    -0.331733654885E+04   -0.47920E-04   -0.14459E-04  3968   0.990E-03    0.272E-02
DAV:   6    -0.331733656522E+04   -0.16369E-04   -0.27239E-05  4032   0.508E-03    0.133E-02
DAV:   7    -0.331733656959E+04   -0.43737E-05   -0.10270E-05  4000   0.409E-03    0.523E-03
DAV:   8    -0.331733656981E+04   -0.21933E-06   -0.32752E-06  3584   0.189E-03
  75 F= -.33314460E+04 E0= -.33314460E+04  d E =0.358972E-02
 BRION: g(F)=  0.706E-03 g(S)=  0.000E+00 retain N=  1 mean eig= 4.43
 eig:   4.426
 bond charge predicted
       N       E                     dE             d eps       ncg     rms          rms(c)
DAV:   1    -0.331733598221E+04    0.58738E-03   -0.53188E+00  3712   0.158E+00    0.310E-01
DAV:   2    -0.331733834384E+04   -0.23616E-02   -0.41945E-02  3712   0.119E-01    0.208E-01
DAV:   3    -0.331733876744E+04   -0.42361E-03   -0.12049E-03  4256   0.296E-02    0.126E-01
DAV:   4    -0.331733959866E+04   -0.83122E-03   -0.81198E-04  3936   0.260E-02    0.438E-02
DAV:   5    -0.331733974739E+04   -0.14873E-03   -0.18501E-04  4000   0.126E-02    0.318E-02
DAV:   6    -0.331733977547E+04   -0.28081E-04   -0.27481E-05  3904   0.548E-03    0.162E-02
DAV:   7    -0.331733978639E+04   -0.10919E-04   -0.20071E-05  4000   0.386E-03    0.429E-03
DAV:   8    -0.331733978652E+04   -0.12910E-06   -0.41347E-06  3616   0.202E-03
  76 F= -.33314495E+04 E0= -.33314495E+04  d E =-.347247E-02
 BRION: g(F)=  0.617E-03 g(S)=  0.000E+00 retain N=  1 mean eig= 3.11
 eig:   3.111
 bond charge predicted
       N       E                     dE             d eps       ncg     rms          rms(c)
DAV:   1    -0.331733907671E+04    0.70969E-03   -0.16501E-01  3776   0.280E-01    0.558E-02
DAV:   2    -0.331733911613E+04   -0.39427E-04   -0.14454E-03  3712   0.220E-02    0.366E-02
DAV:   3    -0.331733915834E+04   -0.42208E-04   -0.30933E-05  4224   0.448E-03    0.220E-02
DAV:   4    -0.331733921109E+04   -0.52750E-04   -0.20379E-05  3680   0.409E-03    0.601E-03
DAV:   5    -0.331733921212E+04   -0.10293E-05   -0.43268E-06  3552   0.172E-03    0.528E-03
DAV:   6    -0.331733921283E+04   -0.71235E-06   -0.11572E-06  3008   0.112E-03
  77 F= -.33314489E+04 E0= -.33314489E+04  d E =0.618958E-03
 BRION: g(F)=  0.594E-03 g(S)=  0.000E+00 BRIONS problems: POTIM should be increased
 retain N=  1 mean eig=13.46
 eig:  13.464
 bond charge predicted
       N       E                     dE             d eps       ncg     rms          rms(c)
DAV:   1    -0.331732801390E+04    0.11198E-01   -0.86922E+00  3776   0.203E+00    0.400E-01
DAV:   2    -0.331733291313E+04   -0.48992E-02   -0.77037E-02  3680   0.158E-01    0.267E-01
DAV:   3    -0.331733346530E+04   -0.55217E-03   -0.15914E-03  4256   0.313E-02    0.169E-01
DAV:   4    -0.331733494918E+04   -0.14839E-02   -0.11610E-03  3776   0.297E-02    0.474E-02
DAV:   5    -0.331733505838E+04   -0.10919E-03   -0.26444E-04  3968   0.135E-02    0.398E-02
DAV:   6    -0.331733507705E+04   -0.18673E-04   -0.50533E-05  4032   0.788E-03    0.215E-02
DAV:   7    -0.331733508800E+04   -0.10953E-04   -0.25794E-05  3968   0.553E-03    0.678E-03
DAV:   8    -0.331733508881E+04   -0.80199E-06   -0.64783E-06  4000   0.249E-03
  78 F= -.33314445E+04 E0= -.33314445E+04  d E =0.442628E-02
 BRION: g(F)=  0.783E-03 g(S)=  0.000E+00 retain N=  1 mean eig= 2.54
 eig:   2.541
 bond charge predicted
       N       E                     dE             d eps       ncg     rms          rms(c)
DAV:   1    -0.331732826448E+04    0.68235E-02   -0.15459E+01  3712   0.269E+00    0.535E-01
DAV:   2    -0.331733765743E+04   -0.93930E-02   -0.13646E-01  3840   0.211E-01    0.354E-01
DAV:   3    -0.331733823535E+04   -0.57792E-03   -0.35703E-03  4256   0.495E-02    0.227E-01
DAV:   4    -0.331734012904E+04   -0.18937E-02   -0.24836E-03  3936   0.456E-02    0.779E-02
DAV:   5    -0.331734055455E+04   -0.42551E-03   -0.62603E-04  3968   0.234E-02    0.545E-02
DAV:   6    -0.331734059968E+04   -0.45133E-04   -0.85547E-05  3936   0.957E-03    0.293E-02
DAV:   7    -0.331734063118E+04   -0.31500E-04   -0.60390E-05  3968   0.702E-03    0.824E-03
DAV:   8    -0.331734063215E+04   -0.96904E-06   -0.12234E-05  3936   0.348E-03    0.366E-03
DAV:   9    -0.331734063242E+04   -0.27113E-06   -0.17860E-06  3360   0.143E-03
  79 F= -.33314504E+04 E0= -.33314504E+04  d E =-.594623E-02
 BRION: g(F)=  0.682E-03 g(S)=  0.000E+00 retain N=  1 mean eig= 0.76
 eig:   0.759
 bond charge predicted
       N       E                     dE             d eps       ncg     rms          rms(c)
DAV:   1    -0.331733812794E+04    0.25042E-02   -0.12010E+00  3712   0.754E-01    0.149E-01
DAV:   2    -0.331733857307E+04   -0.44512E-03   -0.98105E-03  3616   0.571E-02    0.986E-02
DAV:   3    -0.331733873505E+04   -0.16199E-03   -0.21773E-04  4192   0.118E-02    0.581E-02
DAV:   4    -0.331733904277E+04   -0.30772E-03   -0.14370E-04  3680   0.108E-02    0.162E-02
DAV:   5    -0.331733904955E+04   -0.67846E-05   -0.29535E-05  4064   0.457E-03    0.133E-02
DAV:   6    -0.331733905391E+04   -0.43602E-05   -0.77320E-06  3680   0.262E-03    0.603E-03
DAV:   7    -0.331733905511E+04   -0.11929E-05   -0.21483E-06  3328   0.161E-03    0.224E-03
DAV:   8    -0.331733905515E+04   -0.47032E-07   -0.32397E-07  2560   0.737E-04
  80 F= -.33314487E+04 E0= -.33314487E+04  d E =0.169679E-02
 BRION: g(F)=  0.657E-03 g(S)=  0.000E+00 BRIONS problems: POTIM should be increased
 retain N=  1 mean eig=10.74
 eig:  10.738
 bond charge predicted
       N       E                     dE             d eps       ncg     rms          rms(c)
DAV:   1    -0.331733907767E+04   -0.22565E-04   -0.35273E-02  3776   0.129E-01    0.366E-02
DAV:   2    -0.331733912370E+04   -0.46027E-04   -0.77362E-04  3712   0.157E-02    0.301E-02
DAV:   3    -0.331733911848E+04    0.52194E-05   -0.28513E-05  4352   0.492E-03    0.197E-02
DAV:   4    -0.331733912066E+04   -0.21842E-05   -0.20574E-05  3808   0.368E-03    0.857E-03
DAV:   5    -0.331733912366E+04   -0.29983E-05   -0.54976E-06  3776   0.217E-03    0.395E-03
DAV:   6    -0.331733912477E+04   -0.11084E-05   -0.75854E-07  2752   0.103E-03    0.209E-03
DAV:   7    -0.331733912491E+04   -0.13818E-06   -0.23793E-07  2400   0.599E-04
  81 F= -.33314488E+04 E0= -.33314488E+04  d E =-.106244E-03
 BRION: g(F)=  0.160E-02 g(S)=  0.000E+00 retain N=  1 mean eig= 0.17
 eig:   0.168
 bond charge predicted
       N       E                     dE             d eps       ncg     rms          rms(c)
DAV:   1    -0.331733955100E+04   -0.42622E-03   -0.84129E-02  3840   0.202E-01    0.452E-02
DAV:   2    -0.331733958954E+04   -0.38542E-04   -0.11317E-03  3872   0.193E-02    0.322E-02
DAV:   3    -0.331733960508E+04   -0.15540E-04   -0.31068E-05  4256   0.463E-03    0.196E-02
DAV:   4    -0.331733963635E+04   -0.31267E-04   -0.17281E-05  3840   0.360E-03    0.851E-03
DAV:   5    -0.331733964408E+04   -0.77328E-05   -0.59747E-06  3584   0.235E-03    0.490E-03
DAV:   6    -0.331733964506E+04   -0.98208E-06   -0.78013E-07  2752   0.110E-03
  82 F= -.33314493E+04 E0= -.33314493E+04  d E =-.533421E-03
 BRION: g(F)=  0.591E-03 g(S)=  0.000E+00 retain N=  1 mean eig= 0.37
 eig:   0.375
 bond charge predicted
       N       E                     dE             d eps       ncg     rms          rms(c)
DAV:   1    -0.331734008868E+04   -0.44460E-03   -0.14898E-01  3712   0.266E-01    0.519E-02
DAV:   2    -0.331734011526E+04   -0.26586E-04   -0.11756E-03  3744   0.200E-02    0.345E-02
DAV:   3    -0.331734015160E+04   -0.36340E-04   -0.29048E-05  4256   0.439E-03    0.201E-02
DAV:   4    -0.331734019783E+04   -0.46233E-04   -0.19537E-05  3744   0.408E-03    0.626E-03
DAV:   5    -0.331734019987E+04   -0.20310E-05   -0.41257E-06  3520   0.180E-03    0.531E-03
DAV:   6    -0.331734020083E+04   -0.96671E-06   -0.14029E-06  3072   0.117E-03
  83 F= -.33314499E+04 E0= -.33314499E+04  d E =-.596217E-03
 BRION: g(F)=  0.630E-03 g(S)=  0.000E+00 BRIONS problems: POTIM should be increased
 retain N=  1 mean eig=17.68
 eig:  17.682
 bond charge predicted
       N       E                     dE             d eps       ncg     rms          rms(c)
[...]
DAV:   2    -0.331733686351E+04   -0.79630E-05   -0.13165E-04  3872   0.699E-03    0.128E-02
DAV:   3    -0.331733686259E+04    0.91898E-06   -0.38295E-06  3776   0.182E-03
  94 F= -.33314464E+04 E0= -.33314464E+04  d E =0.779039E-04
 BRION: g(F)=  0.666E-03 g(S)=  0.000E+00 retain N=  1 mean eig= 0.19
 eig:   0.192
 bond charge predicted
       N       E                     dE             d eps       ncg     rms          rms(c)
DAV:   1    -0.331733730023E+04   -0.43672E-03   -0.16823E-01  3712   0.281E-01    0.549E-02
DAV:   2    -0.331733736729E+04   -0.67052E-04   -0.15056E-03  3712   0.224E-02    0.367E-02
DAV:   3    -0.331733738809E+04   -0.20806E-04   -0.42748E-05  4288   0.577E-03    0.230E-02
DAV:   4    -0.331733742604E+04   -0.37950E-04   -0.26725E-05  3968   0.473E-03    0.895E-03
DAV:   5    -0.331733743394E+04   -0.79033E-05   -0.73038E-06  3904   0.249E-03    0.583E-03
DAV:   6    -0.331733743509E+04   -0.11412E-05   -0.89457E-07  2912   0.111E-03    0.306E-03
DAV:   7    -0.331733743540E+04   -0.31374E-06   -0.65642E-07  2912   0.763E-04
  95 F= -.33314470E+04 E0= -.33314470E+04  d E =-.619866E-03
 BRION: g(F)=  0.575E-03 g(S)=  0.000E+00 retain N=  1 mean eig= 0.44
 eig:   0.436
 bond charge predicted
       N       E                     dE             d eps       ncg     rms          rms(c)
DAV:   1    -0.331733779242E+04   -0.35733E-03   -0.94925E-02  3712   0.212E-01    0.417E-02
DAV:   2    -0.331733781570E+04   -0.23278E-04   -0.76000E-04  3744   0.159E-02    0.276E-02
DAV:   3    -0.331733783529E+04   -0.19589E-04   -0.18045E-05  4256   0.349E-03    0.161E-02
DAV:   4    -0.331733786055E+04   -0.25266E-04   -0.12025E-05  3776   0.321E-03    0.498E-03
DAV:   5    -0.331733786162E+04   -0.10676E-05   -0.26212E-06  3264   0.145E-03    0.417E-03
DAV:   6    -0.331733786211E+04   -0.49104E-06   -0.74670E-07  2784   0.917E-04
  96 F= -.33314474E+04 E0= -.33314474E+04  d E =-.459110E-03
 BRION: g(F)=  0.576E-03 g(S)=  0.000E+00 retain N=  1 mean eig= 3.37
 eig:   3.370
 bond charge predicted
       N       E                     dE             d eps       ncg     rms          rms(c)
DAV:   1    -0.331733807648E+04   -0.21486E-03   -0.30982E-02  3840   0.122E-01    0.248E-02
DAV:   2    -0.331733808978E+04   -0.13302E-04   -0.32389E-04  3936   0.104E-02    0.165E-02
DAV:   3    -0.331733809535E+04   -0.55637E-05   -0.65360E-06  4032   0.192E-03    0.101E-02
DAV:   4    -0.331733810485E+04   -0.95073E-05   -0.37011E-06  3328   0.163E-03    0.302E-03
DAV:   5    -0.331733810563E+04   -0.77893E-06   -0.77885E-07  2752   0.755E-04
  97 F= -.33314477E+04 E0= -.33314477E+04  d E =-.257242E-03
 BRION: g(F)=  0.598E-03 g(S)=  0.000E+00 retain N=  1 mean eig= 0.60
 eig:   0.603
 bond charge predicted
       N       E                     dE             d eps       ncg     rms          rms(c)
DAV:   1    -0.331733842105E+04   -0.31619E-03   -0.70481E-02  3712   0.182E-01    0.365E-02
DAV:   2    -0.331733843816E+04   -0.17113E-04   -0.58808E-04  3712   0.140E-02    0.243E-02
DAV:   3    -0.331733845349E+04   -0.15328E-04   -0.15519E-05  4256   0.342E-03    0.146E-02
DAV:   4    -0.331733847227E+04   -0.18781E-04   -0.10333E-05  3744   0.301E-03    0.506E-03
DAV:   5    -0.331733847448E+04   -0.22064E-05   -0.24012E-06  3232   0.147E-03    0.361E-03
DAV:   6    -0.331733847485E+04   -0.37416E-06   -0.33086E-07  2464   0.719E-04
  98 F= -.33314481E+04 E0= -.33314481E+04  d E =-.399172E-03
 BRION: g(F)=  0.569E-03 g(S)=  0.000E+00 retain N=  1 mean eig= 0.54
 eig:   0.544
 bond charge predicted
       N       E                     dE             d eps       ncg     rms          rms(c)
DAV:   1    -0.331733887092E+04   -0.39644E-03   -0.11592E-01  3712   0.234E-01    0.456E-02
DAV:   2    -0.331733888531E+04   -0.14392E-04   -0.86968E-04  3744   0.172E-02    0.304E-02
DAV:   3    -0.331733891685E+04   -0.31547E-04   -0.22100E-05  4256   0.389E-03    0.173E-02
DAV:   4    -0.331733894815E+04   -0.31293E-04   -0.14623E-05  3776   0.352E-03    0.553E-03
DAV:   5    -0.331733894957E+04   -0.14233E-05   -0.29904E-06  3392   0.156E-03    0.466E-03
DAV:   6    -0.331733895023E+04   -0.66031E-06   -0.10586E-06  2976   0.105E-03
  99 F= -.33314486E+04 E0= -.33314486E+04  d E =-.509754E-03
 BRION: g(F)=  0.579E-03 g(S)=  0.000E+00 BRIONS problems: POTIM should be increased
 retain N=  1 mean eig=64.97
 eig:  64.971
 bond charge predicted
       N       E                     dE             d eps       ncg     rms          rms(c)
DAV:   1    -0.331655199818E+04    0.78695E+00   -0.30630E+02  4000   0.119E+01    0.281E+00
DAV:   2    -0.331731671472E+04   -0.76472E+00   -0.83497E+00  3776   0.133E+00    0.190E+00
DAV:   3    -0.331729232618E+04    0.24389E-01   -0.18749E-01  4128   0.332E-01    0.137E+00
DAV:   4    -0.331729266688E+04   -0.34070E-03   -0.75299E-02  4288   0.247E-01    0.908E-01
DAV:   5    -0.331730974612E+04   -0.17079E-01   -0.74135E-02  4064   0.263E-01    0.534E-01
DAV:   6    -0.331730805548E+04    0.16906E-02   -0.24685E-02  4096   0.164E-01    0.190E-01
DAV:   7    -0.331730870789E+04   -0.65240E-03   -0.33255E-03  3936   0.467E-02    0.136E-01
DAV:   8    -0.331730875933E+04   -0.51443E-04   -0.10433E-03  4096   0.381E-02    0.446E-02
DAV:   9    -0.331730879697E+04   -0.37643E-04   -0.44033E-04  4000   0.190E-02    0.218E-02
DAV:  10    -0.331730879898E+04   -0.20055E-05   -0.41657E-05  4160   0.697E-03    0.153E-02
DAV:  11    -0.331730880147E+04   -0.24869E-05   -0.17393E-05  4032   0.404E-03    0.613E-03
DAV:  12    -0.331730880160E+04   -0.13434E-06   -0.30928E-06  3680   0.186E-03
 100 F= -.33314167E+04 E0= -.33314167E+04  d E =0.319389E-01
 BRION: g(F)=  0.142E-01 g(S)=  0.000E+00 retain N=  1 mean eig= 1.67
 eig:   1.675
 bond charge predicted
       N       E                     dE             d eps       ncg     rms          rms(c)
DAV:   1    -0.331657715451E+04    0.73165E+00   -0.32809E+02  3744   0.122E+01    0.281E+00
DAV:   2    -0.331735214630E+04   -0.77499E+00   -0.84380E+00  3968   0.139E+00    0.194E+00
DAV:   3    -0.331732445259E+04    0.27694E-01   -0.17333E-01  4128   0.352E-01    0.142E+00
DAV:   4    -0.331732436700E+04    0.85593E-04   -0.67922E-02  3936   0.261E-01    0.786E-01
DAV:   5    -0.331733893286E+04   -0.14566E-01   -0.36555E-02  4192   0.202E-01    0.461E-01
DAV:   6    -0.331733897155E+04   -0.38688E-04   -0.16724E-02  4544   0.141E-01    0.168E-01
DAV:   7    -0.331733969762E+04   -0.72607E-03   -0.23358E-03  3872   0.489E-02    0.111E-01
DAV:   8    -0.331733975719E+04   -0.59568E-04   -0.92465E-04  4288   0.289E-02    0.331E-02
DAV:   9    -0.331733975886E+04   -0.16758E-05   -0.25840E-04  3968   0.135E-02    0.156E-02
DAV:  10    -0.331733975697E+04    0.18966E-05   -0.34793E-05  4224   0.592E-03    0.829E-03
DAV:  11    -0.331733976000E+04   -0.30344E-05   -0.75055E-06  4064   0.273E-03    0.384E-03
DAV:  12    -0.331733976015E+04   -0.14377E-06   -0.93006E-07  2976   0.126E-03
 101 F= -.33314495E+04 E0= -.33314495E+04  d E =-.328033E-01
 BRION: g(F)=  0.649E-03 g(S)=  0.000E+00 retain N=  1 mean eig= 1.88
 eig:   1.878
 bond charge predicted
       N       E                     dE             d eps       ncg     rms          rms(c)
DAV:   1    -0.331733980092E+04   -0.40918E-04   -0.38030E+00  3712   0.134E+00    0.262E-01
DAV:   2    -0.331734146252E+04   -0.16616E-02   -0.30625E-02  3776   0.102E-01    0.173E-01
DAV:   3    -0.331734186293E+04   -0.40041E-03   -0.77634E-04  4192   0.230E-02    0.105E-01
DAV:   4    -0.331734257938E+04   -0.71645E-03   -0.54008E-04  3936   0.215E-02    0.339E-02
DAV:   5    -0.331734265138E+04   -0.72004E-04   -0.12086E-04  4000   0.995E-03    0.266E-02
DAV:   6    -0.331734266448E+04   -0.13102E-04   -0.28072E-05  3936   0.512E-03    0.103E-02
DAV:   7    -0.331734266956E+04   -0.50780E-05   -0.99469E-06  3968   0.259E-03    0.323E-03
DAV:   8    -0.331734266951E+04    0.57626E-07   -0.14566E-06  3200   0.129E-03
 102 F= -.33314526E+04 E0= -.33314526E+04  d E =-.310386E-02
 BRION: g(F)=  0.915E-03 g(S)=  0.000E+00 retain N=  1 mean eig= 1.32
 eig:   1.320
 bond charge predicted
       N       E                     dE             d eps       ncg     rms          rms(c)
DAV:   1    -0.331732213495E+04    0.20535E-01   -0.16673E+01  3712   0.282E+00    0.548E-01
DAV:   2    -0.331733351978E+04   -0.11385E-01   -0.15675E-01  3680   0.222E-01    0.365E-01
DAV:   3    -0.331733414043E+04   -0.62064E-03   -0.31201E-03  4256   0.426E-02    0.238E-01
DAV:   4    -0.331733641432E+04   -0.22739E-02   -0.22890E-03  3808   0.414E-02    0.686E-02
DAV:   5    -0.331733669382E+04   -0.27950E-03   -0.57493E-04  4032   0.207E-02    0.561E-02
DAV:   6    -0.331733672621E+04   -0.32387E-04   -0.97012E-05  4032   0.111E-02    0.309E-02
DAV:   7    -0.331733675260E+04   -0.26394E-04   -0.55488E-05  3968   0.780E-03    0.956E-03
DAV:   8    -0.331733675453E+04   -0.19305E-05   -0.13623E-05  4064   0.353E-03    0.331E-03
DAV:   9    -0.331733675467E+04   -0.14133E-06   -0.10713E-06  3168   0.141E-03
 103 F= -.33314463E+04 E0= -.33314463E+04  d E =0.632163E-02
 BRION: g(F)=  0.774E-03 g(S)=  0.000E+00 BRIONS problems: POTIM should be increased
 retain N=  1 mean eig=68.17
 eig:  68.173
 bond charge predicted
       N       E                     dE             d eps       ncg     rms          rms(c)
DAV:   1    -0.331514690091E+04    0.21899E+01   -0.52395E+02  3968   0.155E+01    0.439E+00
DAV:   2    -0.331738765798E+04   -0.22408E+01   -0.24057E+01  3936   0.222E+00    0.317E+00
DAV:   3    -0.331728474147E+04    0.10292E+00   -0.65160E-01  4192   0.648E-01    0.202E+00
DAV:   4    -0.331727156718E+04    0.13174E-01   -0.14887E-01  4128   0.366E-01    0.144E+00
DAV:   5    -0.331729311821E+04   -0.21551E-01   -0.19908E-01  4256   0.414E-01    0.938E-01
DAV:   6    -0.331729227973E+04    0.83848E-03   -0.10900E-01  4448   0.291E-01    0.361E-01
DAV:   7    -0.331729320514E+04   -0.92541E-03   -0.11284E-02  4032   0.877E-02    0.184E-01
DAV:   8    -0.331729343920E+04   -0.23406E-03   -0.24053E-03  3968   0.599E-02    0.849E-02
DAV:   9    -0.331729350247E+04   -0.63263E-04   -0.96316E-04  4224   0.320E-02    0.323E-02
DAV:  10    -0.331729350593E+04   -0.34656E-05   -0.15147E-04  4128   0.139E-02    0.246E-02
DAV:  11    -0.331729350920E+04   -0.32699E-05   -0.49745E-05  4032   0.680E-03    0.113E-02
DAV:  12    -0.331729350861E+04    0.59442E-06   -0.66514E-06  4160   0.329E-03
 104 F= -.33314008E+04 E0= -.33314008E+04  d E =0.454914E-01
 BRION: g(F)=  0.314E-01 g(S)=  0.000E+00 retain N=  1 mean eig= 1.32
 eig:   1.323
 bond charge predicted
       N       E                     dE             d eps       ncg     rms          rms(c)
DAV:   1    -0.331462069321E+04    0.26728E+01   -0.64351E+02  3904   0.169E+01    0.474E+00
DAV:   2    -0.331747813985E+04   -0.28574E+01   -0.30571E+01  3968   0.266E+00    0.349E+00
DAV:   3    -0.331735116880E+04    0.12697E+00   -0.77149E-01  4032   0.783E-01    0.242E+00
DAV:   4    -0.331731752244E+04    0.33646E-01   -0.21539E-01  3840   0.469E-01    0.140E+00
DAV:   5    -0.331733423375E+04   -0.16711E-01   -0.10261E-01  4224   0.342E-01    0.797E-01
DAV:   6    -0.331733947175E+04   -0.52380E-02   -0.46970E-02  4512   0.248E-01    0.264E-01
DAV:   7    -0.331734095194E+04   -0.14802E-02   -0.77496E-03  4000   0.898E-02    0.169E-01
DAV:   8    -0.331734099159E+04   -0.39653E-04   -0.29783E-03  4288   0.578E-02    0.940E-02
DAV:   9    -0.331734088467E+04    0.10693E-03   -0.91049E-04  4160   0.313E-02    0.287E-02
DAV:  10    -0.331734089908E+04   -0.14411E-04   -0.18820E-04  4160   0.137E-02    0.152E-02
DAV:  11    -0.331734090578E+04   -0.67059E-05   -0.31683E-05  4160   0.555E-03    0.843E-03
DAV:  12    -0.331734090617E+04   -0.38964E-06   -0.32872E-06  3744   0.241E-03
 105 F= -.33314507E+04 E0= -.33314507E+04  d E =-.499243E-01
 BRION: g(F)=  0.137E-02 g(S)=  0.000E+00 retain N=  1 mean eig= 1.84
 eig:   1.838
 bond charge predicted
       N       E                     dE             d eps       ncg     rms          rms(c)
DAV:   1    -0.331731838824E+04    0.22518E-01   -0.33404E+01  3712   0.398E+00    0.799E-01
DAV:   2    -0.331734410584E+04   -0.25718E-01   -0.34617E-01  3840   0.328E-01    0.513E-01
DAV:   3    -0.331734454632E+04   -0.44048E-03   -0.79955E-03  4224   0.753E-02    0.359E-01
DAV:   4    -0.331734815217E+04   -0.36058E-02   -0.53435E-03  4096   0.690E-02    0.128E-01
DAV:   5    -0.331734936266E+04   -0.12105E-02   -0.14876E-03  4000   0.367E-02    0.837E-02
DAV:   6    -0.331734937651E+04   -0.13850E-04   -0.20688E-04  4032   0.153E-02    0.505E-02
DAV:   7    -0.331734941320E+04   -0.36685E-04   -0.11807E-04  3936   0.110E-02    0.176E-02
DAV:   8    -0.331734941566E+04   -0.24607E-05   -0.30518E-05  4096   0.563E-03    0.504E-03
DAV:   9    -0.331734941569E+04   -0.37136E-07   -0.33974E-06  3872   0.230E-03
 106 F= -.33314598E+04 E0= -.33314598E+04  d E =-.906658E-02
 BRION: g(F)=  0.445E-02 g(S)=  0.000E+00 retain N=  1 mean eig= 3.33
 eig:   3.331
 bond charge predicted
       N       E                     dE             d eps       ncg     rms          rms(c)
DAV:   1    -0.331721320089E+04    0.13621E+00   -0.89581E+01  3872   0.655E+00    0.131E+00
DAV:   2    -0.331732801360E+04   -0.11481E+00   -0.13211E+00  3680   0.579E-01    0.883E-01
DAV:   3    -0.331732584398E+04    0.21696E-02   -0.23958E-02  4256   0.118E-01    0.655E-01
DAV:   4    -0.331733179488E+04   -0.59509E-02   -0.16822E-02  4128   0.119E-01    0.289E-01
DAV:   5    -0.331733559039E+04   -0.37955E-02   -0.75983E-03  4032   0.885E-02    0.168E-01
DAV:   6    -0.331733553636E+04    0.54026E-04   -0.15753E-03  3968   0.456E-02    0.856E-02
DAV:   7    -0.331733566245E+04   -0.12608E-03   -0.38424E-04  3936   0.182E-02    0.515E-02
DAV:   8    -0.331733568518E+04   -0.22730E-04   -0.16041E-04  4128   0.135E-02    0.129E-02
DAV:   9    -0.331733568774E+04   -0.25649E-05   -0.50938E-05  3904   0.684E-03    0.639E-03
DAV:  10    -0.331733568749E+04    0.25053E-06   -0.58071E-06  4128   0.236E-03
 107 F= -.33314451E+04 E0= -.33314451E+04  d E =0.146408E-01
 BRION: g(F)=  0.667E-03 g(S)=  0.000E+00 retain N=  1 mean eig= 2.98
 eig:   2.981
 bond charge predicted
       N       E                     dE             d eps       ncg     rms          rms(c)
DAV:   1    -0.331733300387E+04    0.26839E-02   -0.13986E+00  3712   0.812E-01    0.159E-01
DAV:   2    -0.331733351499E+04   -0.51113E-03   -0.11680E-02  3648   0.624E-02    0.105E-01
DAV:   3    -0.331733373502E+04   -0.22003E-03   -0.25882E-04  4160   0.127E-02    0.622E-02
DAV:   4    -0.331733402403E+04   -0.28901E-03   -0.16665E-04  3712   0.116E-02    0.179E-02
DAV:   5    -0.331733403113E+04   -0.70990E-05   -0.35775E-05  3968   0.492E-03    0.157E-02
DAV:   6    -0.331733403585E+04   -0.47252E-05   -0.94453E-06  3776   0.294E-03    0.683E-03
DAV:   7    -0.331733403738E+04   -0.15310E-05   -0.30169E-06  3456   0.186E-03    0.203E-03
DAV:   8    -0.331733403744E+04   -0.57626E-07   -0.39098E-07  2592   0.733E-04
 108 F= -.33314434E+04 E0= -.33314434E+04  d E =0.176071E-02
 BRION: g(F)=  0.584E-03 g(S)=  0.000E+00 retain N=  1 mean eig= 3.75
 eig:   3.753
 bond charge predicted
       N       E                     dE             d eps       ncg     rms          rms(c)
DAV:   1    -0.331733315017E+04    0.88722E-03   -0.26603E-01  3712   0.354E-01    0.684E-02
DAV:   2    -0.331733323212E+04   -0.81956E-04   -0.20365E-03  3712   0.263E-02    0.458E-02
DAV:   3    -0.331733326780E+04   -0.35681E-04   -0.50701E-05  4256   0.583E-03    0.264E-02
DAV:   4    -0.331733332145E+04   -0.53646E-04   -0.35343E-05  3744   0.545E-03    0.846E-03
DAV:   5    -0.331733332371E+04   -0.22636E-05   -0.76530E-06  3808   0.238E-03    0.725E-03
DAV:   6    -0.331733332489E+04   -0.11732E-05   -0.25701E-06  3136   0.160E-03    0.239E-03
DAV:   7    -0.331733332517E+04   -0.27998E-06   -0.58012E-07  2592   0.812E-04
 109 F= -.33314426E+04 E0= -.33314426E+04  d E =0.769120E-03
 BRION: g(F)=  0.591E-03 g(S)=  0.000E+00 BRIONS problems: POTIM should be increased
 retain N=  1 mean eig=94.55
 eig:  94.554
 bond charge predicted
       N       E                     dE             d eps       ncg     rms          rms(c)
DAV:   1    -0.331533052793E+04    0.20028E+01   -0.55813E+02  3904   0.159E+01    0.432E+00
DAV:   2    -0.331743726290E+04   -0.21067E+01   -0.22693E+01  3968   0.237E+00    0.285E+00
DAV:   3    -0.331736031314E+04    0.76950E-01   -0.48302E-01  4000   0.626E-01    0.200E+00
DAV:   4    -0.331734083470E+04    0.19478E-01   -0.20818E-01  3872   0.461E-01    0.108E+00
DAV:   5    -0.331735522783E+04   -0.14393E-01   -0.48714E-02  4192   0.235E-01    0.641E-01
DAV:   6    -0.331735960531E+04   -0.43775E-02   -0.17979E-02  4224   0.166E-01    0.239E-01
DAV:   7    -0.331736024452E+04   -0.63921E-03   -0.45706E-03  3872   0.733E-02    0.132E-01
DAV:   8    -0.331736036023E+04   -0.11571E-03   -0.16557E-03  4224   0.407E-02    0.642E-02
DAV:   9    -0.331736029944E+04    0.60788E-04   -0.49849E-04  4000   0.233E-02    0.179E-02
DAV:  10    -0.331736030512E+04   -0.56776E-05   -0.84225E-05  4128   0.903E-03    0.102E-02
DAV:  11    -0.331736030644E+04   -0.13163E-05   -0.12649E-05  4256   0.375E-03    0.444E-03
DAV:  12    -0.331736030669E+04   -0.25763E-06   -0.19496E-06  3392   0.182E-03
 110 F= -.33314724E+04 E0= -.33314724E+04  d E =-.298297E-01
 BRION: g(F)=  0.362E-01 g(S)=  0.000E+00 retain N=  1 mean eig= 2.95
 eig:   2.945
 bond charge predicted
       N       E                     dE             d eps       ncg     rms          rms(c)
DAV:   1    -0.331500182134E+04    0.23585E+01   -0.55134E+02  3968   0.164E+01    0.419E+00
DAV:   2    -0.331743080361E+04   -0.24290E+01   -0.25699E+01  3872   0.235E+00    0.315E+00
DAV:   3    -0.331733616060E+04    0.94643E-01   -0.55085E-01  4128   0.618E-01    0.214E+00
DAV:   4    -0.331731351263E+04    0.22648E-01   -0.14124E-01  3904   0.389E-01    0.132E+00
DAV:   5    -0.331733115540E+04   -0.17643E-01   -0.12201E-01  4128   0.355E-01    0.749E-01
DAV:   6    -0.331733297147E+04   -0.18161E-02   -0.53773E-02  4576   0.249E-01    0.265E-01
DAV:   7    -0.331733363864E+04   -0.66717E-03   -0.70053E-03  4000   0.800E-02    0.163E-01
DAV:   8    -0.331733364718E+04   -0.85396E-05   -0.21154E-03  4128   0.508E-02    0.653E-02
DAV:   9    -0.331733363292E+04    0.14258E-04   -0.67031E-04  4064   0.261E-02    0.262E-02
DAV:  10    -0.331733363588E+04   -0.29526E-05   -0.10411E-04  4128   0.119E-02    0.186E-02
DAV:  11    -0.331733364164E+04   -0.57596E-05   -0.34533E-05  4128   0.585E-03    0.905E-03
DAV:  12    -0.331733364162E+04    0.15018E-07   -0.45878E-06  4032   0.275E-03
 111 F= -.33314429E+04 E0= -.33314429E+04  d E =0.294957E-01
 BRION: g(F)=  0.618E-03 g(S)=  0.000E+00 retain N=  1 mean eig= 2.75
 eig:   2.748
 bond charge predicted
       N       E                     dE             d eps       ncg     rms          rms(c)
DAV:   1    -0.331733406405E+04   -0.42241E-03   -0.22536E+00  3712   0.103E+00    0.201E-01
DAV:   2    -0.331733500034E+04   -0.93629E-03   -0.18790E-02  3680   0.792E-02    0.134E-01
DAV:   3    -0.331733521727E+04   -0.21693E-03   -0.50620E-04  4256   0.189E-02    0.824E-02
DAV:   4    -0.331733564584E+04   -0.42857E-03   -0.36560E-04  3968   0.177E-02    0.283E-02
DAV:   5    -0.331733570087E+04   -0.55029E-04   -0.86499E-05  4000   0.838E-03    0.209E-02
DAV:   6    -0.331733570700E+04   -0.61328E-05   -0.16518E-05  3936   0.398E-03    0.879E-03
DAV:   7    -0.331733571017E+04   -0.31699E-05   -0.66341E-06  4000   0.214E-03    0.268E-03
DAV:   8    -0.331733571011E+04    0.63679E-07   -0.11166E-06  3200   0.113E-03
 soft stop encountered!  aborting job ...
 112 F= -.33314451E+04 E0= -.33314451E+04  d E =-.223062E-02
 BRION: g(F)=  0.742E-03 g(S)=  0.000E+00 retain N=  1 mean eig= 1.71
 eig:   1.711
 deleting file STOPCAR
 PROFILE, used timers:     329
