 running  256 mpi-ranks, with    1 threads/rank, on    7 nodes
 distrk:  each k-point on  128 cores,    2 groups
 distr:  one band on    4 cores,   32 groups
 vasp.6.4.1 05Apr23 (build May 18 2023 13:19:41) complex                         
 POSCAR found type information on POSCAR C S O 
 POSCAR found :  3 types and     366 ions
 Reading from existing POTCAR
 scaLAPACK will be used
 Reading from existing POTCAR
 -----------------------------------------------------------------------------
|                                                                             |
|               ----> ADVICE to this user running VASP <----                  |
|                                                                             |
|     You have a (more or less) 'large supercell' and for larger cells it     |
|     might be more efficient to use real-space projection operators.         |
|     Therefore, try LREAL= Auto in the INCAR file.                           |
|     Mind: If you want to do very accurate calculations, keep the            |
|     reciprocal projection scheme (i.e. LREAL=.FALSE.).                      |
|                                                                             |
 -----------------------------------------------------------------------------

 LDA part: xc-table for Pade appr. of Perdew
 POSCAR, INCAR and KPOINTS ok, starting setup
 FFT: planning ... GRIDC
 FFT: planning ... GRID_SOFT
 FFT: planning ... GRID
 WAVECAR not read
 charge-density read from file: 01_AOPT                                 
 WARNING: random wavefunctions but no delay for mixing, default for NELMDL
 entering main loop
       N       E                     dE             d eps       ncg     rms          rms(c)
DAV:   1     0.112546544370E+05    0.11255E+05   -0.41486E+05  4288   0.934E+02
DAV:   2     0.388708650943E+03   -0.10866E+05   -0.10100E+05  5632   0.212E+02
DAV:   3    -0.301342729041E+04   -0.34021E+04   -0.32437E+04  4608   0.115E+02
DAV:   4    -0.330589335398E+04   -0.29247E+03   -0.28378E+03  4448   0.386E+01
DAV:   5    -0.331725059738E+04   -0.11357E+02   -0.11152E+02  5088   0.687E+00    0.131E-01
DAV:   6    -0.331747114991E+04   -0.22055E+00   -0.21838E+00  4832   0.103E+00    0.323E-02
DAV:   7    -0.331747717826E+04   -0.60284E-02   -0.59489E-02  4928   0.182E-01    0.319E-02
DAV:   8    -0.331747738680E+04   -0.20854E-03   -0.23187E-03  4864   0.355E-02    0.261E-02
DAV:   9    -0.331747737665E+04    0.10146E-04   -0.93293E-05  4640   0.771E-03    0.205E-02
DAV:  10    -0.331747736094E+04    0.15714E-04   -0.11981E-05  4160   0.384E-03    0.135E-02
DAV:  11    -0.331747734894E+04    0.11999E-04   -0.55530E-06  4096   0.269E-03    0.724E-03
DAV:  12    -0.331747734008E+04    0.88578E-05   -0.80281E-07  2880   0.136E-03    0.363E-03
DAV:  13    -0.331747733411E+04    0.59697E-05   -0.60961E-07  2624   0.105E-03    0.134E-03
DAV:  14    -0.331747733194E+04    0.21721E-05   -0.17521E-07  2656   0.610E-04    0.783E-04
DAV:  15    -0.331747733140E+04    0.54087E-06    0.34059E-08  2400   0.330E-04
   1 F= -.33315941E+04 E0= -.33315941E+04  d E =-.333159E+04
 BRION: g(F)=  0.238E-02 g(S)=  0.000E+00
 bond charge predicted
       N       E                     dE             d eps       ncg     rms          rms(c)
DAV:   1    -0.331747663446E+04    0.69748E-03   -0.28336E-01  3840   0.608E-01    0.993E-02
DAV:   2    -0.331747696996E+04   -0.33550E-03   -0.55089E-03  4192   0.798E-02    0.945E-02
DAV:   3    -0.331747685444E+04    0.11551E-03   -0.29411E-04  4480   0.192E-02    0.696E-02
DAV:   4    -0.331747677993E+04    0.74519E-04   -0.22601E-04  3968   0.180E-02    0.285E-02
DAV:   5    -0.331747678111E+04   -0.11858E-05   -0.67715E-05  4160   0.892E-03    0.842E-03
DAV:   6    -0.331747678258E+04   -0.14683E-05   -0.73026E-06  4192   0.292E-03    0.443E-03
DAV:   7    -0.331747678237E+04    0.21176E-06   -0.94701E-07  2688   0.137E-03
   2 F= -.33315936E+04 E0= -.33315936E+04  d E =0.515268E-03
 BRION: g(F)=  0.119E-01 g(S)=  0.000E+00 retain N=  1 mean eig= 0.27
 eig:   0.271
 bond charge predicted
       N       E                     dE             d eps       ncg     rms          rms(c)
DAV:   1    -0.331747799837E+04   -0.12158E-02   -0.11617E-01  3840   0.400E-01    0.670E-02
DAV:   2    -0.331747815318E+04   -0.15482E-03   -0.26419E-03  4256   0.569E-02    0.663E-02
DAV:   3    -0.331747810950E+04    0.43683E-04   -0.11330E-04  4704   0.111E-02    0.539E-02
DAV:   4    -0.331747805000E+04    0.59500E-04   -0.11463E-04  3968   0.126E-02    0.256E-02
DAV:   5    -0.331747804398E+04    0.60212E-05   -0.45426E-05  4000   0.771E-03    0.663E-03
DAV:   6    -0.331747804471E+04   -0.73691E-06   -0.57678E-06  3648   0.254E-03
   3 F= -.33315949E+04 E0= -.33315949E+04  d E =-.126483E-02
 BRION: g(F)=  0.137E-02 g(S)=  0.000E+00 retain N=  1 mean eig= 0.22
 eig:   0.216
 bond charge predicted
       N       E                     dE             d eps       ncg     rms          rms(c)
DAV:   1    -0.331747792733E+04    0.11665E-03   -0.57198E-02  3712   0.285E-01    0.458E-02
DAV:   2    -0.331747800835E+04   -0.81020E-04   -0.13024E-03  4256   0.401E-02    0.445E-02
DAV:   3    -0.331747798928E+04    0.19072E-04   -0.61717E-05  4544   0.854E-03    0.355E-02
DAV:   4    -0.331747796991E+04    0.19371E-04   -0.45157E-05  4192   0.853E-03    0.176E-02
DAV:   5    -0.331747796912E+04    0.78371E-06   -0.23368E-05  3968   0.574E-03    0.464E-03
DAV:   6    -0.331747796939E+04   -0.26426E-06   -0.28967E-06  3072   0.199E-03
   4 F= -.33315948E+04 E0= -.33315948E+04  d E =0.698124E-04
 BRION: g(F)=  0.272E-02 g(S)=  0.000E+00 retain N=  2 mean eig= 0.05
 eig:   0.074  0.025
 bond charge predicted
       N       E                     dE             d eps       ncg     rms          rms(c)
DAV:   1    -0.331747827678E+04   -0.30766E-03   -0.24400E-02  3808   0.186E-01    0.317E-02
DAV:   2    -0.331747830744E+04   -0.30657E-04   -0.58030E-04  4224   0.272E-02    0.308E-02
DAV:   3    -0.331747829585E+04    0.11585E-04   -0.30639E-05  4512   0.597E-03    0.236E-02
DAV:   4    -0.331747828653E+04    0.93263E-05   -0.15330E-05  4096   0.496E-03    0.130E-02
DAV:   5    -0.331747828464E+04    0.18881E-05   -0.12025E-05  3936   0.426E-03    0.249E-03
DAV:   6    -0.331747828484E+04   -0.20431E-06   -0.19606E-06  2592   0.156E-03
   5 F= -.33315951E+04 E0= -.33315951E+04  d E =-.319247E-03
 BRION: g(F)=  0.236E-03 g(S)=  0.000E+00 retain N=  2 mean eig= 2.85
 eig:   0.247  5.463
 bond charge predicted
       N       E                     dE             d eps       ncg     rms          rms(c)
DAV:   1    -0.331747829342E+04   -0.87768E-05   -0.11728E-02  3712   0.128E-01    0.202E-02
DAV:   2    -0.331747831335E+04   -0.19934E-04   -0.28032E-04  4160   0.178E-02    0.192E-02
DAV:   3    -0.331747831020E+04    0.31512E-05   -0.11287E-05  4480   0.379E-03    0.155E-02
DAV:   4    -0.331747830691E+04    0.32913E-05   -0.13223E-05  4064   0.475E-03    0.581E-03
DAV:   5    -0.331747830728E+04   -0.37067E-06   -0.39125E-06  3360   0.237E-03
   6 F= -.33315952E+04 E0= -.33315952E+04  d E =-.294287E-04
 BRION: g(F)=  0.445E-03 g(S)=  0.000E+00 retain N=  3 mean eig= 2.20
 eig:   0.273  0.273  6.063
 bond charge predicted
       N       E                     dE             d eps       ncg     rms          rms(c)
DAV:   1    -0.331747836432E+04   -0.57409E-04   -0.41576E-03  3712   0.774E-02    0.122E-02
DAV:   2    -0.331747837110E+04   -0.67843E-05   -0.10223E-04  4128   0.112E-02    0.121E-02
DAV:   3    -0.331747836993E+04    0.11695E-05   -0.42186E-06  3872   0.222E-03    0.102E-02
DAV:   4    -0.331747836805E+04    0.18799E-05   -0.53592E-06  3904   0.288E-03    0.461E-03
DAV:   5    -0.331747836802E+04    0.30734E-07   -0.15720E-06  2496   0.155E-03
   7 F= -.33315952E+04 E0= -.33315952E+04  d E =-.616889E-04
 BRION: g(F)=  0.839E-04 g(S)=  0.000E+00 retain N=  2 mean eig= 2.92
 eig:   0.242  5.589
 bond charge predicted
       N       E                     dE             d eps       ncg     rms          rms(c)
DAV:   1    -0.331747840022E+04   -0.32171E-04   -0.56912E-03  3712   0.844E-02    0.140E-02
DAV:   2    -0.331747840966E+04   -0.94400E-05   -0.12813E-04  4000   0.109E-02    0.115E-02
DAV:   3    -0.331747840884E+04    0.82480E-06   -0.39550E-06  3744   0.238E-03
   8 F= -.33315953E+04 E0= -.33315953E+04  d E =-.448222E-04
 BRION: g(F)=  0.985E-04 g(S)=  0.000E+00 retain N=  3 mean eig= 2.50
 eig:   0.267  0.267  6.955
 bond charge predicted
       N       E                     dE             d eps       ncg     rms          rms(c)
DAV:   1    -0.331747842941E+04   -0.19743E-04   -0.13709E-03  3712   0.427E-02    0.866E-03
DAV:   2    -0.331747843116E+04   -0.17592E-05   -0.31514E-05  4128   0.581E-03    0.715E-03
DAV:   3    -0.331747843088E+04    0.28010E-06   -0.16682E-06  3136   0.161E-03
   9 F= -.33315953E+04 E0= -.33315953E+04  d E =-.244303E-04
 BRION: g(F)=  0.617E-04 g(S)=  0.000E+00 retain N=  3 mean eig= 1.13
 eig:   2.878  0.250  0.250
 bond charge predicted
       N       E                     dE             d eps       ncg     rms          rms(c)
DAV:   1    -0.331747845960E+04   -0.28439E-04   -0.39782E-03  3744   0.691E-02    0.130E-02
DAV:   2    -0.331747846545E+04   -0.58421E-05   -0.85800E-05  4000   0.859E-03    0.102E-02
DAV:   3    -0.331747846512E+04    0.33097E-06   -0.24070E-06  3488   0.191E-03
  10 F= -.33315953E+04 E0= -.33315953E+04  d E =-.380521E-04
 BRION: g(F)=  0.606E-04 g(S)=  0.000E+00 retain N=  2 mean eig= 0.51
 eig:   0.180  0.847
 bond charge predicted
       N       E                     dE             d eps       ncg     rms          rms(c)
DAV:   1    -0.331747849331E+04   -0.27863E-04   -0.35941E-03  3744   0.653E-02    0.123E-02
DAV:   2    -0.331747849822E+04   -0.49070E-05   -0.73414E-05  4032   0.792E-03    0.940E-03
DAV:   3    -0.331747849808E+04    0.13411E-06   -0.22072E-06  3456   0.183E-03
  11 F= -.33315954E+04 E0= -.33315954E+04  d E =-.363394E-04
 BRION: g(F)=  0.545E-04 g(S)=  0.000E+00 retain N=  3 mean eig= 1.67
 eig:   4.605  0.285  0.123
 bond charge predicted
       N       E                     dE             d eps       ncg     rms          rms(c)
DAV:   1    -0.331747853225E+04   -0.34036E-04   -0.88655E-03  3744   0.102E-01    0.185E-02
DAV:   2    -0.331747854531E+04   -0.13056E-04   -0.18549E-04  3968   0.124E-02    0.141E-02
DAV:   3    -0.331747854488E+04    0.42398E-06   -0.51480E-06  3968   0.273E-03
  12 F= -.33315954E+04 E0= -.33315954E+04  d E =-.521065E-04
 BRION: g(F)=  0.642E-04 g(S)=  0.000E+00 retain N=  3 mean eig= 1.27
 eig:   3.187  0.289  0.336
 bond charge predicted
       N       E                     dE             d eps       ncg     rms          rms(c)
DAV:   1    -0.331747855822E+04   -0.12912E-04   -0.95930E-04  3712   0.357E-02    0.752E-03
DAV:   2    -0.331747855925E+04   -0.10312E-05   -0.20328E-05  4064   0.476E-03    0.611E-03
DAV:   3    -0.331747855917E+04    0.77300E-07   -0.13901E-06  3008   0.144E-03
  13 F= -.33315954E+04 E0= -.33315954E+04  d E =-.161158E-04
 BRION: g(F)=  0.617E-04 g(S)=  0.000E+00 retain N=  3 mean eig= 0.78
 eig:   0.959  0.959  0.431
 bond charge predicted
       N       E                     dE             d eps       ncg     rms          rms(c)
DAV:   1    -0.331747858032E+04   -0.21068E-04   -0.26603E-03  3744   0.566E-02    0.107E-02
DAV:   2    -0.331747858433E+04   -0.40104E-05   -0.59137E-05  3968   0.724E-03    0.851E-03
DAV:   3    -0.331747858407E+04    0.25902E-06   -0.16286E-06  3136   0.160E-03
  14 F= -.33315955E+04 E0= -.33315955E+04  d E =-.273626E-04
 BRION: g(F)=  0.558E-04 g(S)=  0.000E+00 retain N=  2 mean eig= 0.71
 eig:   0.201  1.213
 bond charge predicted
       N       E                     dE             d eps       ncg     rms          rms(c)
DAV:   1    -0.331747860584E+04   -0.21513E-04   -0.29440E-03  3744   0.590E-02    0.111E-02
DAV:   2    -0.331747860998E+04   -0.41373E-05   -0.61587E-05  4032   0.729E-03    0.852E-03
DAV:   3    -0.331747860981E+04    0.17346E-06   -0.18094E-06  3264   0.167E-03
  15 F= -.33315955E+04 E0= -.33315955E+04  d E =-.283971E-04
 BRION: g(F)=  0.531E-04 g(S)=  0.000E+00 retain N=  3 mean eig= 1.06
 eig:   2.713  0.230  0.230
 bond charge predicted
       N       E                     dE             d eps       ncg     rms          rms(c)
DAV:   1    -0.331747862495E+04   -0.14972E-04   -0.11239E-03  3744   0.369E-02    0.750E-03
DAV:   2    -0.331747862640E+04   -0.14498E-05   -0.24194E-05  4000   0.474E-03    0.589E-03
DAV:   3    -0.331747862632E+04    0.76252E-07   -0.88039E-07  2688   0.123E-03
  16 F= -.33315955E+04 E0= -.33315955E+04  d E =-.183397E-04
 BRION: g(F)=  0.460E-04 g(S)=  0.000E+00 retain N=  3 mean eig= 1.43
 eig:   3.936  0.299  0.047
 bond charge predicted
       N       E                     dE             d eps       ncg     rms          rms(c)
DAV:   1    -0.331747864110E+04   -0.14702E-04   -0.13133E-03  3744   0.393E-02    0.762E-03
DAV:   2    -0.331747864295E+04   -0.18470E-05   -0.27949E-05  4000   0.490E-03    0.591E-03
DAV:   3    -0.331747864288E+04    0.74389E-07   -0.67187E-07  2592   0.110E-03
  17 F= -.33315955E+04 E0= -.33315955E+04  d E =-.185247E-04
 BRION: g(F)=  0.457E-04 g(S)=  0.000E+00 retain N=  3 mean eig= 2.51
 eig:   7.110  0.204  0.204
 bond charge predicted
       N       E                     dE             d eps       ncg     rms          rms(c)
DAV:   1    -0.331747867133E+04   -0.28379E-04   -0.79175E-03  3680   0.946E-02    0.168E-02
DAV:   2    -0.331747868343E+04   -0.12104E-04   -0.16654E-04  3936   0.115E-02    0.125E-02
DAV:   3    -0.331747868309E+04    0.34540E-06   -0.40329E-06  3776   0.245E-03
  18 F= -.33315956E+04 E0= -.33315956E+04  d E =-.447963E-04
 BRION: g(F)=  0.475E-04 g(S)=  0.000E+00 retain N=  3 mean eig= 0.92
 eig:   2.334  0.213  0.213
 bond charge predicted
       N       E                     dE             d eps       ncg     rms          rms(c)
DAV:   1    -0.331747867261E+04    0.10822E-04   -0.69789E-04  3744   0.286E-02    0.408E-03
DAV:   2    -0.331747867419E+04   -0.15820E-05   -0.19162E-05  4000   0.415E-03    0.342E-03
DAV:   3    -0.331747867404E+04    0.15018E-06   -0.35485E-07  2208   0.867E-04
  19 F= -.33315956E+04 E0= -.33315956E+04  d E =0.102347E-04
 BRION: g(F)=  0.400E-04 g(S)=  0.000E+00 retain N=  3 mean eig= 1.07
 eig:   1.881  0.361  0.954
 bond charge predicted
       N       E                     dE             d eps       ncg     rms          rms(c)
DAV:   1    -0.331747869419E+04   -0.19999E-04   -0.43825E-03  3680   0.703E-02    0.115E-02
DAV:   2    -0.331747870209E+04   -0.79003E-05   -0.10019E-04  3968   0.898E-03    0.838E-03
DAV:   3    -0.331747870182E+04    0.27206E-06   -0.22064E-06  3520   0.182E-03
  20 F= -.33315956E+04 E0= -.33315956E+04  d E =-.311646E-04
 BRION: g(F)=  0.506E-04 g(S)=  0.000E+00 retain N=  3 mean eig= 1.37
 eig:   3.410  0.346  0.346
 bond charge predicted
       N       E                     dE             d eps       ncg     rms          rms(c)
DAV:   1    -0.331747872110E+04   -0.19012E-04   -0.25399E-03  3680   0.537E-02    0.105E-02
DAV:   2    -0.331747872452E+04   -0.34204E-05   -0.52775E-05  3968   0.655E-03    0.772E-03
DAV:   3    -0.331747872453E+04   -0.23283E-08   -0.16234E-06  3296   0.154E-03
  21 F= -.33315956E+04 E0= -.33315956E+04  d E =-.253794E-04
 BRION: g(F)=  0.479E-04 g(S)=  0.000E+00 retain N=  3 mean eig= 1.61
 eig:   4.339  0.251  0.251
 bond charge predicted
       N       E                     dE             d eps       ncg     rms          rms(c)
DAV:   1    -0.331747872455E+04   -0.25728E-07   -0.11676E-04  3744   0.132E-02    0.258E-03
DAV:   2    -0.331747872480E+04   -0.24855E-06   -0.33552E-06  3168   0.213E-03
  22 F= -.33315956E+04 E0= -.33315956E+04  d E =-.103196E-07
 BRION: g(F)=  0.448E-04 g(S)=  0.000E+00 retain N=  3 mean eig= 2.06
 eig:   5.871  0.011  0.304
 bond charge predicted
       N       E                     dE             d eps       ncg     rms          rms(c)
DAV:   1    -0.331747872373E+04    0.81654E-06   -0.10573E-04  3712   0.125E-02    0.180E-03
DAV:   2    -0.331747872398E+04   -0.24738E-06   -0.27596E-06  2912   0.190E-03
  23 F= -.33315956E+04 E0= -.33315956E+04  d E =0.731226E-06
 BRION: g(F)=  0.399E-04 g(S)=  0.000E+00 retain N=  3 mean eig= 1.39
 eig:   3.574  0.294  0.294
 bond charge predicted
       N       E                     dE             d eps       ncg     rms          rms(c)
DAV:   1    -0.331747874939E+04   -0.25656E-04   -0.86367E-03  3680   0.975E-02    0.170E-02
DAV:   2    -0.331747876357E+04   -0.14178E-04   -0.18856E-04  3968   0.120E-02    0.124E-02
DAV:   3    -0.331747876321E+04    0.35600E-06   -0.40224E-06  3744   0.245E-03
  24 F= -.33315957E+04 E0= -.33315957E+04  d E =-.441060E-04
 BRION: g(F)=  0.413E-04 g(S)=  0.000E+00 retain N=  3 mean eig= 1.02
 eig:   2.751  0.260  0.057
 bond charge predicted
       N       E                     dE             d eps       ncg     rms          rms(c)
DAV:   1    -0.331747873173E+04    0.31836E-04   -0.38187E-03  3680   0.652E-02    0.101E-02
DAV:   2    -0.331747873897E+04   -0.72343E-05   -0.91045E-05  3968   0.858E-03    0.777E-03
DAV:   3    -0.331747873845E+04    0.51584E-06   -0.17382E-06  3072   0.171E-03
  25 F= -.33315956E+04 E0= -.33315956E+04  d E =0.281049E-04
 BRION: g(F)=  0.389E-04 g(S)=  0.000E+00 retain N=  4 mean eig= 1.08
 eig:   2.860  0.231  0.608  0.608
 bond charge predicted
       N       E                     dE             d eps       ncg     rms          rms(c)
DAV:   1    -0.331747873631E+04    0.26606E-05   -0.13968E-04  3712   0.143E-02    0.303E-03
DAV:   2    -0.331747873649E+04   -0.18510E-06   -0.37079E-06  3968   0.223E-03
  26 F= -.33315956E+04 E0= -.33315956E+04  d E =0.232991E-05
 BRION: g(F)=  0.422E-04 g(S)=  0.000E+00 retain N=  1 mean eig= 0.24
 eig:   0.239
 bond charge predicted
       N       E                     dE             d eps       ncg     rms          rms(c)
DAV:   1    -0.331747875809E+04   -0.21786E-04   -0.57944E-03  3680   0.805E-02    0.127E-02
DAV:   2    -0.331747876795E+04   -0.98553E-05   -0.12528E-04  3936   0.999E-03    0.928E-03
DAV:   3    -0.331747876756E+04    0.38603E-06   -0.28096E-06  3648   0.203E-03
  27 F= -.33315957E+04 E0= -.33315957E+04  d E =-.354902E-04
 BRION: g(F)=  0.499E-04 g(S)=  0.000E+00 retain N=  2 mean eig= 0.14
 eig:   0.217  0.072
 bond charge predicted
       N       E                     dE             d eps       ncg     rms          rms(c)
DAV:   1    -0.331747877442E+04   -0.64755E-05   -0.17974E-04  3712   0.152E-02    0.402E-03
DAV:   2    -0.331747877449E+04   -0.65891E-07   -0.34738E-06  3616   0.208E-03
  28 F= -.33315957E+04 E0= -.33315957E+04  d E =-.759808E-05
 BRION: g(F)=  0.364E-04 g(S)=  0.000E+00 retain N=  2 mean eig= 2.80
 eig:   0.171  5.420
 bond charge predicted
       N       E                     dE             d eps       ncg     rms          rms(c)
DAV:   1    -0.331747878957E+04   -0.15146E-04   -0.32020E-02  3680   0.187E-01    0.339E-02
DAV:   2    -0.331747884142E+04   -0.51855E-04   -0.70450E-04  3968   0.233E-02    0.247E-02
DAV:   3    -0.331747883945E+04    0.19744E-05   -0.16293E-05  4160   0.482E-03    0.190E-02
DAV:   4    -0.331747884491E+04   -0.54595E-05   -0.21233E-05  3808   0.565E-03    0.506E-03
DAV:   5    -0.331747884516E+04   -0.24680E-06   -0.47848E-06  3808   0.242E-03
  29 F= -.33315958E+04 E0= -.33315958E+04  d E =-.787170E-04
 BRION: g(F)=  0.717E-04 g(S)=  0.000E+00 retain N=  3 mean eig= 2.74
 eig:   7.189  0.372  0.646
 bond charge predicted
       N       E                     dE             d eps       ncg     rms          rms(c)
DAV:   1    -0.331747886489E+04   -0.19986E-04   -0.21398E-02  3680   0.154E-01    0.273E-02
DAV:   2    -0.331747890191E+04   -0.37018E-04   -0.48724E-04  3968   0.194E-02    0.201E-02
DAV:   3    -0.331747890108E+04    0.82923E-06   -0.10835E-05  4160   0.400E-03    0.157E-02
DAV:   4    -0.331747890519E+04   -0.41097E-05   -0.15071E-05  3776   0.475E-03    0.464E-03
DAV:   5    -0.331747890514E+04    0.51688E-07   -0.30809E-06  3552   0.211E-03
  30 F= -.33315958E+04 E0= -.33315958E+04  d E =-.679289E-04
 BRION: g(F)=  0.550E-04 g(S)=  0.000E+00 retain N=  3 mean eig= 0.86
 eig:   2.153  0.220  0.220
 bond charge predicted
       N       E                     dE             d eps       ncg     rms          rms(c)
DAV:   1    -0.331747872704E+04    0.17815E-03   -0.51760E-02  3680   0.238E-01    0.409E-02
DAV:   2    -0.331747881179E+04   -0.84750E-04   -0.11228E-03  3936   0.295E-02    0.299E-02
DAV:   3    -0.331747880819E+04    0.36058E-05   -0.25801E-05  4160   0.602E-03    0.232E-02
DAV:   4    -0.331747881375E+04   -0.55601E-05   -0.34535E-05  3936   0.717E-03    0.633E-03
DAV:   5    -0.331747881415E+04   -0.40187E-06   -0.77899E-06  4000   0.302E-03
  31 F= -.33315957E+04 E0= -.33315957E+04  d E =0.102013E-03
 BRION: g(F)=  0.561E-04 g(S)=  0.000E+00 retain N=  2 mean eig= 0.49
 eig:   0.346  0.638
 bond charge predicted
       N       E                     dE             d eps       ncg     rms          rms(c)
DAV:   1    -0.331747883176E+04   -0.18011E-04   -0.31622E-02  3680   0.187E-01    0.313E-02
DAV:   2    -0.331747888263E+04   -0.50866E-04   -0.67621E-04  3968   0.230E-02    0.232E-02
DAV:   3    -0.331747887978E+04    0.28412E-05   -0.15873E-05  4192   0.475E-03    0.180E-02
DAV:   4    -0.331747888214E+04   -0.23536E-05   -0.22453E-05  3808   0.577E-03    0.495E-03
DAV:   5    -0.331747888245E+04   -0.31549E-06   -0.50238E-06  3744   0.243E-03
  32 F= -.33315958E+04 E0= -.33315958E+04  d E =-.782945E-04
 BRION: g(F)=  0.822E-04 g(S)=  0.000E+00 retain N=  3 mean eig= 0.47
 eig:   0.349  0.537  0.537
 bond charge predicted
       N       E                     dE             d eps       ncg     rms          rms(c)
DAV:   1    -0.331747889620E+04   -0.14063E-04   -0.13862E-03  3680   0.415E-02    0.785E-03
DAV:   2    -0.331747889870E+04   -0.24989E-05   -0.35104E-05  3968   0.565E-03    0.606E-03
DAV:   3    -0.331747889853E+04    0.16554E-06   -0.93708E-07  2656   0.127E-03
  33 F= -.33315958E+04 E0= -.33315958E+04  d E =-.174918E-04
 BRION: g(F)=  0.385E-04 g(S)=  0.000E+00 retain N=  1 mean eig= 0.19
 eig:   0.189
 bond charge predicted
       N       E                     dE             d eps       ncg     rms          rms(c)
DAV:   1    -0.331747890813E+04   -0.94274E-05   -0.46762E-03  3712   0.743E-02    0.134E-02
DAV:   2    -0.331747891548E+04   -0.73484E-05   -0.10508E-04  3936   0.955E-03    0.104E-02
DAV:   3    -0.331747891487E+04    0.60885E-06   -0.32693E-06  3744   0.212E-03
  34 F= -.33315958E+04 E0= -.33315958E+04  d E =-.202273E-04
 BRION: g(F)=  0.102E-03 g(S)=  0.000E+00 retain N=  2 mean eig= 0.21
 eig:   0.177  0.234
 bond charge predicted
       N       E                     dE             d eps       ncg     rms          rms(c)
DAV:   1    -0.331747892742E+04   -0.11948E-04   -0.57432E-04  3648   0.287E-02    0.587E-03
DAV:   2    -0.331747892840E+04   -0.97742E-06   -0.16459E-05  4160   0.444E-03    0.525E-03
DAV:   3    -0.331747892816E+04    0.23982E-06   -0.84364E-07  2368   0.115E-03
  35 F= -.33315958E+04 E0= -.33315958E+04  d E =-.144880E-04
 BRION: g(F)=  0.320E-04 g(S)=  0.000E+00 retain N=  1 mean eig= 0.23
 eig:   0.225
 bond charge predicted
       N       E                     dE             d eps       ncg     rms          rms(c)
DAV:   1    -0.331747894320E+04   -0.14802E-04   -0.47848E-03  3680   0.737E-02    0.135E-02
DAV:   2    -0.331747895077E+04   -0.75696E-05   -0.10599E-04  3936   0.928E-03    0.104E-02
DAV:   3    -0.331747895049E+04    0.28103E-06   -0.25153E-06  3520   0.199E-03
  36 F= -.33315959E+04 E0= -.33315959E+04  d E =-.271545E-04
 BRION: g(F)=  0.525E-04 g(S)=  0.000E+00 retain N=  2 mean eig= 0.17
 eig:   0.230  0.110
 bond charge predicted
       N       E                     dE             d eps       ncg     rms          rms(c)
DAV:   1    -0.331747895871E+04   -0.79360E-05   -0.31097E-04  3680   0.203E-02    0.479E-03
DAV:   2    -0.331747895901E+04   -0.29954E-06   -0.74185E-06  4032   0.289E-03
  37 F= -.33315959E+04 E0= -.33315959E+04  d E =-.937361E-05
 BRION: g(F)=  0.287E-04 g(S)=  0.000E+00 retain N=  1 mean eig= 0.27
 eig:   0.265
 bond charge predicted
       N       E                     dE             d eps       ncg     rms          rms(c)
DAV:   1    -0.331747897484E+04   -0.16133E-04   -0.47427E-03  3680   0.723E-02    0.140E-02
DAV:   2    -0.331747898212E+04   -0.72749E-05   -0.10464E-04  3936   0.905E-03    0.104E-02
DAV:   3    -0.331747898184E+04    0.27486E-06   -0.23344E-06  3520   0.194E-03
  38 F= -.33315959E+04 E0= -.33315959E+04  d E =-.269219E-04
 BRION: g(F)=  0.403E-04 g(S)=  0.000E+00 retain N=  2 mean eig= 0.24
 eig:   0.242  0.242
 bond charge predicted
       N       E                     dE             d eps       ncg     rms          rms(c)
DAV:   1    -0.331747898834E+04   -0.62272E-05   -0.17496E-04  3680   0.145E-02    0.374E-03
DAV:   2    -0.331747898849E+04   -0.14354E-06   -0.39689E-06  3616   0.203E-03
  39 F= -.33315959E+04 E0= -.33315959E+04  d E =-.759121E-05
 BRION: g(F)=  0.297E-04 g(S)=  0.000E+00 retain N=  2 mean eig= 3.27
 eig:   0.070  6.479
 bond charge predicted
       N       E                     dE             d eps       ncg     rms          rms(c)
DAV:   1    -0.331747900194E+04   -0.13596E-04   -0.57819E-03  3680   0.795E-02    0.153E-02
DAV:   2    -0.331747901146E+04   -0.95206E-05   -0.13290E-04  3936   0.101E-02    0.112E-02
DAV:   3    -0.331747901114E+04    0.31816E-06   -0.30967E-06  3712   0.213E-03
  40 F= -.33315959E+04 E0= -.33315959E+04  d E =-.260844E-04
 BRION: g(F)=  0.607E-04 g(S)=  0.000E+00 retain N=  2 mean eig= 0.21
 eig:   0.209  0.209
 bond charge predicted
       N       E                     dE             d eps       ncg     rms          rms(c)
DAV:   1    -0.331747902043E+04   -0.89656E-05   -0.41366E-04  3680   0.233E-02    0.533E-03
DAV:   2    -0.331747902094E+04   -0.51642E-06   -0.10553E-05  3968   0.338E-03    0.436E-03
DAV:   3    -0.331747902091E+04    0.30617E-07   -0.57875E-07  2304   0.972E-04
  41 F= -.33315960E+04 E0= -.33315960E+04  d E =-.114313E-04
 BRION: g(F)=  0.335E-04 g(S)=  0.000E+00 retain N=  1 mean eig= 0.23
 eig:   0.231
 bond charge predicted
       N       E                     dE             d eps       ncg     rms          rms(c)
DAV:   1    -0.331747902334E+04   -0.23997E-05   -0.47387E-03  3648   0.738E-02    0.138E-02
DAV:   2    -0.331747903263E+04   -0.92890E-05   -0.12628E-04  4000   0.100E-02    0.115E-02
DAV:   3    -0.331747903223E+04    0.40000E-06   -0.32933E-06  3744   0.212E-03
  42 F= -.33315960E+04 E0= -.33315960E+04  d E =-.174987E-04
 BRION: g(F)=  0.111E-03 g(S)=  0.000E+00 retain N=  2 mean eig= 0.21
 eig:   0.233  0.184
 bond charge predicted
       N       E                     dE             d eps       ncg     rms          rms(c)
DAV:   1    -0.331747904708E+04   -0.14450E-04   -0.89364E-04  3712   0.328E-02    0.759E-03
DAV:   2    -0.331747904924E+04   -0.21548E-05   -0.31670E-05  4096   0.511E-03    0.628E-03
DAV:   3    -0.331747904885E+04    0.39069E-06   -0.14689E-06  3072   0.135E-03
  43 F= -.33315960E+04 E0= -.33315960E+04  d E =-.167776E-04
 BRION: g(F)=  0.283E-04 g(S)=  0.000E+00 retain N=  1 mean eig= 0.26
 eig:   0.256
 bond charge predicted
       N       E                     dE             d eps       ncg     rms          rms(c)
DAV:   1    -0.331747906109E+04   -0.11855E-04   -0.45402E-03  3680   0.712E-02    0.137E-02
DAV:   2    -0.331747906809E+04   -0.69974E-05   -0.10073E-04  3936   0.893E-03    0.102E-02
DAV:   3    -0.331747906770E+04    0.38918E-06   -0.24468E-06  3488   0.193E-03
  44 F= -.33315960E+04 E0= -.33315960E+04  d E =-.230217E-04
 BRION: g(F)=  0.485E-04 g(S)=  0.000E+00 retain N=  2 mean eig= 0.20
 eig:   0.315  0.081
 bond charge predicted
       N       E                     dE             d eps       ncg     rms          rms(c)
DAV:   1    -0.331747907495E+04   -0.68576E-05   -0.26179E-04  3680   0.185E-02    0.433E-03
DAV:   2    -0.331747907536E+04   -0.41048E-06   -0.73049E-06  3872   0.277E-03
  45 F= -.33315960E+04 E0= -.33315960E+04  d E =-.870733E-05
 BRION: g(F)=  0.247E-04 g(S)=  0.000E+00 retain N=  1 mean eig= 0.25
 eig:   0.245
 bond charge predicted
       N       E                     dE             d eps       ncg     rms          rms(c)
DAV:   1    -0.331747908946E+04   -0.14513E-04   -0.38945E-03  3680   0.661E-02    0.130E-02
DAV:   2    -0.331747909531E+04   -0.58528E-05   -0.85653E-05  3936   0.827E-03    0.999E-03
DAV:   3    -0.331747909517E+04    0.14657E-06   -0.18625E-06  3296   0.180E-03
  46 F= -.33315960E+04 E0= -.33315960E+04  d E =-.237717E-04
 BRION: g(F)=  0.315E-04 g(S)=  0.000E+00 retain N=  2 mean eig= 0.16
 eig:   0.239  0.072
 bond charge predicted
       N       E                     dE             d eps       ncg     rms          rms(c)
DAV:   1    -0.331747909903E+04   -0.37150E-05   -0.57035E-05  3712   0.843E-03    0.275E-03
DAV:   2    -0.331747909897E+04    0.54948E-07   -0.95550E-07  2624   0.125E-03
  47 F= -.33315960E+04 E0= -.33315960E+04  d E =-.434963E-05
 BRION: g(F)=  0.261E-04 g(S)=  0.000E+00 retain N=  3 mean eig= 0.92
 eig:   0.317  1.223  1.223
 bond charge predicted
       N       E                     dE             d eps       ncg     rms          rms(c)
DAV:   1    -0.331747910795E+04   -0.89224E-05   -0.61954E-03  3712   0.804E-02    0.155E-02
DAV:   2    -0.331747911830E+04   -0.10348E-04   -0.14376E-04  3936   0.103E-02    0.109E-02
DAV:   3    -0.331747911795E+04    0.34575E-06   -0.31225E-06  3776   0.212E-03
  48 F= -.33315961E+04 E0= -.33315961E+04  d E =-.224347E-04
 BRION: g(F)=  0.597E-04 g(S)=  0.000E+00 retain N=  4 mean eig= 0.95
 eig:   1.736  1.736  0.319  0.006
 bond charge predicted
       N       E                     dE             d eps       ncg     rms          rms(c)
DAV:   1    -0.331747912845E+04   -0.10149E-04   -0.21107E-02  3680   0.148E-01    0.280E-02
DAV:   2    -0.331747916190E+04   -0.33450E-04   -0.46289E-04  3904   0.183E-02    0.194E-02
DAV:   3    -0.331747916195E+04   -0.52503E-07   -0.10661E-05  4128   0.382E-03    0.150E-02
DAV:   4    -0.331747916655E+04   -0.45974E-05   -0.11216E-05  3776   0.412E-03    0.422E-03
DAV:   5    -0.331747916679E+04   -0.24610E-06   -0.24274E-06  3520   0.178E-03
  49 F= -.33315961E+04 E0= -.33315961E+04  d E =-.575770E-04
 BRION: g(F)=  0.426E-04 g(S)=  0.000E+00 retain N=  4 mean eig= 2.09
 eig:   5.763  1.212  1.212  0.190
 reached required accuracy - stopping structural energy minimisation
 PROFILE, used timers:     329
