 running  256 mpi-ranks, with    1 threads/rank, on    7 nodes
 distrk:  each k-point on  128 cores,    2 groups
 distr:  one band on    4 cores,   32 groups
 vasp.6.4.1 05Apr23 (build May 18 2023 13:19:41) complex                         
 POSCAR found type information on POSCAR C S O 
 POSCAR found :  3 types and     366 ions
 Reading from existing POTCAR
 scaLAPACK will be used
 Reading from existing POTCAR
 -----------------------------------------------------------------------------
|                                                                             |
|               ----> ADVICE to this user running VASP <----                  |
|                                                                             |
|     You have a (more or less) 'large supercell' and for larger cells it     |
|     might be more efficient to use real-space projection operators.         |
|     Therefore, try LREAL= Auto in the INCAR file.                           |
|     Mind: If you want to do very accurate calculations, keep the            |
|     reciprocal projection scheme (i.e. LREAL=.FALSE.).                      |
|                                                                             |
 -----------------------------------------------------------------------------

 LDA part: xc-table for Pade appr. of Perdew
 POSCAR, INCAR and KPOINTS ok, starting setup
 FFT: planning ... GRIDC
 FFT: planning ... GRID_SOFT
 FFT: planning ... GRID
 WAVECAR not read
 charge-density read from file: 01_AOPT                                 
 WARNING: random wavefunctions but no delay for mixing, default for NELMDL
 entering main loop
       N       E                     dE             d eps       ncg     rms          rms(c)
DAV:   1     0.112654683978E+05    0.11265E+05   -0.41494E+05  4288   0.934E+02
DAV:   2     0.391090784369E+03   -0.10874E+05   -0.10109E+05  5632   0.212E+02
DAV:   3    -0.301338244699E+04   -0.34045E+04   -0.32464E+04  4608   0.115E+02
DAV:   4    -0.330622712311E+04   -0.29284E+03   -0.28419E+03  4416   0.386E+01
DAV:   5    -0.331787675827E+04   -0.11650E+02   -0.11422E+02  4992   0.695E+00    0.634E+00
DAV:   6    -0.331751181797E+04    0.36494E+00   -0.37686E+00  4960   0.179E+00    0.423E+00
DAV:   7    -0.331740290426E+04    0.10891E+00   -0.10712E+00  4064   0.987E-01    0.251E+00
DAV:   8    -0.331744619836E+04   -0.43294E-01   -0.27150E-01  4480   0.691E-01    0.110E+00
DAV:   9    -0.331747361748E+04   -0.27419E-01   -0.10563E-01  4288   0.423E-01    0.450E-01
DAV:  10    -0.331747396651E+04   -0.34903E-03   -0.28364E-02  4096   0.175E-01    0.331E-01
DAV:  11    -0.331747412442E+04   -0.15791E-03   -0.10708E-02  4160   0.117E-01    0.122E-01
DAV:  12    -0.331747430801E+04   -0.18360E-03   -0.25364E-03  4032   0.547E-02    0.497E-02
DAV:  13    -0.331747434219E+04   -0.34175E-04   -0.42267E-04  4224   0.205E-02    0.235E-02
DAV:  14    -0.331747433915E+04    0.30411E-05   -0.65033E-05  4128   0.919E-03    0.132E-02
DAV:  15    -0.331747434018E+04   -0.10382E-05   -0.29415E-05  4320   0.609E-03    0.100E-02
DAV:  16    -0.331747433919E+04    0.99407E-06   -0.79035E-06  4352   0.327E-03
 soft stop encountered!  aborting job ...
   1 F= -.33315900E+04 E0= -.33315900E+04  d E =-.333159E+04
 BRION: g(F)=  0.113E-03 g(S)=  0.000E+00
 deleting file STOPCAR
 PROFILE, used timers:     327
