 vasp.6.4.2 20Jul23 (build Oct 12 2023 10:31:02) complex                         
 executed on              LinuxNV date 2025.05.27  19:52:05
 running  128 mpi-ranks, with    1 threads/rank, on    2 nodes
 distrk:  each k-point on   64 cores,    2 groups
 distr:  one band on NCORE=   4 cores,   16 groups


--------------------------------------------------------------------------------------------------------


 INCAR:
   ENCUT = 360.000000
   SIGMA = 0.050000
   EDIFF = 1.00e-06
   ALGO = Normal
   GGA = PE
   PREC = Normal
   SYSTEM = ./
   ICHARG = 2
   ISMEAR = 0
   ISPIN = 1
   ISTART = 0
   ISYM = 0
   KPAR = 2
   LMAXMIX = 4
   NELM = 100
   NPAR = 16
   LASPH = .TRUE.
   LCHARG = .FALSE.
   LWAVE = .FALSE.

 POTCAR:    PAW_PBE Ge 05Jan2001                  
 POTCAR:    PAW_PBE Se 06Sep2000                  
 POTCAR:    PAW_PBE Ge 05Jan2001                  
   VRHFIN =Ge: s2p2                                                                                 
   LEXCH  = PE                                                                                      
   EATOM  =   104.9960 eV,    7.7170 Ry                                                             
                                                                                                    
   TITEL  = PAW_PBE Ge 05Jan2001                                                                    
   LULTRA =        F    use ultrasoft PP ?                                                          
   IUNSCR =        1    unscreen: 0-lin 1-nonlin 2-no                                               
   RPACOR =    2.170    partial core radius                                                         
   POMASS =   72.610; ZVAL   =    4.000    mass and valenz                                          
   RCORE  =    2.300    outmost cutoff radius                                                       
   RWIGS  =    2.300; RWIGS  =    1.217    wigner-seitz radius (au A)                               
   ENMAX  =  173.807; ENMIN  =  130.355 eV                                                          
   ICORE  =        3    local potential                                                             
   LCOR   =        T    correct aug charges                                                         
   LPAW   =        T    paw PP                                                                      
   EAUG   =  385.843                                                                                
   DEXC   =    0.000                                                                                
   RMAX   =    2.342    core radius for proj-oper                                                   
   RAUG   =    1.300    factor for augmentation sphere                                              
   RDEP   =    2.318    radius for radial grids                                                     
   RDEPT  =    2.103    core radius for aug-charge                                                  
                                                                                                    
   Atomic configuration                                                                             
   10 entries                                                                                       
     n  l   j            E        occ.                                                              
     1  0  0.50    -10959.8463   2.0000                                                             
     2  0  0.50     -1371.6056   2.0000                                                             
     2  1  1.50     -1198.4791   6.0000                                                             
     3  0  0.50      -168.4733   2.0000                                                             
     3  1  1.50      -115.6019   6.0000                                                             
     3  2  2.50       -29.3106  10.0000                                                             
     4  0  0.50       -11.7309   2.0000                                                             
     4  1  0.50        -3.8952   2.0000                                                             
     4  2  1.50        -4.0817   0.0000                                                             
     4  3  2.50        -4.0817   0.0000                                                             
   Description                                                                                      
     l       E           TYP  RCUT    TYP  RCUT                                                     
     0    -11.7309493     23  2.300                                                                 
     0     -7.4578696     23  2.300                                                                 
     1     -3.8952261     23  2.300                                                                 
     1      6.1178114     23  2.300                                                                 
     2     -4.0817478     23  2.300                                                                 
     3     -1.3605826      7  2.300                                                                 
  local pseudopotential read in
  partial core-charges read in
  partial kinetic energy density read in
  atomic valenz-charges read in
  non local Contribution for L=            0  read in
    real space projection operators read in
  non local Contribution for L=            0  read in
    real space projection operators read in
  non local Contribution for L=            1  read in
    real space projection operators read in
  non local Contribution for L=            1  read in
    real space projection operators read in
  non local Contribution for L=            2  read in
    real space projection operators read in
    PAW grid and wavefunctions read in
 
   number of l-projection  operators is LMAX  =            5
   number of lm-projection operators is LMMAX =           13
 
 POTCAR:    PAW_PBE Se 06Sep2000                  
   VRHFIN =Se: s2p4                                                                                 
   LEXCH  = PE                                                                                      
   EATOM  =   257.1286 eV,   18.8984 Ry                                                             
                                                                                                    
   TITEL  = PAW_PBE Se 06Sep2000                                                                    
   LULTRA =        F    use ultrasoft PP ?                                                          
   IUNSCR =        1    unscreen: 0-lin 1-nonlin 2-no                                               
   RPACOR =    1.900    partial core radius                                                         
   POMASS =   78.960; ZVAL   =    6.000    mass and valenz                                          
   RCORE  =    2.100    outmost cutoff radius                                                       
   RWIGS  =    2.200; RWIGS  =    1.164    wigner-seitz radius (au A)                               
   ENMAX  =  211.555; ENMIN  =  158.666 eV                                                          
   ICORE  =        3    local potential                                                             
   LCOR   =        T    correct aug charges                                                         
   LPAW   =        T    paw PP                                                                      
   EAUG   =  446.842                                                                                
   DEXC   =    0.000                                                                                
   RMAX   =    2.147    core radius for proj-oper                                                   
   RAUG   =    1.300    factor for augmentation sphere                                              
   RDEP   =    2.177    radius for radial grids                                                     
   RDEPT  =    1.928    core radius for aug-charge                                                  
                                                                                                    
   Atomic configuration                                                                             
   10 entries                                                                                       
     n  l   j            E        occ.                                                              
     1  0  0.50    -12503.4787   2.0000                                                             
     2  0  0.50     -1606.9547   2.0000                                                             
     2  1  1.50     -1413.3140   6.0000                                                             
     3  0  0.50      -213.4885   2.0000                                                             
     3  1  1.50      -152.9538   6.0000                                                             
     3  2  2.50       -53.1221  10.0000                                                             
     4  0  0.50       -17.2865   2.0000                                                             
     4  1  0.50        -6.5110   4.0000                                                             
     4  2  2.50        -6.8029   0.0000                                                             
     4  3  2.50        -6.8029   0.0000                                                             
   Description                                                                                      
     l       E           TYP  RCUT    TYP  RCUT                                                     
     0    -17.2865377     23  2.100                                                                 
     0    -15.3094411     23  2.100                                                                 
     1     -6.5110275     23  2.100                                                                 
     1     -0.0695192     23  2.100                                                                 
     2     -6.8029130     23  2.100                                                                 
     3     -1.3605826      7  2.100                                                                 
  local pseudopotential read in
  partial core-charges read in
  partial kinetic energy density read in
  atomic valenz-charges read in
  non local Contribution for L=            0  read in
    real space projection operators read in
  non local Contribution for L=            0  read in
    real space projection operators read in
  non local Contribution for L=            1  read in
    real space projection operators read in
  non local Contribution for L=            1  read in
    real space projection operators read in
  non local Contribution for L=            2  read in
    real space projection operators read in
    PAW grid and wavefunctions read in
 
   number of l-projection  operators is LMAX  =            5
   number of lm-projection operators is LMMAX =           13
 
  PAW_PBE Ge 05Jan2001                  :
 energy of atom  1       EATOM= -104.9960
 kinetic energy error for atom=    0.0005 (will be added to EATOM!!)
  PAW_PBE Se 06Sep2000                  :
 energy of atom  2       EATOM= -257.1286
 kinetic energy error for atom=    0.0030 (will be added to EATOM!!)
 
 
 POSCAR: Ge Se
  positions in cartesian coordinates
  No initial velocities read in
 exchange correlation table for  LEXCH =        8
   RHO(1)=    0.500       N(1)  =     2000
   RHO(2)=  100.500       N(2)  =     4000
 


--------------------------------------------------------------------------------------------------------


 ion  position               nearest neighbor table
   1  0.250  0.093  0.120-   6 2.56   6 2.56   5 2.62
   2  0.750  0.593  0.380-   5 2.56   5 2.56   6 2.62
   3  0.750  0.907  0.880-   8 2.56   8 2.56   7 2.62
   4  0.250  0.407  0.620-   7 2.56   7 2.56   8 2.62
   5  0.250  0.019  0.354-   2 2.56   2 2.56   1 2.62
   6  0.750  0.519  0.146-   1 2.56   1 2.56   2 2.62
   7  0.750  0.981  0.646-   4 2.56   4 2.56   3 2.62
   8  0.250  0.481  0.854-   3 2.56   3 2.56   4 2.62
 

IMPORTANT INFORMATION: All symmetrisations will be switched off!
NOSYMM: (Re-)initialisation of all symmetry stuff for point group C_1.


----------------------------------------------------------------------------------------

                                     Primitive cell                                     

  volume of cell :     169.0275

  direct lattice vectors                    reciprocal lattice vectors
     3.700000000  0.000000000  0.000000000     0.270270270  0.000000000  0.000000000
     0.000000000  4.100000000  0.000000000     0.000000000  0.243902439  0.000000000
     0.000000000  0.000000000 11.142221000     0.000000000  0.000000000  0.089748713

  length of vectors
     3.700000000  4.100000000 11.142221000     0.270270270  0.243902439  0.089748713

  position of ions in fractional coordinates (direct lattice)
     0.250000000  0.092514036  0.119861141
     0.750000000  0.592514036  0.380138859
     0.750000000  0.907485964  0.880138859
     0.250000000  0.407485964  0.619861141
     0.250000000  0.018700364  0.353705434
     0.750000000  0.518700364  0.146294566
     0.750000000  0.981299636  0.646294566
     0.250000000  0.481299636  0.853705434

  ion indices of the primitive-cell ions
   primitive index   ion index
                 1           1
                 2           2
                 3           3
                 4           4
                 5           5
                 6           6
                 7           7
                 8           8

----------------------------------------------------------------------------------------

 
 
 KPOINTS: KPOINTS created by Atomic Simulation Env

Automatic generation of k-mesh.
 Grid dimensions read from file:
 generate k-points for:    6    6    2

 Generating k-lattice:

  Cartesian coordinates                     Fractional coordinates (reciprocal lattice)
     0.045045045  0.000000000  0.000000000     0.166666667  0.000000000  0.000000000
     0.000000000  0.040650407  0.000000000     0.000000000  0.166666667  0.000000000
     0.000000000  0.000000000  0.044874357     0.000000000  0.000000000  0.500000000

  Length of vectors
     0.045045045  0.040650407  0.044874357

  Shift w.r.t. Gamma in fractional coordinates (k-lattice)
     0.000000000  0.000000000  0.000000000

 
 Subroutine IBZKPT returns following result:
 ===========================================
 
 Found     40 irreducible k-points:
 
 Following reciprocal coordinates:
            Coordinates               Weight
  0.000000  0.000000  0.000000      1.000000
  0.166667  0.000000  0.000000      2.000000
  0.333333  0.000000  0.000000      2.000000
  0.500000  0.000000  0.000000      1.000000
  0.000000  0.166667  0.000000      2.000000
  0.166667  0.166667  0.000000      2.000000
  0.166667 -0.166667  0.000000      2.000000
  0.333333  0.166667  0.000000      2.000000
  0.333333 -0.166667  0.000000      2.000000
  0.500000  0.166667  0.000000      2.000000
  0.000000  0.333333  0.000000      2.000000
  0.166667  0.333333  0.000000      2.000000
  0.166667 -0.333333  0.000000      2.000000
  0.333333  0.333333  0.000000      2.000000
  0.333333 -0.333333  0.000000      2.000000
  0.500000  0.333333  0.000000      2.000000
  0.000000  0.500000  0.000000      1.000000
  0.166667  0.500000  0.000000      2.000000
  0.333333  0.500000  0.000000      2.000000
  0.500000  0.500000  0.000000      1.000000
  0.000000  0.000000  0.500000      1.000000
  0.166667  0.000000  0.500000      2.000000
  0.333333  0.000000  0.500000      2.000000
  0.500000  0.000000  0.500000      1.000000
  0.000000  0.166667  0.500000      2.000000
  0.166667  0.166667  0.500000      2.000000
  0.166667 -0.166667  0.500000      2.000000
  0.333333  0.166667  0.500000      2.000000
  0.333333 -0.166667  0.500000      2.000000
  0.500000  0.166667  0.500000      2.000000
  0.000000  0.333333  0.500000      2.000000
  0.166667  0.333333  0.500000      2.000000
  0.166667 -0.333333  0.500000      2.000000
  0.333333  0.333333  0.500000      2.000000
  0.333333 -0.333333  0.500000      2.000000
  0.500000  0.333333  0.500000      2.000000
  0.000000  0.500000  0.500000      1.000000
  0.166667  0.500000  0.500000      2.000000
  0.333333  0.500000  0.500000      2.000000
  0.500000  0.500000  0.500000      1.000000
 
 Following cartesian coordinates:
            Coordinates               Weight
  0.000000  0.000000  0.000000      1.000000
  0.045045  0.000000  0.000000      2.000000
  0.090090  0.000000  0.000000      2.000000
  0.135135  0.000000  0.000000      1.000000
  0.000000  0.040650  0.000000      2.000000
  0.045045  0.040650  0.000000      2.000000
  0.045045 -0.040650  0.000000      2.000000
  0.090090  0.040650  0.000000      2.000000
  0.090090 -0.040650  0.000000      2.000000
  0.135135  0.040650  0.000000      2.000000
  0.000000  0.081301  0.000000      2.000000
  0.045045  0.081301  0.000000      2.000000
  0.045045 -0.081301  0.000000      2.000000
  0.090090  0.081301  0.000000      2.000000
  0.090090 -0.081301  0.000000      2.000000
  0.135135  0.081301  0.000000      2.000000
  0.000000  0.121951  0.000000      1.000000
  0.045045  0.121951  0.000000      2.000000
  0.090090  0.121951  0.000000      2.000000
  0.135135  0.121951  0.000000      1.000000
  0.000000  0.000000  0.044874      1.000000
  0.045045  0.000000  0.044874      2.000000
  0.090090  0.000000  0.044874      2.000000
  0.135135  0.000000  0.044874      1.000000
  0.000000  0.040650  0.044874      2.000000
  0.045045  0.040650  0.044874      2.000000
  0.045045 -0.040650  0.044874      2.000000
  0.090090  0.040650  0.044874      2.000000
  0.090090 -0.040650  0.044874      2.000000
  0.135135  0.040650  0.044874      2.000000
  0.000000  0.081301  0.044874      2.000000
  0.045045  0.081301  0.044874      2.000000
  0.045045 -0.081301  0.044874      2.000000
  0.090090  0.081301  0.044874      2.000000
  0.090090 -0.081301  0.044874      2.000000
  0.135135  0.081301  0.044874      2.000000
  0.000000  0.121951  0.044874      1.000000
  0.045045  0.121951  0.044874      2.000000
  0.090090  0.121951  0.044874      2.000000
  0.135135  0.121951  0.044874      1.000000
 


--------------------------------------------------------------------------------------------------------




 Dimension of arrays:
   k-points           NKPTS =     40   k-points in BZ     NKDIM =     40   number of bands    NBANDS=     32
   number of dos      NEDOS =    301   number of ions     NIONS =      8
   non local maximal  LDIM  =      5   non local SUM 2l+1 LMDIM =     13
   total plane-waves  NPLWV =  19440
   max r-space proj   IRMAX =      1   max aug-charges    IRDMAX=   6450
   dimension x,y,z NGX =    18 NGY =   20 NGZ =   54
   dimension x,y,z NGXF=    36 NGYF=   40 NGZF=  108
   support grid    NGXF=    36 NGYF=   40 NGZF=  108
   ions per type =               4   4
   NGX,Y,Z   is equivalent  to a cutoff of   8.09,  8.11,  8.06 a.u.
   NGXF,Y,Z  is equivalent  to a cutoff of  16.18, 16.22, 16.11 a.u.

 SYSTEM =  ./                                      
 POSCAR =  Ge Se                                   

 Startparameter for this run:
   NWRITE =      2    write-flag & timer
   PREC   = normal    normal or accurate (medium, high low for compatibility)
   ISTART =      0    job   : 0-new  1-cont  2-samecut
   ICHARG =      2    charge: 1-file 2-atom 10-const
   ISPIN  =      1    spin polarized calculation?
   LNONCOLLINEAR =      F non collinear calculations
   LSORBIT =      F    spin-orbit coupling
   INIWAV =      1    electr: 0-lowe 1-rand  2-diag
   LASPH  =      T    aspherical Exc in radial PAW
 Electronic Relaxation 1
   ENCUT  =  360.0 eV  26.46 Ry    5.14 a.u.   5.72  6.34 17.24*2*pi/ulx,y,z
   ENINI  =  360.0     initial cutoff
   ENAUG  =  446.8 eV  augmentation charge cutoff
   NELM   =    100;   NELMIN=  2; NELMDL= -5     # of ELM steps 
   EDIFF  = 0.1E-05   stopping-criterion for ELM
   LREAL  =      F    real-space projection
   NLSPLINE    = F    spline interpolate recip. space projectors
   LCOMPAT=      F    compatible to vasp.4.4
   GGA_COMPAT  = T    GGA compatible to vasp.4.4-vasp.4.6
   LMAXPAW     = -100 max onsite density
   LMAXMIX     =    4 max onsite mixed and CHGCAR
   VOSKOWN=      0    Vosko Wilk Nusair interpolation
   ROPT   =    0.00000   0.00000
 Ionic relaxation
   EDIFFG = 0.1E-04   stopping-criterion for IOM
   NSW    =      0    number of steps for IOM
   NBLOCK =      1;   KBLOCK =      1    inner block; outer block 
   IBRION =     -1    ionic relax: 0-MD 1-quasi-New 2-CG
   NFREE  =      0    steps in history (QN), initial steepest desc. (CG)
   ISIF   =      2    stress and relaxation
   IWAVPR =     10    prediction:  0-non 1-charg 2-wave 3-comb
   ISYM   =      0    0-nonsym 1-usesym 2-fastsym
   LCORR  =      T    Harris-Foulkes like correction to forces

   POTIM  = 0.5000    time-step for ionic-motion
   TEIN   =    0.0    initial temperature
   TEBEG  =    0.0;   TEEND  =   0.0 temperature during run
   SMASS  =  -3.00    Nose mass-parameter (am)
   estimated Nose-frequenzy (Omega)   =  0.10E-29 period in steps = 0.13E+47 mass=  -0.313E-27a.u.
   SCALEE = 1.0000    scale energy and forces
   NPACO  =    256;   APACO  = 10.0  distance and # of slots for P.C.
   PSTRESS=    0.0 pullay stress

  Mass of Ions in am
   POMASS =  72.61 78.96
  Ionic Valenz
   ZVAL   =   4.00  6.00
  Atomic Wigner-Seitz radii
   RWIGS  =  -1.00 -1.00
  virtual crystal weights 
   VCA    =   1.00  1.00
   NELECT =      40.0000    total number of electrons
   NUPDOWN=      -1.0000    fix difference up-down

 DOS related values:
   EMIN   =  10.00;   EMAX   =-10.00  energy-range for DOS
   EFERMI =   0.00;   METHOD = LEGACY      
   ISMEAR =     0;   SIGMA  =   0.05  broadening in eV -4-tet -1-fermi 0-gaus

 Electronic relaxation 2 (details)
   IALGO  =     38    algorithm
   LDIAG  =      T    sub-space diagonalisation (order eigenvalues)
   LSUBROT=      F    optimize rotation matrix (better conditioning)
   TURBO    =      0    0=normal 1=particle mesh
   IRESTART =      0    0=no restart 2=restart with 2 vectors
   NREBOOT  =      0    no. of reboots
   NMIN     =      0    reboot dimension
   EREF     =   0.00    reference energy to select bands
   IMIX   =      4    mixing-type and parameters
     AMIX     =   0.40;   BMIX     =  1.00
     AMIX_MAG =   1.60;   BMIX_MAG =  1.00
     AMIN     =   0.10
     WC   =   100.;   INIMIX=   1;  MIXPRE=   1;  MAXMIX= -45

 Intra band minimization:
   WEIMIN = 0.0000     energy-eigenvalue tresh-hold
   EBREAK =  0.78E-08  absolut break condition
   DEPER  =   0.30     relativ break condition  

   TIME   =   0.40     timestep for ELM

  volume/ion in A,a.u.               =      21.13       142.58
  Fermi-wavevector in a.u.,A,eV,Ry     =   1.012610  1.913556 13.951139  1.025380
  Thomas-Fermi vector in A             =   2.145730
 
 Write flags
   LWAVE        =      F    write WAVECAR
   LDOWNSAMPLE  =      F    k-point downsampling of WAVECAR
   LCHARG       =      F    write CHGCAR
   LVTOT        =      F    write LOCPOT, total local potential
   LVHAR        =      F    write LOCPOT, Hartree potential only
   LELF         =      F    write electronic localiz. function (ELF)
   LORBIT       =      0    0 simple, 1 ext, 2 COOP (PROOUT), +10 PAW based schemes


 Dipole corrections
   LMONO  =      F    monopole corrections only (constant potential shift)
   LDIPOL =      F    correct potential (dipole corrections)
   IDIPOL =      0    1-x, 2-y, 3-z, 4-all directions 
   EPSILON=  1.0000000 bulk dielectric constant

 Exchange correlation treatment:
   GGA     =    PE    GGA type
   LEXCH   =     8    internal setting for exchange type
   LIBXC   =     F    Libxc                    
   VOSKOWN =     0    Vosko Wilk Nusair interpolation
   LHFCALC =     F    Hartree Fock is set to
   LHFONE  =     F    Hartree Fock one center treatment
   AEXX    =    0.0000 exact exchange contribution

 Linear response parameters
   LEPSILON=     F    determine dielectric tensor
   LRPA    =     F    only Hartree local field effects (RPA)
   LNABLA  =     F    use nabla operator in PAW spheres
   LVEL    =     F    velocity operator in full k-point grid
   CSHIFT  =0.1000    complex shift for real part using Kramers Kronig
   OMEGAMAX=  -1.0    maximum frequency
   DEG_THRESHOLD= 0.2000000E-02 threshold for treating states as degnerate
   RTIME   =   -0.100 relaxation time in fs
  (WPLASMAI=    0.000 imaginary part of plasma frequency in eV, 0.658/RTIME)
   DFIELD  = 0.0000000 0.0000000 0.0000000 field for delta impulse in time
 
  Optional k-point grid parameters
   LKPOINTS_OPT  =     F    use optional k-point grid
   KPOINTS_OPT_MODE=     1    mode for optional k-point grid
 
 Orbital magnetization related:
   ORBITALMAG=     F  switch on orbital magnetization
   LCHIMAG   =     F  perturbation theory with respect to B field
   DQ        =  0.001000  dq finite difference perturbation B field
   LLRAUG    =     F  two centre corrections for induced B field
   LBONE     =     F  B-component reconstruction in AE one-centre
   LVGVCALC  =     T  calculate vGv susceptibility
   LVGVAPPL  =     F  apply vGv susceptibility instead of pGv for G=0

 Random number generation:
   RANDOM_GENERATOR = DEFAULT
   PCG_SEED         = not used


--------------------------------------------------------------------------------------------------------


 Static calculation
 charge density and potential will be updated during run
 non-spin polarized calculation
 Variant of blocked Davidson
 Davidson routine will perform the subspace rotation
 perform sub-space diagonalisation
    after iterative eigenvector-optimisation
 modified Broyden-mixing scheme, WC =      100.0
 initial mixing is a Kerker type mixing with AMIX =  0.4000 and BMIX =      1.0000
 Hartree-type preconditioning will be used
 using additional bands            12
 reciprocal scheme for non local part
 use partial core corrections
 calculate Harris-corrections to forces 
   (improved forces if not selfconsistent)
 use gradient corrections 
 use of overlap-Matrix (Vanderbilt PP)
 Gauss-broadening in eV      SIGMA  =   0.05


--------------------------------------------------------------------------------------------------------


  energy-cutoff  :      360.00
  volume of cell :      169.03
      direct lattice vectors                 reciprocal lattice vectors
     3.700000000  0.000000000  0.000000000     0.270270270  0.000000000  0.000000000
     0.000000000  4.100000000  0.000000000     0.000000000  0.243902439  0.000000000
     0.000000000  0.000000000 11.142221000     0.000000000  0.000000000  0.089748713

  length of vectors
     3.700000000  4.100000000 11.142221000     0.270270270  0.243902439  0.089748713


 
 k-points in units of 2pi/SCALE and weight: KPOINTS created by Atomic Simulation Env
   0.00000000  0.00000000  0.00000000       0.014
   0.04504505  0.00000000  0.00000000       0.028
   0.09009009  0.00000000  0.00000000       0.028
   0.13513514  0.00000000  0.00000000       0.014
   0.00000000  0.04065041  0.00000000       0.028
   0.04504505  0.04065041  0.00000000       0.028
   0.04504505 -0.04065041  0.00000000       0.028
   0.09009009  0.04065041  0.00000000       0.028
   0.09009009 -0.04065041  0.00000000       0.028
   0.13513514  0.04065041  0.00000000       0.028
   0.00000000  0.08130081  0.00000000       0.028
   0.04504505  0.08130081  0.00000000       0.028
   0.04504505 -0.08130081  0.00000000       0.028
   0.09009009  0.08130081  0.00000000       0.028
   0.09009009 -0.08130081  0.00000000       0.028
   0.13513514  0.08130081  0.00000000       0.028
   0.00000000  0.12195122  0.00000000       0.014
   0.04504505  0.12195122  0.00000000       0.028
   0.09009009  0.12195122  0.00000000       0.028
   0.13513514  0.12195122  0.00000000       0.014
   0.00000000  0.00000000  0.04487436       0.014
   0.04504505  0.00000000  0.04487436       0.028
   0.09009009  0.00000000  0.04487436       0.028
   0.13513514  0.00000000  0.04487436       0.014
   0.00000000  0.04065041  0.04487436       0.028
   0.04504505  0.04065041  0.04487436       0.028
   0.04504505 -0.04065041  0.04487436       0.028
   0.09009009  0.04065041  0.04487436       0.028
   0.09009009 -0.04065041  0.04487436       0.028
   0.13513514  0.04065041  0.04487436       0.028
   0.00000000  0.08130081  0.04487436       0.028
   0.04504505  0.08130081  0.04487436       0.028
   0.04504505 -0.08130081  0.04487436       0.028
   0.09009009  0.08130081  0.04487436       0.028
   0.09009009 -0.08130081  0.04487436       0.028
   0.13513514  0.08130081  0.04487436       0.028
   0.00000000  0.12195122  0.04487436       0.014
   0.04504505  0.12195122  0.04487436       0.028
   0.09009009  0.12195122  0.04487436       0.028
   0.13513514  0.12195122  0.04487436       0.014
 
 k-points in reciprocal lattice and weights: KPOINTS created by Atomic Simulation Env
   0.00000000  0.00000000  0.00000000       0.014
   0.16666667  0.00000000  0.00000000       0.028
   0.33333333  0.00000000  0.00000000       0.028
   0.50000000  0.00000000  0.00000000       0.014
   0.00000000  0.16666667  0.00000000       0.028
   0.16666667  0.16666667  0.00000000       0.028
   0.16666667 -0.16666667  0.00000000       0.028
   0.33333333  0.16666667  0.00000000       0.028
   0.33333333 -0.16666667  0.00000000       0.028
   0.50000000  0.16666667  0.00000000       0.028
   0.00000000  0.33333333  0.00000000       0.028
   0.16666667  0.33333333  0.00000000       0.028
   0.16666667 -0.33333333  0.00000000       0.028
   0.33333333  0.33333333  0.00000000       0.028
   0.33333333 -0.33333333  0.00000000       0.028
   0.50000000  0.33333333  0.00000000       0.028
   0.00000000  0.50000000  0.00000000       0.014
   0.16666667  0.50000000  0.00000000       0.028
   0.33333333  0.50000000  0.00000000       0.028
   0.50000000  0.50000000  0.00000000       0.014
   0.00000000  0.00000000  0.50000000       0.014
   0.16666667  0.00000000  0.50000000       0.028
   0.33333333  0.00000000  0.50000000       0.028
   0.50000000  0.00000000  0.50000000       0.014
   0.00000000  0.16666667  0.50000000       0.028
   0.16666667  0.16666667  0.50000000       0.028
   0.16666667 -0.16666667  0.50000000       0.028
   0.33333333  0.16666667  0.50000000       0.028
   0.33333333 -0.16666667  0.50000000       0.028
   0.50000000  0.16666667  0.50000000       0.028
   0.00000000  0.33333333  0.50000000       0.028
   0.16666667  0.33333333  0.50000000       0.028
   0.16666667 -0.33333333  0.50000000       0.028
   0.33333333  0.33333333  0.50000000       0.028
   0.33333333 -0.33333333  0.50000000       0.028
   0.50000000  0.33333333  0.50000000       0.028
   0.00000000  0.50000000  0.50000000       0.014
   0.16666667  0.50000000  0.50000000       0.028
   0.33333333  0.50000000  0.50000000       0.028
   0.50000000  0.50000000  0.50000000       0.014
 
 position of ions in fractional coordinates (direct lattice) 
   0.25000000  0.09251404  0.11986114
   0.75000000  0.59251404  0.38013886
   0.75000000  0.90748596  0.88013886
   0.25000000  0.40748596  0.61986114
   0.25000000  0.01870036  0.35370543
   0.75000000  0.51870036  0.14629457
   0.75000000  0.98129964  0.64629457
   0.25000000  0.48129964  0.85370543
 
 position of ions in cartesian coordinates  (Angst):
   0.92500000  0.37930755  1.33551932
   2.77500000  2.42930755  4.23559118
   2.77500000  3.72069245  9.80670168
   0.92500000  1.67069245  6.90662982
   0.92500000  0.07667149  3.94106412
   2.77500000  2.12667149  1.63004638
   2.77500000  4.02332851  7.20115688
   0.92500000  1.97332851  9.51217462
 


--------------------------------------------------------------------------------------------------------


 k-point   1 :   0.0000 0.0000 0.0000  plane waves:    2629
 k-point   2 :   0.1667 0.0000 0.0000  plane waves:    2631
 k-point   3 :   0.3333 0.0000 0.0000  plane waves:    2618
 k-point   4 :   0.5000 0.0000 0.0000  plane waves:    2624
 k-point   5 :   0.0000 0.1667 0.0000  plane waves:    2627
 k-point   6 :   0.1667 0.1667 0.0000  plane waves:    2629
 k-point   7 :   0.1667-0.1667 0.0000  plane waves:    2629
 k-point   8 :   0.3333 0.1667 0.0000  plane waves:    2615
 k-point   9 :   0.3333-0.1667 0.0000  plane waves:    2615
 k-point  10 :   0.5000 0.1667 0.0000  plane waves:    2618
 k-point  11 :   0.0000 0.3333 0.0000  plane waves:    2625
 k-point  12 :   0.1667 0.3333 0.0000  plane waves:    2614
 k-point  13 :   0.1667-0.3333 0.0000  plane waves:    2614
 k-point  14 :   0.3333 0.3333 0.0000  plane waves:    2609
 k-point  15 :   0.3333-0.3333 0.0000  plane waves:    2609
 k-point  16 :   0.5000 0.3333 0.0000  plane waves:    2624
 k-point  17 :   0.0000 0.5000 0.0000  plane waves:    2632
 k-point  18 :   0.1667 0.5000 0.0000  plane waves:    2600
 k-point  19 :   0.3333 0.5000 0.0000  plane waves:    2634
 k-point  20 :   0.5000 0.5000 0.0000  plane waves:    2644
 k-point  21 :   0.0000 0.0000 0.5000  plane waves:    2634
 k-point  22 :   0.1667 0.0000 0.5000  plane waves:    2634
 k-point  23 :   0.3333 0.0000 0.5000  plane waves:    2624
 k-point  24 :   0.5000 0.0000 0.5000  plane waves:    2608
 k-point  25 :   0.0000 0.1667 0.5000  plane waves:    2638
 k-point  26 :   0.1667 0.1667 0.5000  plane waves:    2632
 k-point  27 :   0.1667-0.1667 0.5000  plane waves:    2632
 k-point  28 :   0.3333 0.1667 0.5000  plane waves:    2612
 k-point  29 :   0.3333-0.1667 0.5000  plane waves:    2612
 k-point  30 :   0.5000 0.1667 0.5000  plane waves:    2616
 k-point  31 :   0.0000 0.3333 0.5000  plane waves:    2620
 k-point  32 :   0.1667 0.3333 0.5000  plane waves:    2618
 k-point  33 :   0.1667-0.3333 0.5000  plane waves:    2618
 k-point  34 :   0.3333 0.3333 0.5000  plane waves:    2620
 k-point  35 :   0.3333-0.3333 0.5000  plane waves:    2620
 k-point  36 :   0.5000 0.3333 0.5000  plane waves:    2644
 k-point  37 :   0.0000 0.5000 0.5000  plane waves:    2620
 k-point  38 :   0.1667 0.5000 0.5000  plane waves:    2620
 k-point  39 :   0.3333 0.5000 0.5000  plane waves:    2616
 k-point  40 :   0.5000 0.5000 0.5000  plane waves:    2640

 maximum and minimum number of plane-waves per node :       677      631

 maximum number of plane-waves:      2644
 maximum index in each direction: 
   IXMAX=    5   IYMAX=    6   IZMAX=   17
   IXMIN=   -6   IYMIN=   -6   IZMIN=  -17


 parallel 3D FFT for wavefunctions:
    minimum data exchange during FFTs selected (reduces bandwidth)
 parallel 3D FFT for charge:
    minimum data exchange during FFTs selected (reduces bandwidth)


 total amount of memory used by VASP MPI-rank0    37372. kBytes
=======================================================================

   base      :      30000. kBytes
   nonl-proj :       5677. kBytes
   fftplans  :        316. kBytes
   grid      :        462. kBytes
   one-center:         16. kBytes
   wavefun   :        901. kBytes
 
     INWAV:  cpu time      0.0000: real time      0.0001
 Broyden mixing: mesh for mixing (old mesh)
   NGX = 11   NGY = 13   NGZ = 35
  (NGX  = 36   NGY  = 40   NGZ  =108)
  gives a total of   5005 points

 initial charge density was supplied:
 charge density of overlapping atoms calculated
 number of electron      40.0000000 magnetization 
 keeping initial charge density in first step


--------------------------------------------------------------------------------------------------------


 Maximum index for augmentation-charges           146 (set IRDMAX)


--------------------------------------------------------------------------------------------------------


 First call to EWALD:  gamma=   0.321
 Maximum number of real-space cells 4x 4x 2
 Maximum number of reciprocal cells 2x 2x 5

    FEWALD:  cpu time      0.0008: real time      0.0008


--------------------------------------- Ionic step        1  -------------------------------------------




--------------------------------------- Iteration      1(   1)  ---------------------------------------


    POTLOK:  cpu time      0.0058: real time      0.0065
    SETDIJ:  cpu time      0.1378: real time      0.1382
     EDDAV:  cpu time      0.2614: real time      0.2640
       DOS:  cpu time      0.0018: real time      0.0018
    --------------------------------------------
      LOOP:  cpu time      0.4068: real time      0.4105

 eigenvalue-minimisations  :  2560
 total energy-change (2. order) : 0.1266820E+03  (-0.1312428E+04)
 number of electron      40.0000000 magnetization 
 augmentation part       40.0000000 magnetization 

 Free energy of the ion-electron system (eV)
  ---------------------------------------------------
  alpha Z        PSCENC =       100.24668285
  Ewald energy   TEWEN  =     -1502.28240756
  -Hartree energ DENC   =       -99.56803758
  -exchange      EXHF   =         0.00000000
  -V(xc)+E(xc)   XCENC  =       -31.65227361
  PAW double counting   =      1193.78262552    -1080.73714043
  entropy T*S    EENTRO =        -0.00334691
  eigenvalues    EBANDS =        98.41124791
  atomic energy  EATOM  =      1448.48460880
  Solvation  Ediel_sol  =         0.00000000
  ---------------------------------------------------
  free energy    TOTEN  =       126.68195898 eV

  energy without entropy =      126.68530589  energy(sigma->0) =      126.68363243


--------------------------------------------------------------------------------------------------------




--------------------------------------- Iteration      1(   2)  ---------------------------------------


     EDDAV:  cpu time      0.3206: real time      0.3236
       DOS:  cpu time      0.0011: real time      0.0011
    --------------------------------------------
      LOOP:  cpu time      0.3217: real time      0.3246

 eigenvalue-minimisations  :  3728
 total energy-change (2. order) :-0.1526632E+03  (-0.1480787E+03)
 number of electron      40.0000000 magnetization 
 augmentation part       40.0000000 magnetization 

 Free energy of the ion-electron system (eV)
  ---------------------------------------------------
  alpha Z        PSCENC =       100.24668285
  Ewald energy   TEWEN  =     -1502.28240756
  -Hartree energ DENC   =       -99.56803758
  -exchange      EXHF   =         0.00000000
  -V(xc)+E(xc)   XCENC  =       -31.65227361
  PAW double counting   =      1193.78262552    -1080.73714043
  entropy T*S    EENTRO =        -0.00094882
  eigenvalues    EBANDS =       -54.25434856
  atomic energy  EATOM  =      1448.48460880
  Solvation  Ediel_sol  =         0.00000000
  ---------------------------------------------------
  free energy    TOTEN  =       -25.98123940 eV

  energy without entropy =      -25.98029058  energy(sigma->0) =      -25.98076499


--------------------------------------------------------------------------------------------------------




--------------------------------------- Iteration      1(   3)  ---------------------------------------


     EDDAV:  cpu time      0.2895: real time      0.2926
       DOS:  cpu time      0.0010: real time      0.0010
    --------------------------------------------
      LOOP:  cpu time      0.2904: real time      0.2936

 eigenvalue-minimisations  :  3184
 total energy-change (2. order) :-0.7545623E+01  (-0.7528532E+01)
 number of electron      40.0000000 magnetization 
 augmentation part       40.0000000 magnetization 

 Free energy of the ion-electron system (eV)
  ---------------------------------------------------
  alpha Z        PSCENC =       100.24668285
  Ewald energy   TEWEN  =     -1502.28240756
  -Hartree energ DENC   =       -99.56803758
  -exchange      EXHF   =         0.00000000
  -V(xc)+E(xc)   XCENC  =       -31.65227361
  PAW double counting   =      1193.78262552    -1080.73714043
  entropy T*S    EENTRO =        -0.00059863
  eigenvalues    EBANDS =       -61.80032169
  atomic energy  EATOM  =      1448.48460880
  Solvation  Ediel_sol  =         0.00000000
  ---------------------------------------------------
  free energy    TOTEN  =       -33.52686234 eV

  energy without entropy =      -33.52626371  energy(sigma->0) =      -33.52656303


--------------------------------------------------------------------------------------------------------




--------------------------------------- Iteration      1(   4)  ---------------------------------------


     EDDAV:  cpu time      0.2971: real time      0.2999
       DOS:  cpu time      0.0010: real time      0.0010
    --------------------------------------------
      LOOP:  cpu time      0.2980: real time      0.3009

 eigenvalue-minimisations  :  3264
 total energy-change (2. order) :-0.4235845E-01  (-0.4235234E-01)
 number of electron      40.0000000 magnetization 
 augmentation part       40.0000000 magnetization 

 Free energy of the ion-electron system (eV)
  ---------------------------------------------------
  alpha Z        PSCENC =       100.24668285
  Ewald energy   TEWEN  =     -1502.28240756
  -Hartree energ DENC   =       -99.56803758
  -exchange      EXHF   =         0.00000000
  -V(xc)+E(xc)   XCENC  =       -31.65227361
  PAW double counting   =      1193.78262552    -1080.73714043
  entropy T*S    EENTRO =        -0.00057821
  eigenvalues    EBANDS =       -61.84270055
  atomic energy  EATOM  =      1448.48460880
  Solvation  Ediel_sol  =         0.00000000
  ---------------------------------------------------
  free energy    TOTEN  =       -33.56922079 eV

  energy without entropy =      -33.56864258  energy(sigma->0) =      -33.56893168


--------------------------------------------------------------------------------------------------------




--------------------------------------- Iteration      1(   5)  ---------------------------------------


     EDDAV:  cpu time      0.2917: real time      0.2945
       DOS:  cpu time      0.0009: real time      0.0009
    CHARGE:  cpu time      0.0048: real time      0.0048
    MIXING:  cpu time      0.0008: real time      0.0009
    --------------------------------------------
      LOOP:  cpu time      0.2982: real time      0.3011

 eigenvalue-minimisations  :  3120
 total energy-change (2. order) :-0.2409971E-03  (-0.2409893E-03)
 number of electron      39.9999982 magnetization 
 augmentation part       -7.4031482 magnetization 

 Broyden mixing:
  rms(total) = 0.70533E+00    rms(broyden)= 0.70532E+00
  rms(prec ) = 0.76479E+00
  weight for this iteration     100.00

 Free energy of the ion-electron system (eV)
  ---------------------------------------------------
  alpha Z        PSCENC =       100.24668285
  Ewald energy   TEWEN  =     -1502.28240756
  -Hartree energ DENC   =       -99.56803758
  -exchange      EXHF   =         0.00000000
  -V(xc)+E(xc)   XCENC  =       -31.65227361
  PAW double counting   =      1193.78262552    -1080.73714043
  entropy T*S    EENTRO =        -0.00057820
  eigenvalues    EBANDS =       -61.84294156
  atomic energy  EATOM  =      1448.48460880
  Solvation  Ediel_sol  =         0.00000000
  ---------------------------------------------------
  free energy    TOTEN  =       -33.56946179 eV

  energy without entropy =      -33.56888359  energy(sigma->0) =      -33.56917269


--------------------------------------------------------------------------------------------------------




--------------------------------------- Iteration      1(   6)  ---------------------------------------


    POTLOK:  cpu time      0.0052: real time      0.0054
    SETDIJ:  cpu time      0.1382: real time      0.1391
     EDDAV:  cpu time      0.3129: real time      0.3157
       DOS:  cpu time      0.0009: real time      0.0009
    CHARGE:  cpu time      0.0055: real time      0.0056
    MIXING:  cpu time      0.0006: real time      0.0006
    --------------------------------------------
      LOOP:  cpu time      0.4635: real time      0.4674

 eigenvalue-minimisations  :  3312
 total energy-change (2. order) : 0.2964103E+00  (-0.5689007E-01)
 number of electron      39.9999981 magnetization 
 augmentation part       -7.3563706 magnetization 

 Broyden mixing:
  rms(total) = 0.44181E+00    rms(broyden)= 0.44181E+00
  rms(prec ) = 0.45782E+00
  weight for this iteration     100.00

 eigenvalues of (default mixing * dielectric matrix)
  average eigenvalue GAMMA=   2.3699
  2.3699

 Free energy of the ion-electron system (eV)
  ---------------------------------------------------
  alpha Z        PSCENC =       100.24668285
  Ewald energy   TEWEN  =     -1502.28240756
  -Hartree energ DENC   =      -104.24257753
  -exchange      EXHF   =         0.00000000
  -V(xc)+E(xc)   XCENC  =       -31.11633868
  PAW double counting   =      1494.50630896    -1381.82266886
  entropy T*S    EENTRO =        -0.00158299
  eigenvalues    EBANDS =       -57.04507644
  atomic energy  EATOM  =      1448.48460880
  Solvation  Ediel_sol  =         0.00000000
  ---------------------------------------------------
  free energy    TOTEN  =       -33.27305146 eV

  energy without entropy =      -33.27146847  energy(sigma->0) =      -33.27225997


--------------------------------------------------------------------------------------------------------




--------------------------------------- Iteration      1(   7)  ---------------------------------------


    POTLOK:  cpu time      0.0066: real time      0.0068
    SETDIJ:  cpu time      0.1395: real time      0.1401
     EDDAV:  cpu time      0.2892: real time      0.2918
       DOS:  cpu time      0.0011: real time      0.0011
    CHARGE:  cpu time      0.0043: real time      0.0043
    MIXING:  cpu time      0.0005: real time      0.0005
    --------------------------------------------
      LOOP:  cpu time      0.4412: real time      0.4446

 eigenvalue-minimisations  :  3200
 total energy-change (2. order) : 0.9792185E-02  (-0.2159186E-01)
 number of electron      39.9999981 magnetization 
 augmentation part       -7.3421583 magnetization 

 Broyden mixing:
  rms(total) = 0.10437E+00    rms(broyden)= 0.10437E+00
  rms(prec ) = 0.11232E+00
  weight for this iteration     100.00

 eigenvalues of (default mixing * dielectric matrix)
  average eigenvalue GAMMA=   1.8353
  1.2511  2.4195

 Free energy of the ion-electron system (eV)
  ---------------------------------------------------
  alpha Z        PSCENC =       100.24668285
  Ewald energy   TEWEN  =     -1502.28240756
  -Hartree energ DENC   =      -106.73218860
  -exchange      EXHF   =         0.00000000
  -V(xc)+E(xc)   XCENC  =       -30.61930565
  PAW double counting   =      1923.79619034    -1811.45936478
  entropy T*S    EENTRO =        -0.00166547
  eigenvalues    EBANDS =       -54.69580919
  atomic energy  EATOM  =      1448.48460880
  Solvation  Ediel_sol  =         0.00000000
  ---------------------------------------------------
  free energy    TOTEN  =       -33.26325928 eV

  energy without entropy =      -33.26159380  energy(sigma->0) =      -33.26242654


--------------------------------------------------------------------------------------------------------




--------------------------------------- Iteration      1(   8)  ---------------------------------------


    POTLOK:  cpu time      0.0050: real time      0.0052
    SETDIJ:  cpu time      0.1384: real time      0.1389
     EDDAV:  cpu time      0.2846: real time      0.2875
       DOS:  cpu time      0.0011: real time      0.0011
    CHARGE:  cpu time      0.0041: real time      0.0041
    MIXING:  cpu time      0.0005: real time      0.0005
    --------------------------------------------
      LOOP:  cpu time      0.4336: real time      0.4374

 eigenvalue-minimisations  :  3104
 total energy-change (2. order) : 0.3713503E-02  (-0.2669853E-02)
 number of electron      39.9999981 magnetization 
 augmentation part       -7.3512553 magnetization 

 Broyden mixing:
  rms(total) = 0.16593E-01    rms(broyden)= 0.16593E-01
  rms(prec ) = 0.19176E-01
  weight for this iteration     100.00

 eigenvalues of (default mixing * dielectric matrix)
  average eigenvalue GAMMA=   1.7708
  2.5455  1.3835  1.3835

 Free energy of the ion-electron system (eV)
  ---------------------------------------------------
  alpha Z        PSCENC =       100.24668285
  Ewald energy   TEWEN  =     -1502.28240756
  -Hartree energ DENC   =      -106.38306694
  -exchange      EXHF   =         0.00000000
  -V(xc)+E(xc)   XCENC  =       -30.54949356
  PAW double counting   =      2037.19764518    -1924.91285733
  entropy T*S    EENTRO =        -0.00164277
  eigenvalues    EBANDS =       -55.05901443
  atomic energy  EATOM  =      1448.48460880
  Solvation  Ediel_sol  =         0.00000000
  ---------------------------------------------------
  free energy    TOTEN  =       -33.25954577 eV

  energy without entropy =      -33.25790301  energy(sigma->0) =      -33.25872439


--------------------------------------------------------------------------------------------------------




--------------------------------------- Iteration      1(   9)  ---------------------------------------


    POTLOK:  cpu time      0.0049: real time      0.0051
    SETDIJ:  cpu time      0.1383: real time      0.1389
     EDDAV:  cpu time      0.2936: real time      0.2963
       DOS:  cpu time      0.0011: real time      0.0011
    CHARGE:  cpu time      0.0042: real time      0.0042
    MIXING:  cpu time      0.0005: real time      0.0005
    --------------------------------------------
      LOOP:  cpu time      0.4426: real time      0.4462

 eigenvalue-minimisations  :  3152
 total energy-change (2. order) :-0.2352036E-03  (-0.2842366E-03)
 number of electron      39.9999981 magnetization 
 augmentation part       -7.3503383 magnetization 

 Broyden mixing:
  rms(total) = 0.55233E-02    rms(broyden)= 0.55232E-02
  rms(prec ) = 0.59761E-02
  weight for this iteration     100.00

 eigenvalues of (default mixing * dielectric matrix)
  average eigenvalue GAMMA=   1.6560
  2.3717  1.1861  1.1861  1.8800

 Free energy of the ion-electron system (eV)
  ---------------------------------------------------
  alpha Z        PSCENC =       100.24668285
  Ewald energy   TEWEN  =     -1502.28240756
  -Hartree energ DENC   =      -106.62147433
  -exchange      EXHF   =         0.00000000
  -V(xc)+E(xc)   XCENC  =       -30.51834257
  PAW double counting   =      2050.67781387    -1938.40351736
  entropy T*S    EENTRO =        -0.00164365
  eigenvalues    EBANDS =       -54.84150101
  atomic energy  EATOM  =      1448.48460880
  Solvation  Ediel_sol  =         0.00000000
  ---------------------------------------------------
  free energy    TOTEN  =       -33.25978098 eV

  energy without entropy =      -33.25813733  energy(sigma->0) =      -33.25895915


--------------------------------------------------------------------------------------------------------




--------------------------------------- Iteration      1(  10)  ---------------------------------------


    POTLOK:  cpu time      0.0049: real time      0.0051
    SETDIJ:  cpu time      0.1382: real time      0.1388
     EDDAV:  cpu time      0.2808: real time      0.2837
       DOS:  cpu time      0.0007: real time      0.0007
    CHARGE:  cpu time      0.0037: real time      0.0037
    MIXING:  cpu time      0.0004: real time      0.0004
    --------------------------------------------
      LOOP:  cpu time      0.4288: real time      0.4325

 eigenvalue-minimisations  :  3216
 total energy-change (2. order) :-0.2867152E-04  (-0.1134351E-04)
 number of electron      39.9999981 magnetization 
 augmentation part       -7.3503400 magnetization 

 Broyden mixing:
  rms(total) = 0.22264E-02    rms(broyden)= 0.22264E-02
  rms(prec ) = 0.26159E-02
  weight for this iteration     100.00

 eigenvalues of (default mixing * dielectric matrix)
  average eigenvalue GAMMA=   1.7628
  2.7169  2.4400  1.1079  1.2746  1.2746

 Free energy of the ion-electron system (eV)
  ---------------------------------------------------
  alpha Z        PSCENC =       100.24668285
  Ewald energy   TEWEN  =     -1502.28240756
  -Hartree energ DENC   =      -106.63395326
  -exchange      EXHF   =         0.00000000
  -V(xc)+E(xc)   XCENC  =       -30.51734082
  PAW double counting   =      2045.17776671    -1932.89933951
  entropy T*S    EENTRO =        -0.00164239
  eigenvalues    EBANDS =       -54.83418444
  atomic energy  EATOM  =      1448.48460880
  Solvation  Ediel_sol  =         0.00000000
  ---------------------------------------------------
  free energy    TOTEN  =       -33.25980965 eV

  energy without entropy =      -33.25816726  energy(sigma->0) =      -33.25898845


--------------------------------------------------------------------------------------------------------




--------------------------------------- Iteration      1(  11)  ---------------------------------------


    POTLOK:  cpu time      0.0038: real time      0.0040
    SETDIJ:  cpu time      0.1373: real time      0.1376
     EDDAV:  cpu time      0.2004: real time      0.2018
       DOS:  cpu time      0.0006: real time      0.0006
    CHARGE:  cpu time      0.0035: real time      0.0036
    MIXING:  cpu time      0.0003: real time      0.0003
    --------------------------------------------
      LOOP:  cpu time      0.3459: real time      0.3478

 eigenvalue-minimisations  :  3088
 total energy-change (2. order) :-0.1966806E-04  (-0.2852134E-05)
 number of electron      39.9999981 magnetization 
 augmentation part       -7.3504888 magnetization 

 Broyden mixing:
  rms(total) = 0.79540E-03    rms(broyden)= 0.79540E-03
  rms(prec ) = 0.92725E-03
  weight for this iteration     100.00

 eigenvalues of (default mixing * dielectric matrix)
  average eigenvalue GAMMA=   1.6901
  2.6443  2.4644  1.7459  1.2034  1.2034  0.8792

 Free energy of the ion-electron system (eV)
  ---------------------------------------------------
  alpha Z        PSCENC =       100.24668285
  Ewald energy   TEWEN  =     -1502.28240756
  -Hartree energ DENC   =      -106.65233348
  -exchange      EXHF   =         0.00000000
  -V(xc)+E(xc)   XCENC  =       -30.51219902
  PAW double counting   =      2045.58558446    -1933.30676877
  entropy T*S    EENTRO =        -0.00164147
  eigenvalues    EBANDS =       -54.82135512
  atomic energy  EATOM  =      1448.48460880
  Solvation  Ediel_sol  =         0.00000000
  ---------------------------------------------------
  free energy    TOTEN  =       -33.25982932 eV

  energy without entropy =      -33.25818785  energy(sigma->0) =      -33.25900858


--------------------------------------------------------------------------------------------------------




--------------------------------------- Iteration      1(  12)  ---------------------------------------


    POTLOK:  cpu time      0.0034: real time      0.0035
    SETDIJ:  cpu time      0.1366: real time      0.1369
     EDDAV:  cpu time      0.1994: real time      0.2003
       DOS:  cpu time      0.0006: real time      0.0006
    --------------------------------------------
      LOOP:  cpu time      0.3400: real time      0.3413

 eigenvalue-minimisations  :  2768
 total energy-change (2. order) : 0.2193700E-06  (-0.3000619E-06)
 number of electron      39.9999981 magnetization 
 augmentation part       -7.3504888 magnetization 

 Free energy of the ion-electron system (eV)
  ---------------------------------------------------
  alpha Z        PSCENC =       100.24668285
  Ewald energy   TEWEN  =     -1502.28240756
  -Hartree energ DENC   =      -106.66334725
  -exchange      EXHF   =         0.00000000
  -V(xc)+E(xc)   XCENC  =       -30.51133934
  PAW double counting   =      2045.30835749    -1933.02957233
  entropy T*S    EENTRO =        -0.00164196
  eigenvalues    EBANDS =       -54.81116980
  atomic energy  EATOM  =      1448.48460880
  Solvation  Ediel_sol  =         0.00000000
  ---------------------------------------------------
  free energy    TOTEN  =       -33.25982910 eV

  energy without entropy =      -33.25818714  energy(sigma->0) =      -33.25900812


--------------------------------------------------------------------------------------------------------




 average (electrostatic) potential at core
  the test charge radii are     1.1631  1.0808
  (the norm of the test charge is              1.0000)
       1 -32.2686       2 -32.2686       3 -32.2686       4 -32.2686       5 -53.8710
       6 -53.8710       7 -53.8710       8 -53.8710
 
 
 
 E-fermi :   4.5854     XC(G=0):  -9.9461     alpha+bet : -9.9868

 Fermi energy:         4.5853850894

 k-point     1 :       0.0000    0.0000    0.0000
  band No.  band energies     occupation 
      1     -10.4152      2.00000
      2     -10.0226      2.00000
      3      -9.0131      2.00000
      4      -8.3450      2.00000
      5      -3.2154      2.00000
      6      -2.4804      2.00000
      7      -1.7177      2.00000
      8      -0.6656      2.00000
      9      -0.5727      2.00000
     10       0.4537      2.00000
     11       0.4987      2.00000
     12       0.8958      2.00000
     13       1.1379      2.00000
     14       1.5821      2.00000
     15       2.2069      2.00000
     16       2.3870      2.00000
     17       2.5090      2.00000
     18       3.0683      2.00000
     19       3.6831      2.00000
     20       4.5331      1.86050
     21       4.5476      1.71475
     22       7.4988      0.00000
     23       7.7932      0.00000
     24       8.0610      0.00000
     25       8.2062      0.00000
     26       8.2295      0.00000
     27       8.8229      0.00000
     28       9.6560      0.00000
     29       9.9056      0.00000
     30      10.1069      0.00000
     31      10.2017      0.00000
     32      10.8911      0.00000

 k-point     2 :       0.1667    0.0000    0.0000
  band No.  band energies     occupation 
      1     -10.1861      2.00000
      2      -9.8091      2.00000
      3      -8.8469      2.00000
      4      -8.2503      2.00000
      5      -3.6124      2.00000
      6      -3.0552      2.00000
      7      -1.6956      2.00000
      8      -1.5870      2.00000
      9      -0.9763      2.00000
     10       0.5556      2.00000
     11       0.7647      2.00000
     12       1.1252      2.00000
     13       1.3192      2.00000
     14       1.3535      2.00000
     15       2.2870      2.00000
     16       2.4006      2.00000
     17       2.8703      2.00000
     18       3.3630      2.00000
     19       3.8185      2.00000
     20       4.1761      2.00000
     21       4.6988      0.00134
     22       7.0386      0.00000
     23       7.7468      0.00000
     24       7.8248      0.00000
     25       8.1263      0.00000
     26       8.5614      0.00000
     27       8.6877      0.00000
     28       8.8968      0.00000
     29       8.9288      0.00000
     30       9.6574      0.00000
     31       9.7608      0.00000
     32      10.3086      0.00000

 k-point     3 :       0.3333    0.0000    0.0000
  band No.  band energies     occupation 
      1      -9.5459      2.00000
      2      -9.2340      2.00000
      3      -8.5146      2.00000
      4      -8.1995      2.00000
      5      -4.4288      2.00000
      6      -3.9506      2.00000
      7      -3.3043      2.00000
      8      -2.7277      2.00000
      9      -0.4924      2.00000
     10       1.1028      2.00000
     11       1.5028      2.00000
     12       1.5909      2.00000
     13       1.5927      2.00000
     14       1.7332      2.00000
     15       2.6727      2.00000
     16       2.6767      2.00000
     17       3.1375      2.00000
     18       3.3524      2.00000
     19       3.7778      2.00000
     20       4.2110      2.00000
     21       5.1726      0.00000
     22       5.2178      0.00000
     23       6.1643      0.00000
     24       6.4554      0.00000
     25       6.6339      0.00000
     26       6.8560      0.00000
     27       7.1540      0.00000
     28       7.8937      0.00000
     29       8.2920      0.00000
     30       8.3747      0.00000
     31       9.0530      0.00000
     32       9.9276      0.00000

 k-point     4 :       0.5000    0.0000    0.0000
  band No.  band energies     occupation 
      1      -8.7065      2.00000
      2      -8.7065      2.00000
      3      -8.5995      2.00000
      4      -8.5995      2.00000
      5      -4.4885      2.00000
      6      -4.4885      2.00000
      7      -3.8356      2.00000
      8      -3.8356      2.00000
      9       0.6069      2.00000
     10       0.6069      2.00000
     11       2.1006      2.00000
     12       2.1006      2.00000
     13       2.1531      2.00000
     14       2.1531      2.00000
     15       2.6891      2.00000
     16       2.6891      2.00000
     17       3.3414      2.00000
     18       3.3414      2.00000
     19       3.5716      2.00000
     20       3.5716      2.00000
     21       5.4411      0.00000
     22       5.4411      0.00000
     23       5.7780      0.00000
     24       5.7780      0.00000
     25       5.9500      0.00000
     26       5.9500      0.00000
     27       6.5735      0.00000
     28       6.5735      0.00000
     29       7.1072      0.00000
     30       7.1072      0.00000
     31       9.5724      0.00000
     32       9.5724      0.00000

 k-point     5 :       0.0000    0.1667    0.0000
  band No.  band energies     occupation 
      1     -10.2431      2.00000
      2      -9.8589      2.00000
      3      -8.9365      2.00000
      4      -8.3277      2.00000
      5      -3.9624      2.00000
      6      -3.0273      2.00000
      7      -2.2611      2.00000
      8      -1.5304      2.00000
      9      -1.0452      2.00000
     10       0.8874      2.00000
     11       1.3457      2.00000
     12       1.4545      2.00000
     13       1.5946      2.00000
     14       1.7782      2.00000
     15       2.5352      2.00000
     16       2.8505      2.00000
     17       3.1676      2.00000
     18       3.4707      2.00000
     19       3.4865      2.00000
     20       4.3502      2.00000
     21       4.4449      1.99993
     22       7.1860      0.00000
     23       7.8562      0.00000
     24       7.9242      0.00000
     25       7.9642      0.00000
     26       8.0938      0.00000
     27       8.6399      0.00000
     28       8.7919      0.00000
     29       9.0321      0.00000
     30       9.6248      0.00000
     31       9.9637      0.00000
     32      10.2067      0.00000

 k-point     6 :       0.1667    0.1667    0.0000
  band No.  band energies     occupation 
      1     -10.0195      2.00000
      2      -9.6520      2.00000
      3      -8.7770      2.00000
      4      -8.2345      2.00000
      5      -4.0388      2.00000
      6      -3.2255      2.00000
      7      -2.3328      2.00000
      8      -1.8513      2.00000
      9      -0.9545      2.00000
     10      -0.0233      2.00000
     11       0.1385      2.00000
     12       1.3013      2.00000
     13       1.5431      2.00000
     14       2.2160      2.00000
     15       2.3035      2.00000
     16       2.5839      2.00000
     17       3.6037      2.00000
     18       3.7102      2.00000
     19       4.0720      2.00000
     20       4.2403      2.00000
     21       4.7342      0.00003
     22       6.3431      0.00000
     23       6.7826      0.00000
     24       6.9216      0.00000
     25       7.8777      0.00000
     26       8.4102      0.00000
     27       8.7117      0.00000
     28       8.8045      0.00000
     29       9.5163      0.00000
     30       9.5970      0.00000
     31       9.8831      0.00000
     32      10.4367      0.00000

 k-point     7 :       0.1667   -0.1667    0.0000
  band No.  band energies     occupation 
      1     -10.0195      2.00000
      2      -9.6520      2.00000
      3      -8.7770      2.00000
      4      -8.2345      2.00000
      5      -4.0388      2.00000
      6      -3.2255      2.00000
      7      -2.3328      2.00000
      8      -1.8513      2.00000
      9      -0.9545      2.00000
     10      -0.0233      2.00000
     11       0.1385      2.00000
     12       1.3013      2.00000
     13       1.5431      2.00000
     14       2.2160      2.00000
     15       2.3035      2.00000
     16       2.5839      2.00000
     17       3.6037      2.00000
     18       3.7102      2.00000
     19       4.0720      2.00000
     20       4.2403      2.00000
     21       4.7342      0.00003
     22       6.3431      0.00000
     23       6.7826      0.00000
     24       6.9216      0.00000
     25       7.8777      0.00000
     26       8.4102      0.00000
     27       8.7117      0.00000
     28       8.8045      0.00000
     29       9.5163      0.00000
     30       9.5970      0.00000
     31       9.8831      0.00000
     32      10.4368      0.00000

 k-point     8 :       0.3333    0.1667    0.0000
  band No.  band energies     occupation 
      1      -9.4010      2.00000
      2      -9.1018      2.00000
      3      -8.4587      2.00000
      4      -8.1694      2.00000
      5      -4.3707      2.00000
      6      -3.7888      2.00000
      7      -3.2328      2.00000
      8      -2.8144      2.00000
      9      -0.3323      2.00000
     10      -0.3139      2.00000
     11       0.0117      2.00000
     12       0.9273      2.00000
     13       1.5325      2.00000
     14       2.2391      2.00000
     15       2.2830      2.00000
     16       2.8760      2.00000
     17       2.8992      2.00000
     18       3.0965      2.00000
     19       3.5007      2.00000
     20       3.7975      2.00000
     21       5.0732      0.00000
     22       5.9413      0.00000
     23       6.4510      0.00000
     24       6.6070      0.00000
     25       6.7014      0.00000
     26       7.7786      0.00000
     27       8.4713      0.00000
     28       8.6660      0.00000
     29       9.0081      0.00000
     30       9.1498      0.00000
     31       9.5956      0.00000
     32      10.4357      0.00000

 k-point     9 :       0.3333   -0.1667    0.0000
  band No.  band energies     occupation 
      1      -9.4010      2.00000
      2      -9.1018      2.00000
      3      -8.4587      2.00000
      4      -8.1694      2.00000
      5      -4.3707      2.00000
      6      -3.7888      2.00000
      7      -3.2328      2.00000
      8      -2.8144      2.00000
      9      -0.3323      2.00000
     10      -0.3139      2.00000
     11       0.0117      2.00000
     12       0.9273      2.00000
     13       1.5325      2.00000
     14       2.2391      2.00000
     15       2.2830      2.00000
     16       2.8760      2.00000
     17       2.8992      2.00000
     18       3.0965      2.00000
     19       3.5007      2.00000
     20       3.7975      2.00000
     21       5.0732      0.00000
     22       5.9413      0.00000
     23       6.4510      0.00000
     24       6.6070      0.00000
     25       6.7014      0.00000
     26       7.7786      0.00000
     27       8.4713      0.00000
     28       8.6660      0.00000
     29       9.0081      0.00000
     30       9.1498      0.00000
     31       9.5956      0.00000
     32      10.4357      0.00000

 k-point    10 :       0.5000    0.1667    0.0000
  band No.  band energies     occupation 
      1      -8.6136      2.00000
      2      -8.6136      2.00000
      3      -8.5178      2.00000
      4      -8.5178      2.00000
      5      -4.2976      2.00000
      6      -4.2976      2.00000
      7      -3.7005      2.00000
      8      -3.7005      2.00000
      9       0.3728      2.00000
     10       0.3728      2.00000
     11       0.6754      2.00000
     12       0.6754      2.00000
     13       1.3928      2.00000
     14       1.3928      2.00000
     15       2.1336      2.00000
     16       2.1336      2.00000
     17       2.7363      2.00000
     18       2.7363      2.00000
     19       3.4876      2.00000
     20       3.4876      2.00000
     21       5.3895      0.00000
     22       5.3895      0.00000
     23       6.8006      0.00000
     24       6.8006      0.00000
     25       7.4928      0.00000
     26       7.4928      0.00000
     27       7.7647      0.00000
     28       7.7647      0.00000
     29       8.7263      0.00000
     30       8.7263      0.00000
     31       9.3494      0.00000
     32       9.3494      0.00000

 k-point    11 :       0.0000    0.3333    0.0000
  band No.  band energies     occupation 
      1      -9.7699      2.00000
      2      -9.4087      2.00000
      3      -8.8687      2.00000
      4      -8.4163      2.00000
      5      -4.8661      2.00000
      6      -3.8010      2.00000
      7      -3.7334      2.00000
      8      -2.6990      2.00000
      9      -0.6410      2.00000
     10       1.3320      2.00000
     11       1.9211      2.00000
     12       2.1986      2.00000
     13       2.3131      2.00000
     14       2.5936      2.00000
     15       2.8136      2.00000
     16       3.1314      2.00000
     17       3.2761      2.00000
     18       3.9360      2.00000
     19       4.3757      2.00000
     20       4.8165      0.00000
     21       5.1988      0.00000
     22       5.8275      0.00000
     23       6.4950      0.00000
     24       6.5683      0.00000
     25       7.4625      0.00000
     26       7.5275      0.00000
     27       7.6396      0.00000
     28       8.0959      0.00000
     29       8.2612      0.00000
     30       8.6510      0.00000
     31       9.5378      0.00000
     32      10.5902      0.00000

 k-point    12 :       0.1667    0.3333    0.0000
  band No.  band energies     occupation 
      1      -9.5654      2.00000
      2      -9.2239      2.00000
      3      -8.7193      2.00000
      4      -8.3128      2.00000
      5      -4.6825      2.00000
      6      -3.6425      2.00000
      7      -3.5838      2.00000
      8      -2.6723      2.00000
      9      -0.4187      2.00000
     10       0.0760      2.00000
     11       0.2594      2.00000
     12       1.3382      2.00000
     13       1.6047      2.00000
     14       2.0259      2.00000
     15       2.3206      2.00000
     16       3.2398      2.00000
     17       3.3170      2.00000
     18       3.7111      2.00000
     19       3.7913      2.00000
     20       4.1153      2.00000
     21       5.2603      0.00000
     22       6.2367      0.00000
     23       6.9099      0.00000
     24       7.1398      0.00000
     25       7.1845      0.00000
     26       7.6969      0.00000
     27       8.6984      0.00000
     28       9.3858      0.00000
     29       9.5554      0.00000
     30       9.5668      0.00000
     31      10.2249      0.00000
     32      10.3059      0.00000

 k-point    13 :       0.1667   -0.3333    0.0000
  band No.  band energies     occupation 
      1      -9.5654      2.00000
      2      -9.2239      2.00000
      3      -8.7193      2.00000
      4      -8.3128      2.00000
      5      -4.6825      2.00000
      6      -3.6425      2.00000
      7      -3.5838      2.00000
      8      -2.6723      2.00000
      9      -0.4187      2.00000
     10       0.0760      2.00000
     11       0.2594      2.00000
     12       1.3382      2.00000
     13       1.6047      2.00000
     14       2.0259      2.00000
     15       2.3206      2.00000
     16       3.2398      2.00000
     17       3.3170      2.00000
     18       3.7111      2.00000
     19       3.7913      2.00000
     20       4.1153      2.00000
     21       5.2603      0.00000
     22       6.2367      0.00000
     23       6.9099      0.00000
     24       7.1398      0.00000
     25       7.1845      0.00000
     26       7.6969      0.00000
     27       8.6984      0.00000
     28       9.3858      0.00000
     29       9.5554      0.00000
     30       9.5668      0.00000
     31      10.2249      0.00000
     32      10.3059      0.00000

 k-point    14 :       0.3333    0.3333    0.0000
  band No.  band energies     occupation 
      1      -9.0207      2.00000
      2      -8.7581      2.00000
      3      -8.4049      2.00000
      4      -8.1696      2.00000
      5      -4.2611      2.00000
      6      -3.4140      2.00000
      7      -3.4127      2.00000
      8      -2.9720      2.00000
      9      -1.1652      2.00000
     10      -0.8584      2.00000
     11      -0.0546      2.00000
     12       0.1864      2.00000
     13       0.4297      2.00000
     14       1.0877      2.00000
     15       1.7552      2.00000
     16       1.7752      2.00000
     17       2.4784      2.00000
     18       2.6513      2.00000
     19       2.8908      2.00000
     20       3.3855      2.00000
     21       5.1882      0.00000
     22       7.3840      0.00000
     23       7.7944      0.00000
     24       8.1399      0.00000
     25       8.1548      0.00000
     26       8.8037      0.00000
     27       8.8295      0.00000
     28       9.3604      0.00000
     29       9.7431      0.00000
     30      10.2227      0.00000
     31      10.6622      0.00000
     32      10.6972      0.00000

 k-point    15 :       0.3333   -0.3333    0.0000
  band No.  band energies     occupation 
      1      -9.0207      2.00000
      2      -8.7581      2.00000
      3      -8.4049      2.00000
      4      -8.1696      2.00000
      5      -4.2611      2.00000
      6      -3.4140      2.00000
      7      -3.4127      2.00000
      8      -2.9720      2.00000
      9      -1.1652      2.00000
     10      -0.8584      2.00000
     11      -0.0546      2.00000
     12       0.1864      2.00000
     13       0.4297      2.00000
     14       1.0877      2.00000
     15       1.7552      2.00000
     16       1.7752      2.00000
     17       2.4784      2.00000
     18       2.6513      2.00000
     19       2.8908      2.00000
     20       3.3855      2.00000
     21       5.1882      0.00000
     22       7.3840      0.00000
     23       7.7944      0.00000
     24       8.1399      0.00000
     25       8.1548      0.00000
     26       8.8037      0.00000
     27       8.8295      0.00000
     28       9.3604      0.00000
     29       9.7431      0.00000
     30      10.2227      0.00000
     31      10.6622      0.00000
     32      10.6972      0.00000

 k-point    16 :       0.5000    0.3333    0.0000
  band No.  band energies     occupation 
      1      -8.4065      2.00000
      2      -8.4065      2.00000
      3      -8.3446      2.00000
      4      -8.3446      2.00000
      5      -3.7956      2.00000
      6      -3.7956      2.00000
      7      -3.4046      2.00000
      8      -3.4046      2.00000
      9      -0.8805      2.00000
     10      -0.8805      2.00000
     11      -0.3346      2.00000
     12      -0.3346      2.00000
     13       0.4203      2.00000
     14       0.4203      2.00000
     15       1.2679      2.00000
     16       1.2679      2.00000
     17       1.7397      2.00000
     18       1.7397      2.00000
     19       3.0171      2.00000
     20       3.0171      2.00000
     21       6.4229      0.00000
     22       6.4229      0.00000
     23       8.1778      0.00000
     24       8.1778      0.00000
     25       8.9712      0.00000
     26       8.9712      0.00000
     27       9.2879      0.00000
     28       9.2879      0.00000
     29       9.6442      0.00000
     30       9.6442      0.00000
     31      11.0248      0.00000
     32      11.0250      0.00000

 k-point    17 :       0.0000    0.5000    0.0000
  band No.  band energies     occupation 
      1      -9.1795      2.00000
      2      -9.1795      2.00000
      3      -8.8278      2.00000
      4      -8.8278      2.00000
      5      -4.8293      2.00000
      6      -4.8293      2.00000
      7      -3.6245      2.00000
      8      -3.6245      2.00000
      9       0.3290      2.00000
     10       0.3290      2.00000
     11       2.6226      2.00000
     12       2.6226      2.00000
     13       2.8989      2.00000
     14       2.8989      2.00000
     15       2.9589      2.00000
     16       2.9589      2.00000
     17       3.8878      2.00000
     18       3.8878      2.00000
     19       4.5516      1.66139
     20       4.5516      1.66139
     21       6.1899      0.00000
     22       6.1899      0.00000
     23       6.3863      0.00000
     24       6.3863      0.00000
     25       6.4205      0.00000
     26       6.4205      0.00000
     27       7.0312      0.00000
     28       7.0312      0.00000
     29       7.5749      0.00000
     30       7.5749      0.00000
     31      10.3580      0.00000
     32      10.3580      0.00000

 k-point    18 :       0.1667    0.5000    0.0000
  band No.  band energies     occupation 
      1      -9.0094      2.00000
      2      -9.0094      2.00000
      3      -8.6838      2.00000
      4      -8.6838      2.00000
      5      -4.5959      2.00000
      6      -4.5959      2.00000
      7      -3.4397      2.00000
      8      -3.4397      2.00000
      9       0.3527      2.00000
     10       0.3527      2.00000
     11       0.8953      2.00000
     12       0.8953      2.00000
     13       1.3689      2.00000
     14       1.3689      2.00000
     15       2.6877      2.00000
     16       2.6877      2.00000
     17       3.3214      2.00000
     18       3.3214      2.00000
     19       3.9088      2.00000
     20       3.9088      2.00000
     21       5.5833      0.00000
     22       5.5833      0.00000
     23       7.3658      0.00000
     24       7.3658      0.00000
     25       8.1380      0.00000
     26       8.1380      0.00000
     27       8.7387      0.00000
     28       8.7387      0.00000
     29       9.3936      0.00000
     30       9.3936      0.00000
     31      10.0886      0.00000
     32      10.0886      0.00000

 k-point    19 :       0.3333    0.5000    0.0000
  band No.  band energies     occupation 
      1      -8.5961      2.00000
      2      -8.5961      2.00000
      3      -8.3735      2.00000
      4      -8.3735      2.00000
      5      -3.9823      2.00000
      6      -3.9823      2.00000
      7      -3.1103      2.00000
      8      -3.1103      2.00000
      9      -0.9064      2.00000
     10      -0.9064      2.00000
     11      -0.5210      2.00000
     12      -0.5210      2.00000
     13       0.6663      2.00000
     14       0.6663      2.00000
     15       1.4331      2.00000
     16       1.4331      2.00000
     17       1.8783      2.00000
     18       1.8783      2.00000
     19       3.0627      2.00000
     20       3.0627      2.00000
     21       6.2319      0.00000
     22       6.2319      0.00000
     23       8.6906      0.00000
     24       8.6906      0.00000
     25       9.1099      0.00000
     26       9.1099      0.00000
     27       9.8240      0.00000
     28       9.8240      0.00000
     29      10.2598      0.00000
     30      10.2598      0.00000
     31      11.1414      0.00000
     32      11.1414      0.00000

 k-point    20 :       0.5000    0.5000    0.0000
  band No.  band energies     occupation 
      1      -8.2839      2.00000
      2      -8.2839      2.00000
      3      -8.2581      2.00000
      4      -8.2581      2.00000
      5      -3.3984      2.00000
      6      -3.3984      2.00000
      7      -3.2717      2.00000
      8      -3.2717      2.00000
      9      -1.3956      2.00000
     10      -1.3956      2.00000
     11      -0.8773      2.00000
     12      -0.8773      2.00000
     13      -0.0254      2.00000
     14      -0.0254      2.00000
     15       0.5175      2.00000
     16       0.5175      2.00000
     17       1.9629      2.00000
     18       1.9629      2.00000
[...]
     32       9.3909      0.00000

 k-point    32 :       0.1667    0.3333    0.5000
  band No.  band energies     occupation 
      1      -9.4322      2.00000
      2      -9.4322      2.00000
      3      -8.4792      2.00000
      4      -8.4792      2.00000
      5      -4.3338      2.00000
      6      -4.3338      2.00000
      7      -3.0221      2.00000
      8      -3.0221      2.00000
      9       0.1102      2.00000
     10       0.1102      2.00000
     11       0.7929      2.00000
     12       0.7929      2.00000
     13       1.3740      2.00000
     14       1.3740      2.00000
     15       2.7792      2.00000
     16       2.7792      2.00000
     17       3.3768      2.00000
     18       3.3768      2.00000
     19       4.0763      2.00000
     20       4.0763      2.00000
     21       6.4907      0.00000
     22       6.4907      0.00000
     23       6.8601      0.00000
     24       6.8601      0.00000
     25       7.5375      0.00000
     26       7.5375      0.00000
     27       8.5440      0.00000
     28       8.5440      0.00000
     29       9.1107      0.00000
     30       9.1107      0.00000
     31      10.2929      0.00000
     32      10.2929      0.00000

 k-point    33 :       0.1667   -0.3333    0.5000
  band No.  band energies     occupation 
      1      -9.4322      2.00000
      2      -9.4322      2.00000
      3      -8.4792      2.00000
      4      -8.4792      2.00000
      5      -4.3338      2.00000
      6      -4.3338      2.00000
      7      -3.0221      2.00000
      8      -3.0221      2.00000
      9       0.1102      2.00000
     10       0.1102      2.00000
     11       0.7929      2.00000
     12       0.7929      2.00000
     13       1.3740      2.00000
     14       1.3740      2.00000
     15       2.7792      2.00000
     16       2.7792      2.00000
     17       3.3768      2.00000
     18       3.3768      2.00000
     19       4.0763      2.00000
     20       4.0763      2.00000
     21       6.4907      0.00000
     22       6.4907      0.00000
     23       6.8601      0.00000
     24       6.8601      0.00000
     25       7.5375      0.00000
     26       7.5375      0.00000
     27       8.5440      0.00000
     28       8.5440      0.00000
     29       9.1107      0.00000
     30       9.1107      0.00000
     31      10.2929      0.00000
     32      10.2929      0.00000

 k-point    34 :       0.3333    0.3333    0.5000
  band No.  band energies     occupation 
      1      -8.9156      2.00000
      2      -8.9156      2.00000
      3      -8.2610      2.00000
      4      -8.2610      2.00000
      5      -3.9596      2.00000
      6      -3.9596      2.00000
      7      -3.1089      2.00000
      8      -3.1089      2.00000
      9      -0.9754      2.00000
     10      -0.9754      2.00000
     11       0.0948      2.00000
     12       0.0948      2.00000
     13       0.8909      2.00000
     14       0.8909      2.00000
     15       1.5732      2.00000
     16       1.5732      2.00000
     17       2.4153      2.00000
     18       2.4153      2.00000
     19       3.1740      2.00000
     20       3.1740      2.00000
     21       6.7190      0.00000
     22       6.7190      0.00000
     23       7.5353      0.00000
     24       7.5353      0.00000
     25       7.9241      0.00000
     26       7.9241      0.00000
     27       9.4661      0.00000
     28       9.4661      0.00000
     29      10.0617      0.00000
     30      10.0617      0.00000
     31      11.2862      0.00000
     32      11.2862      0.00000

 k-point    35 :       0.3333   -0.3333    0.5000
  band No.  band energies     occupation 
      1      -8.9156      2.00000
      2      -8.9156      2.00000
      3      -8.2610      2.00000
      4      -8.2610      2.00000
      5      -3.9596      2.00000
      6      -3.9596      2.00000
      7      -3.1089      2.00000
      8      -3.1089      2.00000
      9      -0.9754      2.00000
     10      -0.9754      2.00000
     11       0.0948      2.00000
     12       0.0948      2.00000
     13       0.8909      2.00000
     14       0.8909      2.00000
     15       1.5732      2.00000
     16       1.5732      2.00000
     17       2.4153      2.00000
     18       2.4153      2.00000
     19       3.1740      2.00000
     20       3.1740      2.00000
     21       6.7190      0.00000
     22       6.7190      0.00000
     23       7.5353      0.00000
     24       7.5353      0.00000
     25       7.9241      0.00000
     26       7.9241      0.00000
     27       9.4661      0.00000
     28       9.4661      0.00000
     29      10.0617      0.00000
     30      10.0617      0.00000
     31      11.2862      0.00000
     32      11.2862      0.00000

 k-point    36 :       0.5000    0.3333    0.5000
  band No.  band energies     occupation 
      1      -8.3761      2.00000
      2      -8.3761      2.00000
      3      -8.3761      2.00000
      4      -8.3761      2.00000
      5      -3.6118      2.00000
      6      -3.6118      2.00000
      7      -3.6118      2.00000
      8      -3.6118      2.00000
      9      -0.6135      2.00000
     10      -0.6135      2.00000
     11      -0.6135      2.00000
     12      -0.6135      2.00000
     13       0.7114      2.00000
     14       0.7114      2.00000
     15       0.7114      2.00000
     16       0.7114      2.00000
     17       2.5235      2.00000
     18       2.5235      2.00000
     19       2.5235      2.00000
     20       2.5235      2.00000
     21       7.0387      0.00000
     22       7.0387      0.00000
     23       7.0387      0.00000
     24       7.0387      0.00000
     25       9.0469      0.00000
     26       9.0469      0.00000
     27       9.0469      0.00000
     28       9.0469      0.00000
     29      10.8008      0.00000
     30      10.8008      0.00000
     31      10.8008      0.00000
     32      10.8008      0.00000

 k-point    37 :       0.0000    0.5000    0.5000
  band No.  band energies     occupation 
      1      -9.1724      2.00000
      2      -9.1724      2.00000
      3      -8.8383      2.00000
      4      -8.8383      2.00000
      5      -4.7304      2.00000
      6      -4.7304      2.00000
      7      -3.7981      2.00000
      8      -3.7981      2.00000
      9       1.1964      2.00000
     10       1.1964      2.00000
     11       1.5134      2.00000
     12       1.5134      2.00000
     13       2.6327      2.00000
     14       2.6327      2.00000
     15       2.9445      2.00000
     16       2.9445      2.00000
     17       4.3465      2.00000
     18       4.3465      2.00000
     19       4.5478      1.71218
     20       4.5478      1.71218
     21       6.0595      0.00000
     22       6.0595      0.00000
     23       6.4401      0.00000
     24       6.4401      0.00000
     25       6.8171      0.00000
     26       6.8171      0.00000
     27       7.4993      0.00000
     28       7.4993      0.00000
     29       7.7098      0.00000
     30       7.7098      0.00000
     31       9.0247      0.00000
     32       9.0247      0.00000

 k-point    38 :       0.1667    0.5000    0.5000
  band No.  band energies     occupation 
      1      -9.0029      2.00000
      2      -9.0029      2.00000
      3      -8.6931      2.00000
      4      -8.6931      2.00000
      5      -4.5071      2.00000
      6      -4.5071      2.00000
      7      -3.5941      2.00000
      8      -3.5941      2.00000
      9       0.7056      2.00000
     10       0.7056      2.00000
     11       0.9154      2.00000
     12       0.9154      2.00000
     13       1.6562      2.00000
     14       1.6562      2.00000
     15       1.8970      2.00000
     16       1.8970      2.00000
     17       3.2393      2.00000
     18       3.2393      2.00000
     19       3.6944      2.00000
     20       3.6944      2.00000
     21       6.8083      0.00000
     22       6.8083      0.00000
     23       7.4853      0.00000
     24       7.4853      0.00000
     25       7.5655      0.00000
     26       7.5655      0.00000
     27       8.5900      0.00000
     28       8.5900      0.00000
     29       9.3391      0.00000
     30       9.3391      0.00000
     31       9.5114      0.00000
     32       9.5114      0.00000

 k-point    39 :       0.3333    0.5000    0.5000
  band No.  band energies     occupation 
      1      -8.5914      2.00000
      2      -8.5914      2.00000
      3      -8.3795      2.00000
      4      -8.3795      2.00000
      5      -3.9325      2.00000
      6      -3.9325      2.00000
      7      -3.1869      2.00000
      8      -3.1869      2.00000
      9      -0.7434      2.00000
     10      -0.7434      2.00000
     11      -0.7130      2.00000
     12      -0.7130      2.00000
     13       0.9036      2.00000
     14       0.9036      2.00000
     15       1.1537      2.00000
     16       1.1537      2.00000
     17       2.3224      2.00000
     18       2.3224      2.00000
     19       2.6190      2.00000
     20       2.6190      2.00000
     21       6.7021      0.00000
     22       6.7021      0.00000
     23       7.6604      0.00000
     24       7.6604      0.00000
     25       9.4730      0.00000
     26       9.4730      0.00000
     27       9.7381      0.00000
     28       9.7381      0.00000
     29      11.0810      0.00000
     30      11.0810      0.00000
     31      11.0975      0.00000
     32      11.0975      0.00000

 k-point    40 :       0.5000    0.5000    0.5000
  band No.  band energies     occupation 
      1      -8.2710      2.00000
      2      -8.2710      2.00000
      3      -8.2710      2.00000
      4      -8.2710      2.00000
      5      -3.3462      2.00000
      6      -3.3462      2.00000
      7      -3.3462      2.00000
      8      -3.3462      2.00000
      9      -1.0522      2.00000
     10      -1.0522      2.00000
     11      -1.0522      2.00000
     12      -1.0522      2.00000
     13       0.0117      2.00000
     14       0.0117      2.00000
     15       0.0117      2.00000
     16       0.0117      2.00000
     17       2.6264      2.00000
     18       2.6264      2.00000
     19       2.6265      2.00000
     20       2.6265      2.00000
     21       6.7842      0.00000
     22       6.7842      0.00000
     23       6.7842      0.00000
     24       6.7842      0.00000
     25      10.1708      0.00000
     26      10.1708      0.00000
     27      10.1708      0.00000
     28      10.1708      0.00000
     29      11.3397      0.00000
     30      11.3397      0.00000
     31      11.3397      0.00000
     32      11.3397      0.00000


--------------------------------------------------------------------------------------------------------


 soft charge-density along one line, spin component            1
         0         1         2         3         4         5         6         7         8         9
 total charge-density along one line
 
 pseudopotential strength for first ion, spin component:            1
 14.164  17.660   0.033   0.041   0.000   0.060   0.074   0.000
 17.660  22.034   0.042   0.052   0.000   0.076   0.094   0.000
  0.033   0.042   3.167  -0.003  -0.000   5.387  -0.004  -0.000
  0.041   0.052  -0.003   3.166  -0.000  -0.004   5.385  -0.000
  0.000   0.000  -0.000  -0.000   3.168  -0.000  -0.000   5.389
  0.060   0.076   5.387  -0.004  -0.000   9.218  -0.008  -0.000
  0.074   0.094  -0.004   5.385  -0.000  -0.008   9.215  -0.000
  0.000   0.000  -0.000  -0.000   5.389  -0.000  -0.000   9.222
 -0.000  -0.000   0.000   0.000   0.006   0.000   0.000   0.011
 -0.006  -0.007   0.011   0.010   0.000   0.019   0.018   0.000
 -0.002  -0.002  -0.003   0.010  -0.000  -0.006   0.019  -0.000
 -0.000  -0.000   0.000   0.000   0.011   0.000   0.000   0.020
  0.001   0.002  -0.010   0.000   0.000  -0.018   0.000   0.000
 total augmentation occupancy for first ion, spin component:            1
  2.906  -0.843   0.323   0.333   0.000  -0.067  -0.063  -0.000   0.000   0.002  -0.023  -0.000   0.004
 -0.843   0.775  -0.382  -0.434  -0.000   0.063   0.070   0.000  -0.000  -0.002   0.024   0.000   0.000
  0.323  -0.382   1.371   0.099   0.000  -0.241  -0.010  -0.000  -0.000   0.042  -0.080   0.000  -0.006
  0.333  -0.434   0.099   1.294  -0.000  -0.010  -0.218   0.000  -0.000  -0.001   0.088   0.000  -0.004
  0.000  -0.000   0.000  -0.000   1.367  -0.000   0.000  -0.245   0.128   0.000   0.000   0.038   0.000
 -0.067   0.063  -0.241  -0.010  -0.000   0.048   0.001   0.000   0.000  -0.007   0.013  -0.000   0.001
 -0.063   0.070  -0.010  -0.218   0.000   0.001   0.042  -0.000   0.000  -0.000  -0.016   0.000   0.001
 -0.000   0.000  -0.000   0.000  -0.245   0.000  -0.000   0.049  -0.023  -0.000  -0.000  -0.007  -0.000
  0.000  -0.000  -0.000  -0.000   0.128   0.000   0.000  -0.023   0.043   0.000   0.000   0.004  -0.000
  0.002  -0.002   0.042  -0.001   0.000  -0.007  -0.000  -0.000   0.000   0.012  -0.006  -0.000   0.001
 -0.023   0.024  -0.080   0.088   0.000   0.013  -0.016  -0.000   0.000  -0.006   0.037  -0.000  -0.000
 -0.000   0.000   0.000   0.000   0.038  -0.000   0.000  -0.007   0.004  -0.000  -0.000   0.013  -0.000
  0.004   0.000  -0.006  -0.004   0.000   0.001   0.001  -0.000  -0.000   0.001  -0.000  -0.000   0.011


------------------------ aborting loop because EDIFF is reached ----------------------------------------


    CHARGE:  cpu time      0.0037: real time      0.0037
    FORLOC:  cpu time      0.0002: real time      0.0002
    FORNL :  cpu time      0.0189: real time      0.0190
    STRESS:  cpu time      0.1674: real time      0.1683
    FORCOR:  cpu time      0.0032: real time      0.0032
    FORHAR:  cpu time      0.0008: real time      0.0008
    MIXING:  cpu time      0.0007: real time      0.0007
    OFIELD:  cpu time      0.0000: real time      0.0000

  FORCE on cell =-STRESS in cart. coord.  units (eV):
  Direction    XX          YY          ZZ          XY          YZ          ZX
  --------------------------------------------------------------------------------------
  Alpha Z   100.24668   100.24668   100.24668
  Ewald    -467.64036  -477.92720  -556.71672    -0.00000     0.00000     0.00000
  Hartree    49.83851    42.04907    14.77990     0.00000     0.00000    -0.00000
  E(xc)    -142.69337  -142.53857  -142.91717     0.00000     0.00000     0.00000
  Local    -162.99774  -145.81180   -48.35156    -0.00000     0.00000     0.00000
  n-local   243.74201   243.16279   243.11704    -0.00000     0.00000    -0.00000
  augment   -11.52644   -11.48632   -12.08247     0.00000     0.00000    -0.00000
  Kinetic   400.80946   399.66817   403.70828    -0.00000    -0.00000     0.00000
  Fock        0.00000     0.00000     0.00000     0.00000     0.00000     0.00000
  -------------------------------------------------------------------------------------
  Total       9.77875     7.36281     1.78397    -0.00000    -0.00000     0.00000
  in kB      92.69079    69.79062    16.90992    -0.00001    -0.00000     0.00001
  external pressure =       59.80 kB  Pullay stress =        0.00 kB


 VOLUME and BASIS-vectors are now :
 -----------------------------------------------------------------------------
  energy-cutoff  :      360.00
  volume of cell :      169.03
      direct lattice vectors                 reciprocal lattice vectors
     3.700000000  0.000000000  0.000000000     0.270270270  0.000000000  0.000000000
     0.000000000  4.100000000  0.000000000     0.000000000  0.243902439  0.000000000
     0.000000000  0.000000000 11.142221000     0.000000000  0.000000000  0.089748713

  length of vectors
     3.700000000  4.100000000 11.142221000     0.270270270  0.243902439  0.089748713


 FORCES acting on ions
    electron-ion (+dipol)            ewald-force                    non-local-force                 convergence-correction
 -----------------------------------------------------------------------------------------------
   0.108E-05 0.112E+02 0.248E+02   0.167E-13 -.130E+02 -.274E+02   -.626E-06 0.179E+01 0.258E+01   -.442E-06 0.187E-03 -.550E-03
   0.268E-05 0.112E+02 -.248E+02   0.510E-14 -.130E+02 0.274E+02   -.135E-05 0.179E+01 -.258E+01   -.154E-05 0.185E-03 0.554E-03
   -.262E-05 -.112E+02 -.248E+02   -.110E-13 0.130E+02 0.274E+02   0.124E-05 -.179E+01 -.258E+01   0.144E-05 -.187E-03 0.556E-03
   -.644E-06 -.112E+02 0.248E+02   -.738E-14 0.130E+02 -.274E+02   0.368E-06 -.179E+01 0.258E+01   0.512E-06 -.185E-03 -.560E-03
   -.611E-05 -.106E+02 -.248E+02   -.640E-14 0.117E+02 0.259E+02   0.237E-05 -.110E+01 -.112E+01   0.423E-05 0.582E-04 0.154E-02
   -.985E-07 -.106E+02 0.248E+02   -.170E-13 0.117E+02 -.259E+02   -.493E-06 -.110E+01 0.112E+01   0.715E-06 0.575E-04 -.153E-02
   0.282E-05 0.106E+02 0.248E+02   0.133E-13 -.117E+02 -.259E+02   -.131E-05 0.110E+01 0.112E+01   -.167E-05 -.592E-04 -.155E-02
   0.421E-05 0.106E+02 -.248E+02   0.125E-13 -.117E+02 0.259E+02   -.117E-05 0.110E+01 -.112E+01   -.372E-05 -.572E-04 0.154E-02
 -----------------------------------------------------------------------------------------------
   0.132E-05 0.286E-05 -.120E-05   0.586E-14 0.711E-14 0.711E-14   -.975E-06 -.273E-05 0.198E-06   -.484E-06 -.817E-06 0.160E-05
 
 
 POSITION                                       TOTAL-FORCE (eV/Angst)
 -----------------------------------------------------------------------------------
      0.92500      0.37931      1.33552         0.000000     -0.028937      0.001190
      2.77500      2.42931      4.23559        -0.000000     -0.028937     -0.001189
      2.77500      3.72069      9.80670         0.000000      0.028937     -0.001190
      0.92500      1.67069      6.90663         0.000000      0.028937      0.001189
      0.92500      0.07667      3.94106         0.000001      0.032877      0.002045
      2.77500      2.12667      1.63005         0.000000      0.032877     -0.002045
      2.77500      4.02333      7.20116        -0.000000     -0.032877     -0.002045
      0.92500      1.97333      9.51217        -0.000001     -0.032877      0.002045
 -----------------------------------------------------------------------------------
    total drift:                               -0.000000     -0.000001      0.000001


--------------------------------------------------------------------------------------------------------



  FREE ENERGIE OF THE ION-ELECTRON SYSTEM (eV)
  ---------------------------------------------------
  free  energy   TOTEN  =       -33.25982910 eV

  energy  without entropy=      -33.25818714  energy(sigma->0) =      -33.25900812
 


--------------------------------------------------------------------------------------------------------


    POTLOK:  cpu time      0.1135: real time      0.1138


--------------------------------------------------------------------------------------------------------


     LOOP+:  cpu time      4.9311: real time      4.9764
    4ORBIT:  cpu time      0.0000: real time      0.0000

 total amount of memory used by VASP MPI-rank0    37372. kBytes
=======================================================================

   base      :      30000. kBytes
   nonl-proj :       5677. kBytes
   fftplans  :        316. kBytes
   grid      :        462. kBytes
   one-center:         16. kBytes
   wavefun   :        901. kBytes
 
  
  
 General timing and accounting informations for this job:
 ========================================================
  
                  Total CPU time used (sec):        5.762
                            User time (sec):        5.433
                          System time (sec):        0.329
                         Elapsed time (sec):        7.485
  
                   Maximum memory used (kb):      188232.
                   Average memory used (kb):          N/A
  
                          Minor page faults:        20939
                          Major page faults:           39
                 Voluntary context switches:         3167
