 vasp.6.4.2 20Jul23 (build Oct 12 2023 10:31:02) complex                         
 executed on              LinuxNV date 2025.05.18  11:17:21
 running  160 mpi-ranks, with    1 threads/rank, on   10 nodes
 distrk:  each k-point on   80 cores,    2 groups
 distr:  one band on NCORE=   5 cores,   16 groups


--------------------------------------------------------------------------------------------------------


 INCAR:
   ENCUT = 520.000000
   SIGMA = 0.050000
   EDIFF = 1.00e-06
   ALGO = Normal
   GGA = PE
   PREC = Normal
   SYSTEM = ./
   ICHARG = 2
   ISMEAR = 0
   ISPIN = 1
   ISTART = 0
   ISYM = 0
   KPAR = 2
   LMAXMIX = 4
   NELM = 100
   NPAR = 16
   LASPH = .TRUE.
   LCHARG = .FALSE.
   LWAVE = .FALSE.

 POTCAR:    PAW_PBE Ge 05Jan2001                  
 POTCAR:    PAW_PBE Se 06Sep2000                  
 POTCAR:    PAW_PBE Ge 05Jan2001                  
   VRHFIN =Ge: s2p2                                                                                 
   LEXCH  = PE                                                                                      
   EATOM  =   104.9960 eV,    7.7170 Ry                                                             
                                                                                                    
   TITEL  = PAW_PBE Ge 05Jan2001                                                                    
   LULTRA =        F    use ultrasoft PP ?                                                          
   IUNSCR =        1    unscreen: 0-lin 1-nonlin 2-no                                               
   RPACOR =    2.170    partial core radius                                                         
   POMASS =   72.610; ZVAL   =    4.000    mass and valenz                                          
   RCORE  =    2.300    outmost cutoff radius                                                       
   RWIGS  =    2.300; RWIGS  =    1.217    wigner-seitz radius (au A)                               
   ENMAX  =  173.807; ENMIN  =  130.355 eV                                                          
   ICORE  =        3    local potential                                                             
   LCOR   =        T    correct aug charges                                                         
   LPAW   =        T    paw PP                                                                      
   EAUG   =  385.843                                                                                
   DEXC   =    0.000                                                                                
   RMAX   =    2.342    core radius for proj-oper                                                   
   RAUG   =    1.300    factor for augmentation sphere                                              
   RDEP   =    2.318    radius for radial grids                                                     
   RDEPT  =    2.103    core radius for aug-charge                                                  
                                                                                                    
   Atomic configuration                                                                             
   10 entries                                                                                       
     n  l   j            E        occ.                                                              
     1  0  0.50    -10959.8463   2.0000                                                             
     2  0  0.50     -1371.6056   2.0000                                                             
     2  1  1.50     -1198.4791   6.0000                                                             
     3  0  0.50      -168.4733   2.0000                                                             
     3  1  1.50      -115.6019   6.0000                                                             
     3  2  2.50       -29.3106  10.0000                                                             
     4  0  0.50       -11.7309   2.0000                                                             
     4  1  0.50        -3.8952   2.0000                                                             
     4  2  1.50        -4.0817   0.0000                                                             
     4  3  2.50        -4.0817   0.0000                                                             
   Description                                                                                      
     l       E           TYP  RCUT    TYP  RCUT                                                     
     0    -11.7309493     23  2.300                                                                 
     0     -7.4578696     23  2.300                                                                 
     1     -3.8952261     23  2.300                                                                 
     1      6.1178114     23  2.300                                                                 
     2     -4.0817478     23  2.300                                                                 
     3     -1.3605826      7  2.300                                                                 
  local pseudopotential read in
  partial core-charges read in
  partial kinetic energy density read in
  atomic valenz-charges read in
  non local Contribution for L=            0  read in
    real space projection operators read in
  non local Contribution for L=            0  read in
    real space projection operators read in
  non local Contribution for L=            1  read in
    real space projection operators read in
  non local Contribution for L=            1  read in
    real space projection operators read in
  non local Contribution for L=            2  read in
    real space projection operators read in
    PAW grid and wavefunctions read in
 
   number of l-projection  operators is LMAX  =            5
   number of lm-projection operators is LMMAX =           13
 
 POTCAR:    PAW_PBE Se 06Sep2000                  
   VRHFIN =Se: s2p4                                                                                 
   LEXCH  = PE                                                                                      
   EATOM  =   257.1286 eV,   18.8984 Ry                                                             
                                                                                                    
   TITEL  = PAW_PBE Se 06Sep2000                                                                    
   LULTRA =        F    use ultrasoft PP ?                                                          
   IUNSCR =        1    unscreen: 0-lin 1-nonlin 2-no                                               
   RPACOR =    1.900    partial core radius                                                         
   POMASS =   78.960; ZVAL   =    6.000    mass and valenz                                          
   RCORE  =    2.100    outmost cutoff radius                                                       
   RWIGS  =    2.200; RWIGS  =    1.164    wigner-seitz radius (au A)                               
   ENMAX  =  211.555; ENMIN  =  158.666 eV                                                          
   ICORE  =        3    local potential                                                             
   LCOR   =        T    correct aug charges                                                         
   LPAW   =        T    paw PP                                                                      
   EAUG   =  446.842                                                                                
   DEXC   =    0.000                                                                                
   RMAX   =    2.147    core radius for proj-oper                                                   
   RAUG   =    1.300    factor for augmentation sphere                                              
   RDEP   =    2.177    radius for radial grids                                                     
   RDEPT  =    1.928    core radius for aug-charge                                                  
                                                                                                    
   Atomic configuration                                                                             
   10 entries                                                                                       
     n  l   j            E        occ.                                                              
     1  0  0.50    -12503.4787   2.0000                                                             
     2  0  0.50     -1606.9547   2.0000                                                             
     2  1  1.50     -1413.3140   6.0000                                                             
     3  0  0.50      -213.4885   2.0000                                                             
     3  1  1.50      -152.9538   6.0000                                                             
     3  2  2.50       -53.1221  10.0000                                                             
     4  0  0.50       -17.2865   2.0000                                                             
     4  1  0.50        -6.5110   4.0000                                                             
     4  2  2.50        -6.8029   0.0000                                                             
     4  3  2.50        -6.8029   0.0000                                                             
   Description                                                                                      
     l       E           TYP  RCUT    TYP  RCUT                                                     
     0    -17.2865377     23  2.100                                                                 
     0    -15.3094411     23  2.100                                                                 
     1     -6.5110275     23  2.100                                                                 
     1     -0.0695192     23  2.100                                                                 
     2     -6.8029130     23  2.100                                                                 
     3     -1.3605826      7  2.100                                                                 
  local pseudopotential read in
  partial core-charges read in
  partial kinetic energy density read in
  atomic valenz-charges read in
  non local Contribution for L=            0  read in
    real space projection operators read in
  non local Contribution for L=            0  read in
    real space projection operators read in
  non local Contribution for L=            1  read in
    real space projection operators read in
  non local Contribution for L=            1  read in
    real space projection operators read in
  non local Contribution for L=            2  read in
    real space projection operators read in
    PAW grid and wavefunctions read in
 
   number of l-projection  operators is LMAX  =            5
   number of lm-projection operators is LMMAX =           13
 
  PAW_PBE Ge 05Jan2001                  :
 energy of atom  1       EATOM= -104.9960
 kinetic energy error for atom=    0.0002 (will be added to EATOM!!)
  PAW_PBE Se 06Sep2000                  :
 energy of atom  2       EATOM= -257.1286
 kinetic energy error for atom=    0.0007 (will be added to EATOM!!)
 
 
 POSCAR: Ge Se
  positions in cartesian coordinates
  No initial velocities read in
 exchange correlation table for  LEXCH =        8
   RHO(1)=    0.500       N(1)  =     2000
   RHO(2)=  100.500       N(2)  =     4000
 


--------------------------------------------------------------------------------------------------------


 ion  position               nearest neighbor table
   1  0.750  0.926  0.123-   6 2.60   6 2.60   5 2.60   3 2.73
   2  0.250  0.426  0.377-   5 2.60   5 2.60   6 2.60   4 2.73
   3  0.750  0.886  0.877-   8 2.60   8 2.60   7 2.60   1 2.73
   4  0.250  0.386  0.623-   7 2.60   7 2.60   8 2.60   2 2.73
   5  0.750  0.805  0.352-   2 2.60   2 2.60   1 2.60
   6  0.250  0.305  0.148-   1 2.60   1 2.60   2 2.60
   7  0.750  0.007  0.648-   4 2.60   4 2.60   3 2.60
   8  0.250  0.507  0.852-   3 2.60   3 2.60   4 2.60
 

IMPORTANT INFORMATION: All symmetrisations will be switched off!
NOSYMM: (Re-)initialisation of all symmetry stuff for point group C_1.


----------------------------------------------------------------------------------------

                                     Primitive cell                                     

  volume of cell :     193.5913

  direct lattice vectors                    reciprocal lattice vectors
     3.858100176  0.000000000  0.000000000     0.259194929  0.000000000  0.000000000
     0.000000000  4.526575088  0.000000000     0.000000000  0.220917577  0.000000000
     0.000000000  0.000000000 11.085176468     0.000000000  0.000000000  0.090210562

  length of vectors
     3.858100176  4.526575088 11.085176468     0.259194929  0.220917577  0.090210562

  position of ions in fractional coordinates (direct lattice)
     0.750000000  0.925714637  0.122982664
     0.250000000  0.425714637  0.377017336
     0.750000000  0.885879566  0.877017336
     0.250000000  0.385879566  0.622982664
     0.750000000  0.804904092  0.352381810
     0.250000000  0.304904092  0.147618190
     0.750000000  0.006690111  0.647618190
     0.250000000  0.506690111  0.852381810

  ion indices of the primitive-cell ions
   primitive index   ion index
                 1           1
                 2           2
                 3           3
                 4           4
                 5           5
                 6           6
                 7           7
                 8           8

----------------------------------------------------------------------------------------

 
 
 KPOINTS: KPOINTS created by Atomic Simulation Env

Automatic generation of k-mesh.
 Grid dimensions read from file:
 generate k-points for:    6    6    2

 Generating k-lattice:

  Cartesian coordinates                     Fractional coordinates (reciprocal lattice)
     0.043199155  0.000000000  0.000000000     0.166666667  0.000000000  0.000000000
     0.000000000  0.036819596  0.000000000     0.000000000  0.166666667  0.000000000
     0.000000000  0.000000000  0.045105281     0.000000000  0.000000000  0.500000000

  Length of vectors
     0.043199155  0.036819596  0.045105281

  Shift w.r.t. Gamma in fractional coordinates (k-lattice)
     0.000000000  0.000000000  0.000000000

 
 Subroutine IBZKPT returns following result:
 ===========================================
 
 Found     40 irreducible k-points:
 
 Following reciprocal coordinates:
            Coordinates               Weight
  0.000000  0.000000  0.000000      1.000000
  0.166667  0.000000  0.000000      2.000000
  0.333333  0.000000  0.000000      2.000000
  0.500000  0.000000  0.000000      1.000000
  0.000000  0.166667  0.000000      2.000000
  0.166667  0.166667  0.000000      2.000000
  0.166667 -0.166667  0.000000      2.000000
  0.333333  0.166667  0.000000      2.000000
  0.333333 -0.166667  0.000000      2.000000
  0.500000  0.166667  0.000000      2.000000
  0.000000  0.333333  0.000000      2.000000
  0.166667  0.333333  0.000000      2.000000
  0.166667 -0.333333  0.000000      2.000000
  0.333333  0.333333  0.000000      2.000000
  0.333333 -0.333333  0.000000      2.000000
  0.500000  0.333333  0.000000      2.000000
  0.000000  0.500000  0.000000      1.000000
  0.166667  0.500000  0.000000      2.000000
  0.333333  0.500000  0.000000      2.000000
  0.500000  0.500000  0.000000      1.000000
  0.000000  0.000000  0.500000      1.000000
  0.166667  0.000000  0.500000      2.000000
  0.333333  0.000000  0.500000      2.000000
  0.500000  0.000000  0.500000      1.000000
  0.000000  0.166667  0.500000      2.000000
  0.166667  0.166667  0.500000      2.000000
  0.166667 -0.166667  0.500000      2.000000
  0.333333  0.166667  0.500000      2.000000
  0.333333 -0.166667  0.500000      2.000000
  0.500000  0.166667  0.500000      2.000000
  0.000000  0.333333  0.500000      2.000000
  0.166667  0.333333  0.500000      2.000000
  0.166667 -0.333333  0.500000      2.000000
  0.333333  0.333333  0.500000      2.000000
  0.333333 -0.333333  0.500000      2.000000
  0.500000  0.333333  0.500000      2.000000
  0.000000  0.500000  0.500000      1.000000
  0.166667  0.500000  0.500000      2.000000
  0.333333  0.500000  0.500000      2.000000
  0.500000  0.500000  0.500000      1.000000
 
 Following cartesian coordinates:
            Coordinates               Weight
  0.000000  0.000000  0.000000      1.000000
  0.043199  0.000000  0.000000      2.000000
  0.086398  0.000000  0.000000      2.000000
  0.129597  0.000000  0.000000      1.000000
  0.000000  0.036820  0.000000      2.000000
  0.043199  0.036820  0.000000      2.000000
  0.043199 -0.036820  0.000000      2.000000
  0.086398  0.036820  0.000000      2.000000
  0.086398 -0.036820  0.000000      2.000000
  0.129597  0.036820  0.000000      2.000000
  0.000000  0.073639  0.000000      2.000000
  0.043199  0.073639  0.000000      2.000000
  0.043199 -0.073639  0.000000      2.000000
  0.086398  0.073639  0.000000      2.000000
  0.086398 -0.073639  0.000000      2.000000
  0.129597  0.073639  0.000000      2.000000
  0.000000  0.110459  0.000000      1.000000
  0.043199  0.110459  0.000000      2.000000
  0.086398  0.110459  0.000000      2.000000
  0.129597  0.110459  0.000000      1.000000
  0.000000  0.000000  0.045105      1.000000
  0.043199  0.000000  0.045105      2.000000
  0.086398  0.000000  0.045105      2.000000
  0.129597  0.000000  0.045105      1.000000
  0.000000  0.036820  0.045105      2.000000
  0.043199  0.036820  0.045105      2.000000
  0.043199 -0.036820  0.045105      2.000000
  0.086398  0.036820  0.045105      2.000000
  0.086398 -0.036820  0.045105      2.000000
  0.129597  0.036820  0.045105      2.000000
  0.000000  0.073639  0.045105      2.000000
  0.043199  0.073639  0.045105      2.000000
  0.043199 -0.073639  0.045105      2.000000
  0.086398  0.073639  0.045105      2.000000
  0.086398 -0.073639  0.045105      2.000000
  0.129597  0.073639  0.045105      2.000000
  0.000000  0.110459  0.045105      1.000000
  0.043199  0.110459  0.045105      2.000000
  0.086398  0.110459  0.045105      2.000000
  0.129597  0.110459  0.045105      1.000000
 


--------------------------------------------------------------------------------------------------------




 Dimension of arrays:
   k-points           NKPTS =     40   k-points in BZ     NKDIM =     40   number of bands    NBANDS=     32
   number of dos      NEDOS =    301   number of ions     NIONS =      8
   non local maximal  LDIM  =      5   non local SUM 2l+1 LMDIM =     13
   total plane-waves  NPLWV =  43008
   max r-space proj   IRMAX =      1   max aug-charges    IRDMAX=  12272
   dimension x,y,z NGX =    24 NGY =   28 NGZ =   64
   dimension x,y,z NGXF=    48 NGYF=   56 NGZF=  128
   support grid    NGXF=    48 NGYF=   56 NGZF=  128
   ions per type =               4   4
   NGX,Y,Z   is equivalent  to a cutoff of  10.34, 10.28,  9.60 a.u.
   NGXF,Y,Z  is equivalent  to a cutoff of  20.68, 20.57, 19.20 a.u.

 SYSTEM =  ./                                      
 POSCAR =  Ge Se                                   

 Startparameter for this run:
   NWRITE =      2    write-flag & timer
   PREC   = normal    normal or accurate (medium, high low for compatibility)
   ISTART =      0    job   : 0-new  1-cont  2-samecut
   ICHARG =      2    charge: 1-file 2-atom 10-const
   ISPIN  =      1    spin polarized calculation?
   LNONCOLLINEAR =      F non collinear calculations
   LSORBIT =      F    spin-orbit coupling
   INIWAV =      1    electr: 0-lowe 1-rand  2-diag
   LASPH  =      T    aspherical Exc in radial PAW
 Electronic Relaxation 1
   ENCUT  =  520.0 eV  38.22 Ry    6.18 a.u.   7.17  8.42 20.61*2*pi/ulx,y,z
   ENINI  =  520.0     initial cutoff
   ENAUG  =  446.8 eV  augmentation charge cutoff
   NELM   =    100;   NELMIN=  2; NELMDL= -5     # of ELM steps 
   EDIFF  = 0.1E-05   stopping-criterion for ELM
   LREAL  =      F    real-space projection
   NLSPLINE    = F    spline interpolate recip. space projectors
   LCOMPAT=      F    compatible to vasp.4.4
   GGA_COMPAT  = T    GGA compatible to vasp.4.4-vasp.4.6
   LMAXPAW     = -100 max onsite density
   LMAXMIX     =    4 max onsite mixed and CHGCAR
   VOSKOWN=      0    Vosko Wilk Nusair interpolation
   ROPT   =    0.00000   0.00000
 Ionic relaxation
   EDIFFG = 0.1E-04   stopping-criterion for IOM
   NSW    =      0    number of steps for IOM
   NBLOCK =      1;   KBLOCK =      1    inner block; outer block 
   IBRION =     -1    ionic relax: 0-MD 1-quasi-New 2-CG
   NFREE  =      0    steps in history (QN), initial steepest desc. (CG)
   ISIF   =      2    stress and relaxation
   IWAVPR =     10    prediction:  0-non 1-charg 2-wave 3-comb
   ISYM   =      0    0-nonsym 1-usesym 2-fastsym
   LCORR  =      T    Harris-Foulkes like correction to forces

   POTIM  = 0.5000    time-step for ionic-motion
   TEIN   =    0.0    initial temperature
   TEBEG  =    0.0;   TEEND  =   0.0 temperature during run
   SMASS  =  -3.00    Nose mass-parameter (am)
   estimated Nose-frequenzy (Omega)   =  0.10E-29 period in steps = 0.13E+47 mass=  -0.340E-27a.u.
   SCALEE = 1.0000    scale energy and forces
   NPACO  =    256;   APACO  = 10.0  distance and # of slots for P.C.
   PSTRESS=    0.0 pullay stress

  Mass of Ions in am
   POMASS =  72.61 78.96
  Ionic Valenz
   ZVAL   =   4.00  6.00
  Atomic Wigner-Seitz radii
   RWIGS  =  -1.00 -1.00
  virtual crystal weights 
   VCA    =   1.00  1.00
   NELECT =      40.0000    total number of electrons
   NUPDOWN=      -1.0000    fix difference up-down

 DOS related values:
   EMIN   =  10.00;   EMAX   =-10.00  energy-range for DOS
   EFERMI =   0.00;   METHOD = LEGACY      
   ISMEAR =     0;   SIGMA  =   0.05  broadening in eV -4-tet -1-fermi 0-gaus

 Electronic relaxation 2 (details)
   IALGO  =     38    algorithm
   LDIAG  =      T    sub-space diagonalisation (order eigenvalues)
   LSUBROT=      F    optimize rotation matrix (better conditioning)
   TURBO    =      0    0=normal 1=particle mesh
   IRESTART =      0    0=no restart 2=restart with 2 vectors
   NREBOOT  =      0    no. of reboots
   NMIN     =      0    reboot dimension
   EREF     =   0.00    reference energy to select bands
   IMIX   =      4    mixing-type and parameters
     AMIX     =   0.40;   BMIX     =  1.00
     AMIX_MAG =   1.60;   BMIX_MAG =  1.00
     AMIN     =   0.10
     WC   =   100.;   INIMIX=   1;  MIXPRE=   1;  MAXMIX= -45

 Intra band minimization:
   WEIMIN = 0.0000     energy-eigenvalue tresh-hold
   EBREAK =  0.78E-08  absolut break condition
   DEPER  =   0.30     relativ break condition  

   TIME   =   0.40     timestep for ELM

  volume/ion in A,a.u.               =      24.20       163.30
  Fermi-wavevector in a.u.,A,eV,Ry     =   0.967831  1.828935 12.744535  0.936697
  Thomas-Fermi vector in A             =   2.097750
 
 Write flags
   LWAVE        =      F    write WAVECAR
   LDOWNSAMPLE  =      F    k-point downsampling of WAVECAR
   LCHARG       =      F    write CHGCAR
   LVTOT        =      F    write LOCPOT, total local potential
   LVHAR        =      F    write LOCPOT, Hartree potential only
   LELF         =      F    write electronic localiz. function (ELF)
   LORBIT       =      0    0 simple, 1 ext, 2 COOP (PROOUT), +10 PAW based schemes


 Dipole corrections
   LMONO  =      F    monopole corrections only (constant potential shift)
   LDIPOL =      F    correct potential (dipole corrections)
   IDIPOL =      0    1-x, 2-y, 3-z, 4-all directions 
   EPSILON=  1.0000000 bulk dielectric constant

 Exchange correlation treatment:
   GGA     =    PE    GGA type
   LEXCH   =     8    internal setting for exchange type
   LIBXC   =     F    Libxc                    
   VOSKOWN =     0    Vosko Wilk Nusair interpolation
   LHFCALC =     F    Hartree Fock is set to
   LHFONE  =     F    Hartree Fock one center treatment
   AEXX    =    0.0000 exact exchange contribution

 Linear response parameters
   LEPSILON=     F    determine dielectric tensor
   LRPA    =     F    only Hartree local field effects (RPA)
   LNABLA  =     F    use nabla operator in PAW spheres
   LVEL    =     F    velocity operator in full k-point grid
   CSHIFT  =0.1000    complex shift for real part using Kramers Kronig
   OMEGAMAX=  -1.0    maximum frequency
   DEG_THRESHOLD= 0.2000000E-02 threshold for treating states as degnerate
   RTIME   =   -0.100 relaxation time in fs
  (WPLASMAI=    0.000 imaginary part of plasma frequency in eV, 0.658/RTIME)
   DFIELD  = 0.0000000 0.0000000 0.0000000 field for delta impulse in time
 
  Optional k-point grid parameters
   LKPOINTS_OPT  =     F    use optional k-point grid
   KPOINTS_OPT_MODE=     1    mode for optional k-point grid
 
 Orbital magnetization related:
   ORBITALMAG=     F  switch on orbital magnetization
   LCHIMAG   =     F  perturbation theory with respect to B field
   DQ        =  0.001000  dq finite difference perturbation B field
   LLRAUG    =     F  two centre corrections for induced B field
   LBONE     =     F  B-component reconstruction in AE one-centre
   LVGVCALC  =     T  calculate vGv susceptibility
   LVGVAPPL  =     F  apply vGv susceptibility instead of pGv for G=0

 Random number generation:
   RANDOM_GENERATOR = DEFAULT
   PCG_SEED         = not used


--------------------------------------------------------------------------------------------------------


 Static calculation
 charge density and potential will be updated during run
 non-spin polarized calculation
 Variant of blocked Davidson
 Davidson routine will perform the subspace rotation
 perform sub-space diagonalisation
    after iterative eigenvector-optimisation
 modified Broyden-mixing scheme, WC =      100.0
 initial mixing is a Kerker type mixing with AMIX =  0.4000 and BMIX =      1.0000
 Hartree-type preconditioning will be used
 using additional bands            12
 reciprocal scheme for non local part
 use partial core corrections
 calculate Harris-corrections to forces 
   (improved forces if not selfconsistent)
 use gradient corrections 
 use of overlap-Matrix (Vanderbilt PP)
 Gauss-broadening in eV      SIGMA  =   0.05


--------------------------------------------------------------------------------------------------------


  energy-cutoff  :      520.00
  volume of cell :      193.59
      direct lattice vectors                 reciprocal lattice vectors
     3.858100176  0.000000000  0.000000000     0.259194929  0.000000000  0.000000000
     0.000000000  4.526575088  0.000000000     0.000000000  0.220917577  0.000000000
     0.000000000  0.000000000 11.085176468     0.000000000  0.000000000  0.090210562

  length of vectors
     3.858100176  4.526575088 11.085176468     0.259194929  0.220917577  0.090210562


 
 k-points in units of 2pi/SCALE and weight: KPOINTS created by Atomic Simulation Env
   0.00000000  0.00000000  0.00000000       0.014
   0.04319915  0.00000000  0.00000000       0.028
   0.08639831  0.00000000  0.00000000       0.028
   0.12959746  0.00000000  0.00000000       0.014
   0.00000000  0.03681960  0.00000000       0.028
   0.04319915  0.03681960  0.00000000       0.028
   0.04319915 -0.03681960  0.00000000       0.028
   0.08639831  0.03681960  0.00000000       0.028
   0.08639831 -0.03681960  0.00000000       0.028
   0.12959746  0.03681960  0.00000000       0.028
   0.00000000  0.07363919  0.00000000       0.028
   0.04319915  0.07363919  0.00000000       0.028
   0.04319915 -0.07363919  0.00000000       0.028
   0.08639831  0.07363919  0.00000000       0.028
   0.08639831 -0.07363919  0.00000000       0.028
   0.12959746  0.07363919  0.00000000       0.028
   0.00000000  0.11045879  0.00000000       0.014
   0.04319915  0.11045879  0.00000000       0.028
   0.08639831  0.11045879  0.00000000       0.028
   0.12959746  0.11045879  0.00000000       0.014
   0.00000000  0.00000000  0.04510528       0.014
   0.04319915  0.00000000  0.04510528       0.028
   0.08639831  0.00000000  0.04510528       0.028
   0.12959746  0.00000000  0.04510528       0.014
   0.00000000  0.03681960  0.04510528       0.028
   0.04319915  0.03681960  0.04510528       0.028
   0.04319915 -0.03681960  0.04510528       0.028
   0.08639831  0.03681960  0.04510528       0.028
   0.08639831 -0.03681960  0.04510528       0.028
   0.12959746  0.03681960  0.04510528       0.028
   0.00000000  0.07363919  0.04510528       0.028
   0.04319915  0.07363919  0.04510528       0.028
   0.04319915 -0.07363919  0.04510528       0.028
   0.08639831  0.07363919  0.04510528       0.028
   0.08639831 -0.07363919  0.04510528       0.028
   0.12959746  0.07363919  0.04510528       0.028
   0.00000000  0.11045879  0.04510528       0.014
   0.04319915  0.11045879  0.04510528       0.028
   0.08639831  0.11045879  0.04510528       0.028
   0.12959746  0.11045879  0.04510528       0.014
 
 k-points in reciprocal lattice and weights: KPOINTS created by Atomic Simulation Env
   0.00000000  0.00000000  0.00000000       0.014
   0.16666667  0.00000000  0.00000000       0.028
   0.33333333  0.00000000  0.00000000       0.028
   0.50000000  0.00000000  0.00000000       0.014
   0.00000000  0.16666667  0.00000000       0.028
   0.16666667  0.16666667  0.00000000       0.028
   0.16666667 -0.16666667  0.00000000       0.028
   0.33333333  0.16666667  0.00000000       0.028
   0.33333333 -0.16666667  0.00000000       0.028
   0.50000000  0.16666667  0.00000000       0.028
   0.00000000  0.33333333  0.00000000       0.028
   0.16666667  0.33333333  0.00000000       0.028
   0.16666667 -0.33333333  0.00000000       0.028
   0.33333333  0.33333333  0.00000000       0.028
   0.33333333 -0.33333333  0.00000000       0.028
   0.50000000  0.33333333  0.00000000       0.028
   0.00000000  0.50000000  0.00000000       0.014
   0.16666667  0.50000000  0.00000000       0.028
   0.33333333  0.50000000  0.00000000       0.028
   0.50000000  0.50000000  0.00000000       0.014
   0.00000000  0.00000000  0.50000000       0.014
   0.16666667  0.00000000  0.50000000       0.028
   0.33333333  0.00000000  0.50000000       0.028
   0.50000000  0.00000000  0.50000000       0.014
   0.00000000  0.16666667  0.50000000       0.028
   0.16666667  0.16666667  0.50000000       0.028
   0.16666667 -0.16666667  0.50000000       0.028
   0.33333333  0.16666667  0.50000000       0.028
   0.33333333 -0.16666667  0.50000000       0.028
   0.50000000  0.16666667  0.50000000       0.028
   0.00000000  0.33333333  0.50000000       0.028
   0.16666667  0.33333333  0.50000000       0.028
   0.16666667 -0.33333333  0.50000000       0.028
   0.33333333  0.33333333  0.50000000       0.028
   0.33333333 -0.33333333  0.50000000       0.028
   0.50000000  0.33333333  0.50000000       0.028
   0.00000000  0.50000000  0.50000000       0.014
   0.16666667  0.50000000  0.50000000       0.028
   0.33333333  0.50000000  0.50000000       0.028
   0.50000000  0.50000000  0.50000000       0.014
 
 position of ions in fractional coordinates (direct lattice) 
   0.75000000  0.92571464  0.12298266
   0.25000000  0.42571464  0.37701734
   0.75000000  0.88587957  0.87701734
   0.25000000  0.38587957  0.62298266
   0.75000000  0.80490409  0.35238181
   0.25000000  0.30490409  0.14761819
   0.75000000  0.00669011  0.64761819
   0.25000000  0.50669011  0.85238181
 
 position of ions in cartesian coordinates  (Angst):
   2.89357513  4.19031682  1.36328454
   0.96452504  1.92702927  4.17930370
   2.89357513  4.01000037  9.72189193
   0.96452504  1.74671283  6.90587277
   2.89357513  3.64345881  3.90621455
   0.96452504  1.38017127  1.63637368
   2.89357513  0.03028329  7.17896192
   0.96452504  2.29357083  9.44880278
 


--------------------------------------------------------------------------------------------------------


 k-point   1 :   0.0000 0.0000 0.0000  plane waves:    5211
 k-point   2 :   0.1667 0.0000 0.0000  plane waves:    5225
 k-point   3 :   0.3333 0.0000 0.0000  plane waves:    5224
 k-point   4 :   0.5000 0.0000 0.0000  plane waves:    5258
 k-point   5 :   0.0000 0.1667 0.0000  plane waves:    5209
 k-point   6 :   0.1667 0.1667 0.0000  plane waves:    5201
 k-point   7 :   0.1667-0.1667 0.0000  plane waves:    5201
 k-point   8 :   0.3333 0.1667 0.0000  plane waves:    5230
 k-point   9 :   0.3333-0.1667 0.0000  plane waves:    5230
 k-point  10 :   0.5000 0.1667 0.0000  plane waves:    5236
 k-point  11 :   0.0000 0.3333 0.0000  plane waves:    5213
 k-point  12 :   0.1667 0.3333 0.0000  plane waves:    5199
 k-point  13 :   0.1667-0.3333 0.0000  plane waves:    5199
 k-point  14 :   0.3333 0.3333 0.0000  plane waves:    5211
 k-point  15 :   0.3333-0.3333 0.0000  plane waves:    5211
 k-point  16 :   0.5000 0.3333 0.0000  plane waves:    5230
 k-point  17 :   0.0000 0.5000 0.0000  plane waves:    5220
 k-point  18 :   0.1667 0.5000 0.0000  plane waves:    5208
 k-point  19 :   0.3333 0.5000 0.0000  plane waves:    5230
 k-point  20 :   0.5000 0.5000 0.0000  plane waves:    5180
 k-point  21 :   0.0000 0.0000 0.5000  plane waves:    5210
 k-point  22 :   0.1667 0.0000 0.5000  plane waves:    5178
 k-point  23 :   0.3333 0.0000 0.5000  plane waves:    5214
 k-point  24 :   0.5000 0.0000 0.5000  plane waves:    5232
 k-point  25 :   0.0000 0.1667 0.5000  plane waves:    5224
 k-point  26 :   0.1667 0.1667 0.5000  plane waves:    5210
 k-point  27 :   0.1667-0.1667 0.5000  plane waves:    5210
 k-point  28 :   0.3333 0.1667 0.5000  plane waves:    5196
 k-point  29 :   0.3333-0.1667 0.5000  plane waves:    5196
 k-point  30 :   0.5000 0.1667 0.5000  plane waves:    5224
 k-point  31 :   0.0000 0.3333 0.5000  plane waves:    5202
 k-point  32 :   0.1667 0.3333 0.5000  plane waves:    5214
 k-point  33 :   0.1667-0.3333 0.5000  plane waves:    5214
 k-point  34 :   0.3333 0.3333 0.5000  plane waves:    5216
 k-point  35 :   0.3333-0.3333 0.5000  plane waves:    5216
 k-point  36 :   0.5000 0.3333 0.5000  plane waves:    5216
 k-point  37 :   0.0000 0.5000 0.5000  plane waves:    5212
 k-point  38 :   0.1667 0.5000 0.5000  plane waves:    5192
 k-point  39 :   0.3333 0.5000 0.5000  plane waves:    5208
 k-point  40 :   0.5000 0.5000 0.5000  plane waves:    5208

 maximum and minimum number of plane-waves per node :      1076     1017

 maximum number of plane-waves:      5258
 maximum index in each direction: 
   IXMAX=    7   IYMAX=    8   IZMAX=   20
   IXMIN=   -7   IYMIN=   -8   IZMIN=  -21


 parallel 3D FFT for wavefunctions:
    minimum data exchange during FFTs selected (reduces bandwidth)
 parallel 3D FFT for charge:
    minimum data exchange during FFTs selected (reduces bandwidth)


 total amount of memory used by VASP MPI-rank0    41770. kBytes
=======================================================================

   base      :      30000. kBytes
   nonl-proj :       9056. kBytes
   fftplans  :        519. kBytes
   grid      :        766. kBytes
   one-center:         16. kBytes
   wavefun   :       1413. kBytes
 
     INWAV:  cpu time      0.0000: real time      0.0001
 Broyden mixing: mesh for mixing (old mesh)
   NGX = 15   NGY = 17   NGZ = 41
  (NGX  = 48   NGY  = 56   NGZ  =128)
  gives a total of  10455 points

 initial charge density was supplied:
 charge density of overlapping atoms calculated
 number of electron      40.0000000 magnetization 
 keeping initial charge density in first step


--------------------------------------------------------------------------------------------------------


 Maximum index for augmentation-charges           191 (set IRDMAX)


--------------------------------------------------------------------------------------------------------


 First call to EWALD:  gamma=   0.306
 Maximum number of real-space cells 4x 3x 2
 Maximum number of reciprocal cells 2x 2x 5

    FEWALD:  cpu time      0.0011: real time      0.0011


--------------------------------------- Ionic step        1  -------------------------------------------




--------------------------------------- Iteration      1(   1)  ---------------------------------------


    POTLOK:  cpu time      0.0111: real time      0.0112
    SETDIJ:  cpu time      0.2177: real time      0.2182
     EDDAV:  cpu time      0.3480: real time      0.3493
       DOS:  cpu time      0.0011: real time      0.0011
    --------------------------------------------
      LOOP:  cpu time      0.5779: real time      0.5798

 eigenvalue-minimisations  :  2560
 total energy-change (2. order) : 0.1638046E+03  (-0.1588763E+04)
 number of electron      40.0000000 magnetization 
 augmentation part       40.0000000 magnetization 

 Free energy of the ion-electron system (eV)
  ---------------------------------------------------
  alpha Z        PSCENC =        87.52689448
  Ewald energy   TEWEN  =     -1416.69788009
  -Hartree energ DENC   =      -128.57655952
  -exchange      EXHF   =         0.00000000
  -V(xc)+E(xc)   XCENC  =       -33.24297997
  PAW double counting   =      1193.78262552    -1080.73714043
  entropy T*S    EENTRO =        -0.00410799
  eigenvalues    EBANDS =        93.25910256
  atomic energy  EATOM  =      1448.49460871
  Solvation  Ediel_sol  =         0.00000000
  ---------------------------------------------------
  free energy    TOTEN  =       163.80456326 eV

  energy without entropy =      163.80867125  energy(sigma->0) =      163.80661725


--------------------------------------------------------------------------------------------------------




--------------------------------------- Iteration      1(   2)  ---------------------------------------


     EDDAV:  cpu time      0.4955: real time      0.4992
       DOS:  cpu time      0.0009: real time      0.0009
    --------------------------------------------
      LOOP:  cpu time      0.4963: real time      0.5001

 eigenvalue-minimisations  :  3600
 total energy-change (2. order) :-0.1860472E+03  (-0.1807312E+03)
 number of electron      40.0000000 magnetization 
 augmentation part       40.0000000 magnetization 

 Free energy of the ion-electron system (eV)
  ---------------------------------------------------
  alpha Z        PSCENC =        87.52689448
  Ewald energy   TEWEN  =     -1416.69788009
  -Hartree energ DENC   =      -128.57655952
  -exchange      EXHF   =         0.00000000
  -V(xc)+E(xc)   XCENC  =       -33.24297997
  PAW double counting   =      1193.78262552    -1080.73714043
  entropy T*S    EENTRO =        -0.00000616
  eigenvalues    EBANDS =       -92.79218944
  atomic energy  EATOM  =      1448.49460871
  Solvation  Ediel_sol  =         0.00000000
  ---------------------------------------------------
  free energy    TOTEN  =       -22.24262691 eV

  energy without entropy =      -22.24262075  energy(sigma->0) =      -22.24262383


--------------------------------------------------------------------------------------------------------




--------------------------------------- Iteration      1(   3)  ---------------------------------------


     EDDAV:  cpu time      0.5525: real time      0.5586
       DOS:  cpu time      0.0009: real time      0.0009
    --------------------------------------------
      LOOP:  cpu time      0.5535: real time      0.5595

 eigenvalue-minimisations  :  3424
 total energy-change (2. order) :-0.1142031E+02  (-0.1138924E+02)
 number of electron      40.0000000 magnetization 
 augmentation part       40.0000000 magnetization 

 Free energy of the ion-electron system (eV)
  ---------------------------------------------------
  alpha Z        PSCENC =        87.52689448
  Ewald energy   TEWEN  =     -1416.69788009
  -Hartree energ DENC   =      -128.57655952
  -exchange      EXHF   =         0.00000000
  -V(xc)+E(xc)   XCENC  =       -33.24297997
  PAW double counting   =      1193.78262552    -1080.73714043
  entropy T*S    EENTRO =        -0.00001293
  eigenvalues    EBANDS =      -104.21249358
  atomic energy  EATOM  =      1448.49460871
  Solvation  Ediel_sol  =         0.00000000
  ---------------------------------------------------
  free energy    TOTEN  =       -33.66293782 eV

  energy without entropy =      -33.66292489  energy(sigma->0) =      -33.66293135


--------------------------------------------------------------------------------------------------------




--------------------------------------- Iteration      1(   4)  ---------------------------------------


     EDDAV:  cpu time      0.4303: real time      0.4329
       DOS:  cpu time      0.0008: real time      0.0008
    --------------------------------------------
      LOOP:  cpu time      0.4311: real time      0.4337

 eigenvalue-minimisations  :  3232
 total energy-change (2. order) :-0.8889190E-01  (-0.8887836E-01)
 number of electron      40.0000000 magnetization 
 augmentation part       40.0000000 magnetization 

 Free energy of the ion-electron system (eV)
  ---------------------------------------------------
  alpha Z        PSCENC =        87.52689448
  Ewald energy   TEWEN  =     -1416.69788009
  -Hartree energ DENC   =      -128.57655952
  -exchange      EXHF   =         0.00000000
  -V(xc)+E(xc)   XCENC  =       -33.24297997
  PAW double counting   =      1193.78262552    -1080.73714043
  entropy T*S    EENTRO =        -0.00001199
  eigenvalues    EBANDS =      -104.30138642
  atomic energy  EATOM  =      1448.49460871
  Solvation  Ediel_sol  =         0.00000000
  ---------------------------------------------------
  free energy    TOTEN  =       -33.75182972 eV

  energy without entropy =      -33.75181773  energy(sigma->0) =      -33.75182372


--------------------------------------------------------------------------------------------------------




--------------------------------------- Iteration      1(   5)  ---------------------------------------


     EDDAV:  cpu time      0.5162: real time      0.5192
       DOS:  cpu time      0.0010: real time      0.0010
    CHARGE:  cpu time      0.0115: real time      0.0116
    MIXING:  cpu time      0.0015: real time      0.0015
    --------------------------------------------
      LOOP:  cpu time      0.5303: real time      0.5333

 eigenvalue-minimisations  :  3520
 total energy-change (2. order) :-0.5937641E-03  (-0.5937365E-03)
 number of electron      39.9999993 magnetization 
 augmentation part       -7.4051671 magnetization 

 Broyden mixing:
  rms(total) = 0.65872E+00    rms(broyden)= 0.65872E+00
  rms(prec ) = 0.73327E+00
  weight for this iteration     100.00

 Free energy of the ion-electron system (eV)
  ---------------------------------------------------
  alpha Z        PSCENC =        87.52689448
  Ewald energy   TEWEN  =     -1416.69788009
  -Hartree energ DENC   =      -128.57655952
  -exchange      EXHF   =         0.00000000
  -V(xc)+E(xc)   XCENC  =       -33.24297997
  PAW double counting   =      1193.78262552    -1080.73714043
  entropy T*S    EENTRO =        -0.00001199
  eigenvalues    EBANDS =      -104.30198018
  atomic energy  EATOM  =      1448.49460871
  Solvation  Ediel_sol  =         0.00000000
  ---------------------------------------------------
  free energy    TOTEN  =       -33.75242348 eV

  energy without entropy =      -33.75241149  energy(sigma->0) =      -33.75241749


--------------------------------------------------------------------------------------------------------




--------------------------------------- Iteration      1(   6)  ---------------------------------------


    POTLOK:  cpu time      0.0128: real time      0.0130
    SETDIJ:  cpu time      0.2159: real time      0.2168
     EDDAV:  cpu time      0.5243: real time      0.5267
       DOS:  cpu time      0.0012: real time      0.0012
    CHARGE:  cpu time      0.0097: real time      0.0097
    MIXING:  cpu time      0.0006: real time      0.0006
    --------------------------------------------
      LOOP:  cpu time      0.7644: real time      0.7680

 eigenvalue-minimisations  :  3248
 total energy-change (2. order) : 0.3150805E+00  (-0.6650909E-01)
 number of electron      39.9999993 magnetization 
 augmentation part       -7.3550069 magnetization 

 Broyden mixing:
  rms(total) = 0.41569E+00    rms(broyden)= 0.41569E+00
  rms(prec ) = 0.43680E+00
  weight for this iteration     100.00

 eigenvalues of (default mixing * dielectric matrix)
  average eigenvalue GAMMA=   2.2764
  2.2764

 Free energy of the ion-electron system (eV)
  ---------------------------------------------------
  alpha Z        PSCENC =        87.52689448
  Ewald energy   TEWEN  =     -1416.69788009
  -Hartree energ DENC   =      -134.30211864
  -exchange      EXHF   =         0.00000000
  -V(xc)+E(xc)   XCENC  =       -32.63976141
  PAW double counting   =      1468.04700345    -1355.33165292
  entropy T*S    EENTRO =        -0.00094864
  eigenvalues    EBANDS =       -98.53348787
  atomic energy  EATOM  =      1448.49460871
  Solvation  Ediel_sol  =         0.00000000
  ---------------------------------------------------
  free energy    TOTEN  =       -33.43734295 eV

  energy without entropy =      -33.43639431  energy(sigma->0) =      -33.43686863


--------------------------------------------------------------------------------------------------------




--------------------------------------- Iteration      1(   7)  ---------------------------------------


    POTLOK:  cpu time      0.0108: real time      0.0110
    SETDIJ:  cpu time      0.2184: real time      0.2189
     EDDAV:  cpu time      0.4112: real time      0.4138
       DOS:  cpu time      0.0010: real time      0.0010
    CHARGE:  cpu time      0.0087: real time      0.0089
    MIXING:  cpu time      0.0006: real time      0.0006
    --------------------------------------------
      LOOP:  cpu time      0.6508: real time      0.6542

 eigenvalue-minimisations  :  3040
 total energy-change (2. order) : 0.1512572E-01  (-0.1881647E-01)
 number of electron      39.9999993 magnetization 
 augmentation part       -7.3379219 magnetization 

 Broyden mixing:
  rms(total) = 0.11701E+00    rms(broyden)= 0.11701E+00
  rms(prec ) = 0.12487E+00
  weight for this iteration     100.00

 eigenvalues of (default mixing * dielectric matrix)
  average eigenvalue GAMMA=   1.7721
  1.1497  2.3945

 Free energy of the ion-electron system (eV)
  ---------------------------------------------------
  alpha Z        PSCENC =        87.52689448
  Ewald energy   TEWEN  =     -1416.69788009
  -Hartree energ DENC   =      -137.28963757
  -exchange      EXHF   =         0.00000000
  -V(xc)+E(xc)   XCENC  =       -32.13366680
  PAW double counting   =      1821.71082813    -1709.26281132
  entropy T*S    EENTRO =        -0.00083785
  eigenvalues    EBANDS =       -95.76971492
  atomic energy  EATOM  =      1448.49460871
  Solvation  Ediel_sol  =         0.00000000
  ---------------------------------------------------
  free energy    TOTEN  =       -33.42221723 eV

  energy without entropy =      -33.42137938  energy(sigma->0) =      -33.42179830


--------------------------------------------------------------------------------------------------------




--------------------------------------- Iteration      1(   8)  ---------------------------------------


    POTLOK:  cpu time      0.0101: real time      0.0102
    SETDIJ:  cpu time      0.2194: real time      0.2199
     EDDAV:  cpu time      0.4253: real time      0.4272
       DOS:  cpu time      0.0011: real time      0.0011
    CHARGE:  cpu time      0.0089: real time      0.0090
    MIXING:  cpu time      0.0006: real time      0.0006
    --------------------------------------------
      LOOP:  cpu time      0.6655: real time      0.6680

 eigenvalue-minimisations  :  3248
 total energy-change (2. order) :-0.1119711E-03  (-0.1523053E-02)
 number of electron      39.9999993 magnetization 
 augmentation part       -7.3429746 magnetization 

 Broyden mixing:
  rms(total) = 0.17605E-01    rms(broyden)= 0.17605E-01
  rms(prec ) = 0.21420E-01
  weight for this iteration     100.00

 eigenvalues of (default mixing * dielectric matrix)
  average eigenvalue GAMMA=   1.6975
  2.5062  1.2932  1.2932

 Free energy of the ion-electron system (eV)
  ---------------------------------------------------
  alpha Z        PSCENC =        87.52689448
  Ewald energy   TEWEN  =     -1416.69788009
  -Hartree energ DENC   =      -137.63577173
  -exchange      EXHF   =         0.00000000
  -V(xc)+E(xc)   XCENC  =       -31.98902701
  PAW double counting   =      1952.38383178    -1839.99971897
  entropy T*S    EENTRO =        -0.00091222
  eigenvalues    EBANDS =       -95.50435414
  atomic energy  EATOM  =      1448.49460871
  Solvation  Ediel_sol  =         0.00000000
  ---------------------------------------------------
  free energy    TOTEN  =       -33.42232920 eV

  energy without entropy =      -33.42141698  energy(sigma->0) =      -33.42187309


--------------------------------------------------------------------------------------------------------




--------------------------------------- Iteration      1(   9)  ---------------------------------------


    POTLOK:  cpu time      0.0103: real time      0.0105
    SETDIJ:  cpu time      0.2178: real time      0.2186
     EDDAV:  cpu time      0.4370: real time      0.4392
       DOS:  cpu time      0.0010: real time      0.0010
    CHARGE:  cpu time      0.0089: real time      0.0089
    MIXING:  cpu time      0.0006: real time      0.0006
    --------------------------------------------
      LOOP:  cpu time      0.6756: real time      0.6788

 eigenvalue-minimisations  :  3344
 total energy-change (2. order) :-0.4614707E-03  (-0.2925601E-03)
 number of electron      39.9999993 magnetization 
 augmentation part       -7.3424087 magnetization 

 Broyden mixing:
  rms(total) = 0.64958E-02    rms(broyden)= 0.64958E-02
  rms(prec ) = 0.73313E-02
  weight for this iteration     100.00

 eigenvalues of (default mixing * dielectric matrix)
  average eigenvalue GAMMA=   1.7065
  2.2627  2.2627  1.1503  1.1503

 Free energy of the ion-electron system (eV)
  ---------------------------------------------------
  alpha Z        PSCENC =        87.52689448
  Ewald energy   TEWEN  =     -1416.69788009
  -Hartree energ DENC   =      -137.91425232
  -exchange      EXHF   =         0.00000000
  -V(xc)+E(xc)   XCENC  =       -31.95090237
  PAW double counting   =      1965.96388440    -1853.58639861
  entropy T*S    EENTRO =        -0.00090226
  eigenvalues    EBANDS =       -95.25784260
  atomic energy  EATOM  =      1448.49460871
  Solvation  Ediel_sol  =         0.00000000
  ---------------------------------------------------
  free energy    TOTEN  =       -33.42279067 eV

  energy without entropy =      -33.42188841  energy(sigma->0) =      -33.42233954


--------------------------------------------------------------------------------------------------------




--------------------------------------- Iteration      1(  10)  ---------------------------------------


    POTLOK:  cpu time      0.0101: real time      0.0102
    SETDIJ:  cpu time      0.2192: real time      0.2198
     EDDAV:  cpu time      0.4647: real time      0.4672
       DOS:  cpu time      0.0010: real time      0.0010
    CHARGE:  cpu time      0.0082: real time      0.0083
    MIXING:  cpu time      0.0006: real time      0.0006
    --------------------------------------------
      LOOP:  cpu time      0.7038: real time      0.7071

 eigenvalue-minimisations  :  3408
 total energy-change (2. order) :-0.1483823E-03  (-0.2782204E-04)
 number of electron      39.9999993 magnetization 
 augmentation part       -7.3425188 magnetization 

 Broyden mixing:
  rms(total) = 0.23989E-02    rms(broyden)= 0.23989E-02
  rms(prec ) = 0.30049E-02
  weight for this iteration     100.00

 eigenvalues of (default mixing * dielectric matrix)
  average eigenvalue GAMMA=   1.7407
  2.6222  2.4230  1.1388  1.1388  1.3810

 Free energy of the ion-electron system (eV)
  ---------------------------------------------------
  alpha Z        PSCENC =        87.52689448
  Ewald energy   TEWEN  =     -1416.69788009
  -Hartree energ DENC   =      -137.94868879
  -exchange      EXHF   =         0.00000000
  -V(xc)+E(xc)   XCENC  =       -31.94638597
  PAW double counting   =      1960.08868060    -1847.70604716
  entropy T*S    EENTRO =        -0.00090677
  eigenvalues    EBANDS =       -95.23321405
  atomic energy  EATOM  =      1448.49460871
  Solvation  Ediel_sol  =         0.00000000
  ---------------------------------------------------
  free energy    TOTEN  =       -33.42293905 eV

  energy without entropy =      -33.42203228  energy(sigma->0) =      -33.42248567


--------------------------------------------------------------------------------------------------------




--------------------------------------- Iteration      1(  11)  ---------------------------------------


    POTLOK:  cpu time      0.0100: real time      0.0101
    SETDIJ:  cpu time      0.2208: real time      0.2213
     EDDAV:  cpu time      0.4319: real time      0.4345
       DOS:  cpu time      0.0010: real time      0.0010
    CHARGE:  cpu time      0.0089: real time      0.0089
    MIXING:  cpu time      0.0007: real time      0.0007
    --------------------------------------------
      LOOP:  cpu time      0.6733: real time      0.6765

 eigenvalue-minimisations  :  3120
 total energy-change (2. order) :-0.4329101E-04  (-0.4879215E-05)
 number of electron      39.9999993 magnetization 
 augmentation part       -7.3425795 magnetization 

 Broyden mixing:
  rms(total) = 0.11126E-02    rms(broyden)= 0.11126E-02
  rms(prec ) = 0.12635E-02
  weight for this iteration     100.00

 eigenvalues of (default mixing * dielectric matrix)
  average eigenvalue GAMMA=   1.7337
  2.5120  2.5120  2.0913  0.9381  1.1744  1.1744

 Free energy of the ion-electron system (eV)
  ---------------------------------------------------
  alpha Z        PSCENC =        87.52689448
  Ewald energy   TEWEN  =     -1416.69788009
  -Hartree energ DENC   =      -137.98905912
  -exchange      EXHF   =         0.00000000
  -V(xc)+E(xc)   XCENC  =       -31.93920109
  PAW double counting   =      1961.08785056    -1848.70539293
  entropy T*S    EENTRO =        -0.00090846
  eigenvalues    EBANDS =       -95.19989439
  atomic energy  EATOM  =      1448.49460871
  Solvation  Ediel_sol  =         0.00000000
  ---------------------------------------------------
  free energy    TOTEN  =       -33.42298234 eV

  energy without entropy =      -33.42207388  energy(sigma->0) =      -33.42252811


--------------------------------------------------------------------------------------------------------




--------------------------------------- Iteration      1(  12)  ---------------------------------------


    POTLOK:  cpu time      0.0101: real time      0.0102
    SETDIJ:  cpu time      0.2190: real time      0.2197
     EDDAV:  cpu time      0.4823: real time      0.4844
       DOS:  cpu time      0.0022: real time      0.0022
    CHARGE:  cpu time      0.0100: real time      0.0101
    MIXING:  cpu time      0.0008: real time      0.0008
    --------------------------------------------
      LOOP:  cpu time      0.7245: real time      0.7275

 eigenvalue-minimisations  :  3520
 total energy-change (2. order) :-0.2584169E-05  (-0.6862165E-06)
 number of electron      39.9999993 magnetization 
 augmentation part       -7.3424219 magnetization 

 Broyden mixing:
  rms(total) = 0.25801E-03    rms(broyden)= 0.25801E-03
  rms(prec ) = 0.32682E-03
  weight for this iteration     100.00

 eigenvalues of (default mixing * dielectric matrix)
  average eigenvalue GAMMA=   1.7151
  2.9622  2.4507  1.7538  1.5264  0.9708  1.1711  1.1711

 Free energy of the ion-electron system (eV)
  ---------------------------------------------------
  alpha Z        PSCENC =        87.52689448
  Ewald energy   TEWEN  =     -1416.69788009
  -Hartree energ DENC   =      -138.00832895
  -exchange      EXHF   =         0.00000000
  -V(xc)+E(xc)   XCENC  =       -31.93785941
  PAW double counting   =      1960.27581810    -1847.89315558
  entropy T*S    EENTRO =        -0.00090715
  eigenvalues    EBANDS =       -95.18217504
  atomic energy  EATOM  =      1448.49460871
  Solvation  Ediel_sol  =         0.00000000
  ---------------------------------------------------
  free energy    TOTEN  =       -33.42298493 eV

  energy without entropy =      -33.42207778  energy(sigma->0) =      -33.42253135


--------------------------------------------------------------------------------------------------------




--------------------------------------- Iteration      1(  13)  ---------------------------------------


    POTLOK:  cpu time      0.0149: real time      0.0151
    SETDIJ:  cpu time      0.2146: real time      0.2152
     EDDAV:  cpu time      0.3474: real time      0.3496
       DOS:  cpu time      0.0010: real time      0.0010
    --------------------------------------------
      LOOP:  cpu time      0.5779: real time      0.5809

 eigenvalue-minimisations  :  2176
 total energy-change (2. order) :-0.7129301E-06  (-0.1196171E-06)
 number of electron      39.9999993 magnetization 
 augmentation part       -7.3424219 magnetization 

 Free energy of the ion-electron system (eV)
  ---------------------------------------------------
  alpha Z        PSCENC =        87.52689448
  Ewald energy   TEWEN  =     -1416.69788009
  -Hartree energ DENC   =      -138.01258899
  -exchange      EXHF   =         0.00000000
  -V(xc)+E(xc)   XCENC  =       -31.93730028
  PAW double counting   =      1960.23872630    -1847.85595161
  entropy T*S    EENTRO =        -0.00090754
  eigenvalues    EBANDS =       -95.17858661
  atomic energy  EATOM  =      1448.49460871
  Solvation  Ediel_sol  =         0.00000000
  ---------------------------------------------------
  free energy    TOTEN  =       -33.42298564 eV

  energy without entropy =      -33.42207810  energy(sigma->0) =      -33.42253187


--------------------------------------------------------------------------------------------------------




 average (electrostatic) potential at core
  the test charge radii are     1.1631  1.0808
  (the norm of the test charge is              1.0000)
       1 -33.4296       2 -33.4296       3 -33.4296       4 -33.4296       5 -54.9950
       6 -54.9950       7 -54.9950       8 -54.9950
 
 
 
 E-fermi :   3.7983     XC(G=0):  -9.2555     alpha+bet : -8.7197

 Fermi energy:         3.7983406203

 k-point     1 :       0.0000    0.0000    0.0000
  band No.  band energies     occupation 
      1     -10.9742      2.00000
      2     -10.6293      2.00000
      3      -9.7193      2.00000
      4      -9.2157      2.00000
      5      -5.1561      2.00000
      6      -3.8934      2.00000
      7      -3.5575      2.00000
      8      -1.7924      2.00000
      9      -1.7169      2.00000
     10      -0.4051      2.00000
     11      -0.1568      2.00000
     12      -0.0429      2.00000
     13       0.1408      2.00000
     14       0.5311      2.00000
     15       1.3457      2.00000
     16       1.5051      2.00000
     17       1.7321      2.00000
     18       1.9022      2.00000
     19       2.3858      2.00000
     20       3.7634      1.67747
     21       3.8135      0.66876
     22       5.6967      0.00000
     23       5.7288      0.00000
     24       5.9096      0.00000
     25       6.3631      0.00000
     26       6.5591      0.00000
     27       6.9126      0.00000
     28       7.5652      0.00000
     29       7.8231      0.00000
     30       7.8264      0.00000
     31       9.2371      0.00000
     32       9.8366      0.00000

 k-point     2 :       0.1667    0.0000    0.0000
  band No.  band energies     occupation 
      1     -10.7869      2.00000
      2     -10.4496      2.00000
      3      -9.6098      2.00000
      4      -9.1455      2.00000
      5      -5.3790      2.00000
      6      -4.1133      2.00000
      7      -3.8743      2.00000
      8      -2.2253      2.00000
      9      -1.7171      2.00000
     10      -0.3060      2.00000
     11      -0.0605      2.00000
     12      -0.0260      2.00000
     13      -0.0036      2.00000
     14       0.4577      2.00000
     15       0.9914      2.00000
     16       1.4859      2.00000
     17       1.6567      2.00000
     18       1.7443      2.00000
     19       2.6518      2.00000
     20       3.7502      1.82689
     21       4.0042      0.00000
     22       5.2234      0.00000
     23       5.7284      0.00000
     24       6.3743      0.00000
     25       6.4490      0.00000
     26       6.5508      0.00000
     27       6.7789      0.00000
     28       7.2474      0.00000
     29       7.3113      0.00000
     30       7.7685      0.00000
     31       8.4738      0.00000
     32       9.3609      0.00000

 k-point     3 :       0.3333    0.0000    0.0000
  band No.  band energies     occupation 
      1     -10.2800      2.00000
      2      -9.9659      2.00000
      3      -9.4499      2.00000
      4      -9.0921      2.00000
      5      -5.8129      2.00000
      6      -4.8005      2.00000
      7      -4.5124      2.00000
      8      -3.3821      2.00000
      9      -1.2636      2.00000
     10      -0.2862      2.00000
     11       0.0829      2.00000
     12       0.3944      2.00000
     13       0.4220      2.00000
     14       0.7996      2.00000
     15       0.9080      2.00000
     16       0.9337      2.00000
     17       1.5808      2.00000
     18       1.6185      2.00000
     19       3.0342      2.00000
     20       3.4356      2.00000
     21       4.0984      0.00000
     22       4.5080      0.00000
     23       4.7001      0.00000
     24       5.2771      0.00000
     25       5.6150      0.00000
     26       5.7538      0.00000
     27       5.9314      0.00000
     28       6.4239      0.00000
     29       6.7770      0.00000
     30       7.0945      0.00000
     31       8.3493      0.00000
     32       9.3218      0.00000

 k-point     4 :       0.5000    0.0000    0.0000
  band No.  band energies     occupation 
      1      -9.6829      2.00000
      2      -9.6829      2.00000
      3      -9.3889      2.00000
      4      -9.3889      2.00000
      5      -5.6837      2.00000
      6      -5.6837      2.00000
      7      -4.3367      2.00000
      8      -4.3367      2.00000
      9      -0.4608      2.00000
     10      -0.4608      2.00000
     11       0.4862      2.00000
     12       0.4862      2.00000
     13       0.6192      2.00000
     14       0.6192      2.00000
     15       1.0581      2.00000
     16       1.0581      2.00000
     17       1.4344      2.00000
     18       1.4344      2.00000
     19       3.0666      2.00000
     20       3.0666      2.00000
     21       4.0361      0.00000
     22       4.0361      0.00000
     23       4.9491      0.00000
     24       4.9491      0.00000
     25       5.4171      0.00000
     26       5.4171      0.00000
     27       5.6359      0.00000
     28       5.6359      0.00000
     29       5.8696      0.00000
     30       5.8696      0.00000
     31       8.9274      0.00000
     32       8.9274      0.00000

 k-point     5 :       0.0000    0.1667    0.0000
  band No.  band energies     occupation 
      1     -10.8547      2.00000
      2     -10.5266      2.00000
      3      -9.7150      2.00000
      4      -9.2920      2.00000
      5      -5.3603      2.00000
      6      -4.1100      2.00000
      7      -3.9861      2.00000
      8      -2.3291      2.00000
      9      -1.7197      2.00000
     10      -0.0642      2.00000
     11       0.2845      2.00000
     12       0.3606      2.00000
     13       0.4919      2.00000
     14       0.6533      2.00000
     15       1.2845      2.00000
     16       1.3992      2.00000
     17       1.8710      2.00000
     18       2.0809      2.00000
     19       2.6820      2.00000
     20       3.5048      2.00000
     21       4.2457      0.00000
     22       5.1223      0.00000
     23       5.7040      0.00000
     24       5.9349      0.00000
     25       6.0072      0.00000
     26       6.1763      0.00000
     27       6.9755      0.00000
     28       7.1124      0.00000
     29       7.3025      0.00000
     30       8.0086      0.00000
     31       8.6077      0.00000
     32       9.7415      0.00000

 k-point     6 :       0.1667    0.1667    0.0000
  band No.  band energies     occupation 
      1     -10.6733      2.00000
      2     -10.3524      2.00000
      3      -9.6084      2.00000
      4      -9.2140      2.00000
      5      -5.4715      2.00000
      6      -4.2018      2.00000
      7      -4.1662      2.00000
      8      -2.5924      2.00000
      9      -1.5790      2.00000
     10      -0.7172      2.00000
     11      -0.5067      2.00000
     12      -0.0041      2.00000
     13       0.8515      2.00000
     14       1.0123      2.00000
     15       1.1859      2.00000
     16       1.2458      2.00000
     17       1.2687      2.00000
     18       2.1478      2.00000
     19       2.8921      2.00000
     20       3.5199      2.00000
     21       4.3939      0.00000
     22       4.8861      0.00000
     23       5.5698      0.00000
     24       5.7545      0.00000
     25       6.4779      0.00000
     26       6.5716      0.00000
     27       6.7065      0.00000
     28       7.0833      0.00000
     29       7.4761      0.00000
     30       7.7392      0.00000
     31       8.2422      0.00000
     32       9.6767      0.00000

 k-point     7 :       0.1667   -0.1667    0.0000
  band No.  band energies     occupation 
      1     -10.6733      2.00000
      2     -10.3524      2.00000
      3      -9.6084      2.00000
      4      -9.2140      2.00000
      5      -5.4715      2.00000
      6      -4.2018      2.00000
      7      -4.1662      2.00000
      8      -2.5924      2.00000
      9      -1.5790      2.00000
     10      -0.7172      2.00000
     11      -0.5067      2.00000
     12      -0.0041      2.00000
     13       0.8515      2.00000
     14       1.0123      2.00000
     15       1.1859      2.00000
     16       1.2458      2.00000
     17       1.2687      2.00000
     18       2.1478      2.00000
     19       2.8921      2.00000
     20       3.5199      2.00000
     21       4.3939      0.00000
     22       4.8861      0.00000
     23       5.5698      0.00000
     24       5.7545      0.00000
     25       6.4779      0.00000
     26       6.5716      0.00000
     27       6.7065      0.00000
     28       7.0833      0.00000
     29       7.4761      0.00000
     30       7.7392      0.00000
     31       8.2422      0.00000
     32       9.6767      0.00000

 k-point     8 :       0.3333    0.1667    0.0000
  band No.  band energies     occupation 
      1     -10.1885      2.00000
      2      -9.8887      2.00000
      3      -9.4466      2.00000
      4      -9.1250      2.00000
      5      -5.7392      2.00000
      6      -4.8391      2.00000
      7      -4.4453      2.00000
      8      -3.4496      2.00000
      9      -1.1353      2.00000
     10      -0.9525      2.00000
     11      -0.7696      2.00000
     12      -0.1378      2.00000
     13       0.5905      2.00000
     14       0.6771      2.00000
     15       0.9564      2.00000
     16       1.1465      2.00000
     17       1.2666      2.00000
     18       1.6234      2.00000
     19       2.7770      2.00000
     20       3.4096      2.00000
     21       4.2866      0.00000
     22       4.8898      0.00000
     23       5.2082      0.00000
     24       5.4662      0.00000
     25       5.5300      0.00000
     26       6.1565      0.00000
     27       6.6273      0.00000
     28       6.6559      0.00000
     29       7.0570      0.00000
     30       8.3235      0.00000
     31       8.4968      0.00000
     32       9.2058      0.00000

 k-point     9 :       0.3333   -0.1667    0.0000
  band No.  band energies     occupation 
      1     -10.1885      2.00000
      2      -9.8887      2.00000
      3      -9.4466      2.00000
      4      -9.1250      2.00000
      5      -5.7392      2.00000
      6      -4.8391      2.00000
      7      -4.4453      2.00000
      8      -3.4496      2.00000
      9      -1.1353      2.00000
     10      -0.9525      2.00000
     11      -0.7696      2.00000
     12      -0.1378      2.00000
     13       0.5905      2.00000
     14       0.6771      2.00000
     15       0.9564      2.00000
     16       1.1465      2.00000
     17       1.2666      2.00000
     18       1.6234      2.00000
     19       2.7770      2.00000
     20       3.4096      2.00000
     21       4.2866      0.00000
     22       4.8898      0.00000
     23       5.2082      0.00000
     24       5.4662      0.00000
     25       5.5300      0.00000
     26       6.1565      0.00000
     27       6.6273      0.00000
     28       6.6559      0.00000
     29       7.0570      0.00000
     30       8.3235      0.00000
     31       8.4968      0.00000
     32       9.2058      0.00000

 k-point    10 :       0.5000    0.1667    0.0000
  band No.  band energies     occupation 
      1      -9.6388      2.00000
      2      -9.6388      2.00000
      3      -9.3574      2.00000
      4      -9.3574      2.00000
      5      -5.5985      2.00000
      6      -5.5985      2.00000
      7      -4.2835      2.00000
      8      -4.2835      2.00000
      9      -0.5438      2.00000
     10      -0.5438      2.00000
     11      -0.1701      2.00000
     12      -0.1701      2.00000
     13       0.0316      2.00000
     14       0.0316      2.00000
     15       0.5371      2.00000
     16       0.5371      2.00000
     17       1.5268      2.00000
     18       1.5268      2.00000
     19       3.1313      2.00000
     20       3.1313      2.00000
     21       4.2889      0.00000
     22       4.2889      0.00000
     23       5.4646      0.00000
     24       5.4646      0.00000
     25       5.9726      0.00000
     26       5.9726      0.00000
     27       6.0364      0.00000
     28       6.0364      0.00000
     29       7.2452      0.00000
     30       7.2452      0.00000
     31       8.1965      0.00000
     32       8.1965      0.00000

 k-point    11 :       0.0000    0.3333    0.0000
  band No.  band energies     occupation 
      1     -10.5233      2.00000
      2     -10.2517      2.00000
      3      -9.7799      2.00000
      4      -9.5459      2.00000
      5      -5.6125      2.00000
      6      -4.8170      2.00000
      7      -4.3176      2.00000
      8      -3.3090      2.00000
      9      -1.3404      2.00000
     10       0.2638      2.00000
     11       0.6839      2.00000
     12       0.8836      2.00000
     13       0.9719      2.00000
     14       1.2419      2.00000
     15       1.4620      2.00000
     16       1.5737      2.00000
     17       1.6771      2.00000
     18       2.6510      2.00000
     19       3.1333      2.00000
     20       3.4378      2.00000
     21       4.2224      0.00000
     22       4.7450      0.00000
     23       5.0974      0.00000
     24       5.4175      0.00000
     25       5.6420      0.00000
     26       6.1297      0.00000
     27       6.3312      0.00000
     28       6.4913      0.00000
     29       6.5636      0.00000
     30       7.5037      0.00000
     31       8.4909      0.00000
     32      10.1017      0.00000

 k-point    12 :       0.1667    0.3333    0.0000
  band No.  band energies     occupation 
      1     -10.3608      2.00000
      2     -10.0932      2.00000
      3      -9.6747      2.00000
      4      -9.4401      2.00000
      5      -5.5719      2.00000
      6      -4.8111      2.00000
      7      -4.2630      2.00000
      8      -3.3376      2.00000
      9      -1.1737      2.00000
     10      -0.7278      2.00000
     11      -0.4403      2.00000
     12       0.1042      2.00000
     13       0.3831      2.00000
     14       0.5272      2.00000
     15       1.3171      2.00000
     16       1.7284      2.00000
     17       2.0157      2.00000
     18       2.1142      2.00000
     19       3.0213      2.00000
     20       3.3689      2.00000
     21       4.6616      0.00000
     22       5.2594      0.00000
     23       5.3482      0.00000
     24       5.7833      0.00000
     25       5.8441      0.00000
     26       6.2787      0.00000
     27       6.7290      0.00000
     28       6.9723      0.00000
     29       7.2543      0.00000
     30       8.0276      0.00000
     31       8.4191      0.00000
     32       9.5581      0.00000

 k-point    13 :       0.1667   -0.3333    0.0000
  band No.  band energies     occupation 
      1     -10.3608      2.00000
      2     -10.0932      2.00000
      3      -9.6747      2.00000
      4      -9.4401      2.00000
      5      -5.5719      2.00000
      6      -4.8111      2.00000
      7      -4.2630      2.00000
      8      -3.3376      2.00000
      9      -1.1737      2.00000
     10      -0.7278      2.00000
     11      -0.4403      2.00000
     12       0.1042      2.00000
     13       0.3831      2.00000
     14       0.5272      2.00000
     15       1.3171      2.00000
     16       1.7284      2.00000
     17       2.0157      2.00000
     18       2.1142      2.00000
     19       3.0213      2.00000
     20       3.3689      2.00000
     21       4.6616      0.00000
     22       5.2594      0.00000
     23       5.3482      0.00000
     24       5.7833      0.00000
     25       5.8441      0.00000
     26       6.2787      0.00000
     27       6.7290      0.00000
     28       6.9723      0.00000
     29       7.2543      0.00000
     30       8.0276      0.00000
     31       8.4191      0.00000
     32       9.5581      0.00000

 k-point    14 :       0.3333    0.3333    0.0000
  band No.  band energies     occupation 
      1      -9.9473      2.00000
      2      -9.6893      2.00000
      3      -9.4857      2.00000
      4      -9.2441      2.00000
      5      -5.5433      2.00000
      6      -4.9979      2.00000
      7      -4.2684      2.00000
      8      -3.6750      2.00000
      9      -1.3982      2.00000
     10      -1.3381      2.00000
     11      -0.8570      2.00000
     12      -0.7153      2.00000
     13      -0.3187      2.00000
     14       0.2784      2.00000
     15       0.2877      2.00000
     16       0.7678      2.00000
     17       0.9355      2.00000
     18       1.7650      2.00000
     19       2.7822      2.00000
     20       3.3215      2.00000
     21       4.4567      0.00000
     22       5.8000      0.00000
     23       5.9627      0.00000
     24       6.2136      0.00000
     25       6.3494      0.00000
     26       6.6756      0.00000
     27       7.0560      0.00000
     28       7.7442      0.00000
     29       8.2991      0.00000
     30       8.3729      0.00000
     31       9.1794      0.00000
     32       9.6048      0.00000

 k-point    15 :       0.3333   -0.3333    0.0000
  band No.  band energies     occupation 
      1      -9.9473      2.00000
      2      -9.6893      2.00000
      3      -9.4857      2.00000
      4      -9.2441      2.00000
      5      -5.5433      2.00000
      6      -4.9979      2.00000
      7      -4.2684      2.00000
      8      -3.6750      2.00000
      9      -1.3982      2.00000
     10      -1.3381      2.00000
     11      -0.8570      2.00000
     12      -0.7153      2.00000
     13      -0.3187      2.00000
     14       0.2784      2.00000
     15       0.2877      2.00000
     16       0.7678      2.00000
     17       0.9355      2.00000
     18       1.7650      2.00000
     19       2.7822      2.00000
     20       3.3215      2.00000
     21       4.4567      0.00000
     22       5.8000      0.00000
     23       5.9627      0.00000
     24       6.2136      0.00000
     25       6.3494      0.00000
     26       6.6756      0.00000
     27       7.0560      0.00000
     28       7.7442      0.00000
     29       8.2991      0.00000
     30       8.3729      0.00000
     31       9.1794      0.00000
     32       9.6048      0.00000

 k-point    16 :       0.5000    0.3333    0.0000
  band No.  band energies     occupation 
      1      -9.5450      2.00000
      2      -9.5450      2.00000
      3      -9.2939      2.00000
      4      -9.2939      2.00000
      5      -5.4063      2.00000
      6      -5.4063      2.00000
      7      -4.1872      2.00000
      8      -4.1872      2.00000
      9      -1.0674      2.00000
     10      -1.0674      2.00000
     11      -0.8624      2.00000
     12      -0.8624      2.00000
     13      -0.4518      2.00000
     14      -0.4518      2.00000
     15      -0.1058      2.00000
     16      -0.1058      2.00000
     17       0.8963      2.00000
     18       0.8963      2.00000
     19       3.1082      2.00000
     20       3.1082      2.00000
     21       5.0567      0.00000
     22       5.0567      0.00000
     23       6.4038      0.00000
     24       6.4038      0.00000
     25       6.7628      0.00000
     26       6.7628      0.00000
     27       7.2330      0.00000
     28       7.2330      0.00000
     29       8.6525      0.00000
     30       8.6525      0.00000
     31       9.1840      0.00000
     32       9.1840      0.00000

 k-point    17 :       0.0000    0.5000    0.0000
  band No.  band energies     occupation 
      1     -10.0814      2.00000
      2     -10.0814      2.00000
      3      -9.9017      2.00000
      4      -9.9017      2.00000
      5      -5.4522      2.00000
      6      -5.4522      2.00000
      7      -4.0541      2.00000
      8      -4.0541      2.00000
      9      -0.6273      2.00000
     10      -0.6273      2.00000
     11       1.2227      2.00000
     12       1.2227      2.00000
     13       1.3210      2.00000
     14       1.3210      2.00000
     15       1.8698      2.00000
     16       1.8698      2.00000
     17       2.0449      2.00000
     18       2.0449      2.00000
     19       3.1919      2.00000
     20       3.1919      2.00000
     21       4.4955      0.00000
     22       4.4955      0.00000
     23       5.3613      0.00000
     24       5.3613      0.00000
     25       5.6558      0.00000
     26       5.6558      0.00000
     27       5.7512      0.00000
     28       5.7512      0.00000
     29       6.6963      0.00000
     30       6.6963      0.00000
     31       9.2668      0.00000
     32       9.2668      0.00000

 k-point    18 :       0.1667    0.5000    0.0000
  band No.  band energies     occupation 
      1      -9.9529      2.00000
      2      -9.9529      2.00000
      3      -9.7649      2.00000
      4      -9.7649      2.00000
      5      -5.3700      2.00000
      6      -5.3700      2.00000
      7      -3.9829      2.00000
      8      -3.9829      2.00000
      9      -0.5355      2.00000
     10      -0.5355      2.00000
     11      -0.2452      2.00000
     12      -0.2452      2.00000
     13       0.0575      2.00000
     14       0.0575      2.00000
     15       1.5340      2.00000
     16       1.5340      2.00000
     17       2.2015      2.00000
     18       2.2015      2.00000
     19       3.2574      2.00000
     20       3.2574      2.00000
     21       4.8156      0.00000
     22       4.8156      0.00000
     23       5.8724      0.00000
     24       5.8724      0.00000
     25       6.0982      0.00000
     26       6.0982      0.00000
     27       6.6693      0.00000
     28       6.6693      0.00000
     29       7.6807      0.00000
     30       7.6807      0.00000
     31       8.7298      0.00000
[...]
     32       9.0635      0.00000

 k-point    32 :       0.1667    0.3333    0.5000
  band No.  band energies     occupation 
      1     -10.2514      2.00000
      2     -10.2514      2.00000
      3      -9.5333      2.00000
      4      -9.5333      2.00000
      5      -5.2630      2.00000
      6      -5.2630      2.00000
      7      -3.8104      2.00000
      8      -3.8104      2.00000
      9      -0.8434      2.00000
     10      -0.8434      2.00000
     11       0.0441      2.00000
     12       0.0441      2.00000
     13       0.4331      2.00000
     14       0.4331      2.00000
     15       1.3700      2.00000
     16       1.3700      2.00000
     17       2.0029      2.00000
     18       2.0029      2.00000
     19       2.8120      2.00000
     20       2.8120      2.00000
     21       5.0709      0.00000
     22       5.0709      0.00000
     23       5.7489      0.00000
     24       5.7489      0.00000
     25       6.2538      0.00000
     26       6.2538      0.00000
     27       6.9328      0.00000
     28       6.9328      0.00000
     29       7.8614      0.00000
     30       7.8614      0.00000
     31       9.1153      0.00000
     32       9.1153      0.00000

 k-point    33 :       0.1667   -0.3333    0.5000
  band No.  band energies     occupation 
      1     -10.2514      2.00000
      2     -10.2514      2.00000
      3      -9.5333      2.00000
      4      -9.5333      2.00000
      5      -5.2630      2.00000
      6      -5.2630      2.00000
      7      -3.8104      2.00000
      8      -3.8104      2.00000
      9      -0.8434      2.00000
     10      -0.8434      2.00000
     11       0.0441      2.00000
     12       0.0441      2.00000
     13       0.4331      2.00000
     14       0.4331      2.00000
     15       1.3700      2.00000
     16       1.3700      2.00000
     17       2.0029      2.00000
     18       2.0029      2.00000
     19       2.8120      2.00000
     20       2.8120      2.00000
     21       5.0709      0.00000
     22       5.0709      0.00000
     23       5.7489      0.00000
     24       5.7489      0.00000
     25       6.2538      0.00000
     26       6.2538      0.00000
     27       6.9328      0.00000
     28       6.9328      0.00000
     29       7.8614      0.00000
     30       7.8614      0.00000
     31       9.1153      0.00000
     32       9.1153      0.00000

 k-point    34 :       0.3333    0.3333    0.5000
  band No.  band energies     occupation 
      1      -9.8494      2.00000
      2      -9.8494      2.00000
      3      -9.3354      2.00000
      4      -9.3354      2.00000
      5      -5.2884      2.00000
      6      -5.2884      2.00000
      7      -3.9849      2.00000
      8      -3.9849      2.00000
      9      -1.5522      2.00000
     10      -1.5522      2.00000
     11      -0.6415      2.00000
     12      -0.6415      2.00000
     13       0.1676      2.00000
     14       0.1676      2.00000
     15       0.7685      2.00000
     16       0.7685      2.00000
     17       1.3347      2.00000
     18       1.3347      2.00000
     19       2.1993      2.00000
     20       2.1993      2.00000
     21       5.3776      0.00000
     22       5.3776      0.00000
     23       6.1251      0.00000
     24       6.1251      0.00000
     25       7.0883      0.00000
     26       7.0883      0.00000
     27       7.5763      0.00000
     28       7.5763      0.00000
     29       8.6886      0.00000
     30       8.6886      0.00000
     31       9.2268      0.00000
     32       9.2268      0.00000

 k-point    35 :       0.3333   -0.3333    0.5000
  band No.  band energies     occupation 
      1      -9.8494      2.00000
      2      -9.8494      2.00000
      3      -9.3354      2.00000
      4      -9.3354      2.00000
      5      -5.2884      2.00000
      6      -5.2884      2.00000
      7      -3.9849      2.00000
      8      -3.9849      2.00000
      9      -1.5522      2.00000
     10      -1.5522      2.00000
     11      -0.6415      2.00000
     12      -0.6415      2.00000
     13       0.1676      2.00000
     14       0.1676      2.00000
     15       0.7685      2.00000
     16       0.7685      2.00000
     17       1.3347      2.00000
     18       1.3347      2.00000
     19       2.1993      2.00000
     20       2.1993      2.00000
     21       5.3776      0.00000
     22       5.3776      0.00000
     23       6.1251      0.00000
     24       6.1251      0.00000
     25       7.0883      0.00000
     26       7.0883      0.00000
     27       7.5763      0.00000
     28       7.5763      0.00000
     29       8.6886      0.00000
     30       8.6886      0.00000
     31       9.2268      0.00000
     32       9.2268      0.00000

 k-point    36 :       0.5000    0.3333    0.5000
  band No.  band energies     occupation 
      1      -9.5374      2.00000
      2      -9.5374      2.00000
      3      -9.3039      2.00000
      4      -9.3039      2.00000
      5      -5.3670      2.00000
      6      -5.3670      2.00000
      7      -4.2349      2.00000
      8      -4.2349      2.00000
      9      -1.3137      2.00000
     10      -1.3137      2.00000
     11      -1.0505      2.00000
     12      -1.0505      2.00000
     13      -0.0367      2.00000
     14      -0.0367      2.00000
     15       0.2464      2.00000
     16       0.2464      2.00000
     17       1.2688      2.00000
     18       1.2688      2.00000
     19       1.8482      2.00000
     20       1.8482      2.00000
     21       5.5581      0.00000
     22       5.5581      0.00000
     23       6.6061      0.00000
     24       6.6061      0.00000
     25       6.8285      0.00000
     26       6.8285      0.00000
     27       7.9509      0.00000
     28       7.9509      0.00000
     29       8.5964      0.00000
     30       8.5964      0.00000
     31       8.9540      0.00000
     32       8.9540      0.00000

 k-point    37 :       0.0000    0.5000    0.5000
  band No.  band energies     occupation 
      1     -10.0676      2.00000
      2     -10.0676      2.00000
      3      -9.9182      2.00000
      4      -9.9182      2.00000
      5      -5.3566      2.00000
      6      -5.3566      2.00000
      7      -4.2524      2.00000
      8      -4.2524      2.00000
      9       0.2956      2.00000
     10       0.2956      2.00000
     11       0.5055      2.00000
     12       0.5055      2.00000
     13       1.2646      2.00000
     14       1.2646      2.00000
     15       1.2767      2.00000
     16       1.2767      2.00000
     17       2.3778      2.00000
     18       2.3778      2.00000
     19       3.2454      2.00000
     20       3.2454      2.00000
     21       4.4736      0.00000
     22       4.4736      0.00000
     23       4.9896      0.00000
     24       4.9896      0.00000
     25       5.7176      0.00000
     26       5.7176      0.00000
     27       6.6055      0.00000
     28       6.6055      0.00000
     29       6.8854      0.00000
     30       6.8854      0.00000
     31       8.8252      0.00000
     32       8.8252      0.00000

 k-point    38 :       0.1667    0.5000    0.5000
  band No.  band energies     occupation 
      1      -9.9407      2.00000
      2      -9.9407      2.00000
      3      -9.7798      2.00000
      4      -9.7798      2.00000
      5      -5.2863      2.00000
      6      -5.2863      2.00000
      7      -4.1521      2.00000
      8      -4.1521      2.00000
      9      -0.3227      2.00000
     10      -0.3227      2.00000
     11      -0.2752      2.00000
     12      -0.2752      2.00000
     13       0.6327      2.00000
     14       0.6327      2.00000
     15       0.8978      2.00000
     16       0.8978      2.00000
     17       2.0871      2.00000
     18       2.0871      2.00000
     19       2.8428      2.00000
     20       2.8428      2.00000
     21       5.4172      0.00000
     22       5.4172      0.00000
     23       5.4926      0.00000
     24       5.4926      0.00000
     25       6.3958      0.00000
     26       6.3958      0.00000
     27       7.3829      0.00000
     28       7.3829      0.00000
     29       7.4279      0.00000
     30       7.4279      0.00000
     31       8.9054      0.00000
     32       8.9054      0.00000

 k-point    39 :       0.3333    0.5000    0.5000
  band No.  band energies     occupation 
      1      -9.6535      2.00000
      2      -9.6535      2.00000
      3      -9.4606      2.00000
      4      -9.4606      2.00000
      5      -5.2222      2.00000
      6      -5.2222      2.00000
      7      -4.0684      2.00000
      8      -4.0684      2.00000
      9      -1.3709      2.00000
     10      -1.3709      2.00000
     11      -1.3368      2.00000
     12      -1.3368      2.00000
     13       0.3608      2.00000
     14       0.3608      2.00000
     15       0.5067      2.00000
     16       0.5067      2.00000
     17       1.2211      2.00000
     18       1.2211      2.00000
     19       1.8953      2.00000
     20       1.8953      2.00000
     21       5.7293      0.00000
     22       5.7293      0.00000
     23       6.8955      0.00000
     24       6.8955      0.00000
     25       7.2622      0.00000
     26       7.2622      0.00000
     27       8.2850      0.00000
     28       8.2850      0.00000
     29       8.8368      0.00000
     30       8.8368      0.00000
     31       9.0845      0.00000
     32       9.0845      0.00000

 k-point    40 :       0.5000    0.5000    0.5000
  band No.  band energies     occupation 
      1      -9.4877      2.00000
      2      -9.4877      2.00000
      3      -9.2713      2.00000
      4      -9.2713      2.00000
      5      -5.2688      2.00000
      6      -5.2688      2.00000
      7      -4.1644      2.00000
      8      -4.1644      2.00000
      9      -1.5631      2.00000
     10      -1.5631      2.00000
     11      -1.3319      2.00000
     12      -1.3319      2.00000
     13      -0.2967      2.00000
     14      -0.2967      2.00000
     15      -0.1958      2.00000
     16      -0.1958      2.00000
     17       1.2866      2.00000
     18       1.2866      2.00000
     19       1.8454      2.00000
     20       1.8454      2.00000
     21       5.5775      0.00000
     22       5.5775      0.00000
     23       6.9878      0.00000
     24       6.9878      0.00000
     25       7.5976      0.00000
     26       7.5976      0.00000
     27       8.5114      0.00000
     28       8.5114      0.00000
     29       9.1706      0.00000
     30       9.1706      0.00000
     31       9.5573      0.00000
     32       9.5573      0.00000


--------------------------------------------------------------------------------------------------------


 soft charge-density along one line, spin component            1
         0         1         2         3         4         5         6         7         8         9
 total charge-density along one line
 
 pseudopotential strength for first ion, spin component:            1
 14.518  18.113   0.041   0.027   0.000   0.073   0.048   0.000
 18.113  22.613   0.051   0.034   0.000   0.092   0.061   0.000
  0.041   0.051   3.226  -0.002  -0.000   5.492  -0.003  -0.000
  0.027   0.034  -0.002   3.224   0.000  -0.003   5.489   0.000
  0.000   0.000  -0.000   0.000   3.227  -0.000   0.000   5.495
  0.073   0.092   5.492  -0.003  -0.000   9.407  -0.006  -0.000
  0.048   0.061  -0.003   5.489   0.000  -0.006   9.402   0.000
  0.000   0.000  -0.000   0.000   5.495  -0.000   0.000   9.412
 -0.000  -0.000   0.000   0.000   0.006   0.000   0.000   0.012
 -0.004  -0.005   0.006   0.013   0.000   0.011   0.022   0.000
 -0.003  -0.004  -0.003   0.007  -0.000  -0.007   0.013  -0.000
  0.000   0.000   0.000   0.000   0.006   0.000   0.000   0.011
  0.002   0.002  -0.012  -0.000   0.000  -0.022  -0.000   0.000
 total augmentation occupancy for first ion, spin component:            1
  2.923  -0.843   0.332   0.157   0.000  -0.060  -0.025   0.000   0.000  -0.009   0.038   0.000   0.009
 -0.843   0.752  -0.428  -0.268  -0.000   0.066   0.041   0.000  -0.000   0.013  -0.031   0.000  -0.005
  0.332  -0.428   1.268   0.055  -0.000  -0.206  -0.003   0.000  -0.000   0.035  -0.100  -0.000   0.003
  0.157  -0.268   0.055   1.542  -0.000  -0.003  -0.267   0.000  -0.000  -0.020   0.032  -0.000  -0.003
  0.000  -0.000  -0.000  -0.000   1.272   0.000   0.000  -0.220   0.147  -0.000   0.000   0.033  -0.000
 -0.060   0.066  -0.206  -0.003   0.000   0.038  -0.000  -0.000   0.000  -0.006   0.018   0.000  -0.000
 -0.025   0.041  -0.003  -0.267   0.000  -0.000   0.052  -0.000  -0.000   0.004  -0.005   0.000   0.000
  0.000   0.000   0.000   0.000  -0.220  -0.000  -0.000   0.042  -0.026   0.000  -0.000  -0.006  -0.000
  0.000  -0.000  -0.000  -0.000   0.147   0.000  -0.000  -0.026   0.030  -0.000  -0.000   0.002   0.000
 -0.009   0.013   0.035  -0.020  -0.000  -0.006   0.004   0.000  -0.000   0.011  -0.007  -0.000   0.001
  0.038  -0.031  -0.100   0.032   0.000   0.018  -0.005  -0.000  -0.000  -0.007   0.042   0.000  -0.003
  0.000   0.000  -0.000  -0.000   0.033   0.000   0.000  -0.006   0.002  -0.000   0.000   0.010  -0.000
  0.009  -0.005   0.003  -0.003  -0.000  -0.000   0.000  -0.000   0.000   0.001  -0.003  -0.000   0.008


------------------------ aborting loop because EDIFF is reached ----------------------------------------


    CHARGE:  cpu time      0.0084: real time      0.0084
    FORLOC:  cpu time      0.0004: real time      0.0004
    FORNL :  cpu time      0.0447: real time      0.0449
    STRESS:  cpu time      0.4559: real time      0.4580
    FORCOR:  cpu time      0.0089: real time      0.0090
    FORHAR:  cpu time      0.0029: real time      0.0030
    MIXING:  cpu time      0.0027: real time      0.0027
    OFIELD:  cpu time      0.0000: real time      0.0000

  FORCE on cell =-STRESS in cart. coord.  units (eV):
  Direction    XX          YY          ZZ          XY          YZ          ZX
  --------------------------------------------------------------------------------------
  Alpha Z    87.52689    87.52689    87.52689
  Ewald    -449.41528  -490.01126  -477.27302     0.00000    -0.00000    -0.00000
  Hartree    58.61698    44.73193    34.66673     0.00000     0.00000    -0.00000
  E(xc)    -141.55617  -141.58071  -141.87759     0.00000     0.00000     0.00000
  Local    -174.30184  -126.54914  -131.50865    -0.00000     0.00000     0.00000
  n-local   240.81155   240.29820   243.64021    -0.00000    -0.00000    -0.00000
  augment   -11.33457   -11.79334   -12.25454    -0.00000     0.00000     0.00000
  Kinetic   388.73533   396.43565   405.97157    -0.00000     0.00000     0.00000
  Fock        0.00000     0.00000     0.00000     0.00000     0.00000     0.00000
  -------------------------------------------------------------------------------------
  Total      -0.91711    -0.94178     8.89161    -0.00000     0.00000     0.00000
  in kB      -7.59004    -7.79422    73.58768    -0.00000     0.00000     0.00000
  external pressure =       19.40 kB  Pullay stress =        0.00 kB


 VOLUME and BASIS-vectors are now :
 -----------------------------------------------------------------------------
  energy-cutoff  :      520.00
  volume of cell :      193.59
      direct lattice vectors                 reciprocal lattice vectors
     3.858100176  0.000000000  0.000000000     0.259194929  0.000000000  0.000000000
     0.000000000  4.526575088  0.000000000     0.000000000  0.220917577  0.000000000
     0.000000000  0.000000000 11.085176468     0.000000000  0.000000000  0.090210562

  length of vectors
     3.858100176  4.526575088 11.085176468     0.259194929  0.220917577  0.090210562


 FORCES acting on ions
    electron-ion (+dipol)            ewald-force                    non-local-force                 convergence-correction
 -----------------------------------------------------------------------------------------------
   -.573E-07 0.135E+02 0.216E+02   -.150E-14 -.160E+02 -.234E+02   0.100E-07 0.260E+01 0.229E+01   -.898E-08 0.173E-04 -.517E-03
   0.132E-06 0.135E+02 -.216E+02   -.822E-15 -.160E+02 0.234E+02   -.454E-07 0.260E+01 -.229E+01   -.807E-07 0.174E-04 0.516E-03
   0.333E-06 -.135E+02 -.216E+02   0.309E-15 0.160E+02 0.234E+02   -.144E-06 -.260E+01 -.229E+01   -.112E-06 -.168E-04 0.518E-03
   -.128E-06 -.135E+02 0.216E+02   0.945E-15 0.160E+02 -.234E+02   0.358E-07 -.260E+01 0.229E+01   0.833E-07 -.173E-04 -.517E-03
   -.103E-06 -.145E+02 -.255E+02   0.153E-14 0.161E+02 0.271E+02   -.141E-06 -.193E+01 -.119E+01   0.272E-06 -.194E-03 0.601E-03
   0.526E-06 -.145E+02 0.255E+02   -.184E-15 0.161E+02 -.271E+02   -.476E-06 -.193E+01 0.119E+01   -.636E-07 -.193E-03 -.603E-03
   0.473E-06 0.145E+02 0.255E+02   -.153E-14 -.161E+02 -.271E+02   -.294E-07 0.193E+01 0.119E+01   -.467E-06 0.193E-03 -.602E-03
   -.123E-05 0.145E+02 -.255E+02   -.240E-14 -.161E+02 0.271E+02   0.749E-06 0.193E+01 -.119E+01   0.280E-06 0.194E-03 0.605E-03
 -----------------------------------------------------------------------------------------------
   -.497E-07 0.247E-05 0.217E-05   -.366E-14 0.000E+00 -.142E-13   -.415E-07 0.287E-03 -.152E-05   -.972E-07 0.266E-06 0.313E-07
 
 
 POSITION                                       TOTAL-FORCE (eV/Angst)
 -----------------------------------------------------------------------------------
      2.89358      4.19032      1.36328        -0.000000      0.081550      0.497491
      0.96453      1.92703      4.17930         0.000000      0.081550     -0.497491
      2.89358      4.01000      9.72189         0.000000     -0.081709     -0.497474
      0.96453      1.74671      6.90587         0.000000     -0.081709      0.497475
      2.89358      3.64346      3.90621         0.000000     -0.290762      0.399094
      0.96453      1.38017      1.63637         0.000000     -0.290763     -0.399094
      2.89358      0.03028      7.17896         0.000000      0.290921     -0.399030
      0.96453      2.29357      9.44880        -0.000000      0.290921      0.399029
 -----------------------------------------------------------------------------------
    total drift:                               -0.000000      0.000290      0.000001


--------------------------------------------------------------------------------------------------------



  FREE ENERGIE OF THE ION-ELECTRON SYSTEM (eV)
  ---------------------------------------------------
  free  energy   TOTEN  =       -33.42298564 eV

  energy  without entropy=      -33.42207810  energy(sigma->0) =      -33.42253187
 


--------------------------------------------------------------------------------------------------------


    POTLOK:  cpu time      0.2285: real time      0.2292


--------------------------------------------------------------------------------------------------------


     LOOP+:  cpu time      8.9916: real time      9.0401
    4ORBIT:  cpu time      0.0000: real time      0.0000

 total amount of memory used by VASP MPI-rank0    41770. kBytes
=======================================================================

   base      :      30000. kBytes
   nonl-proj :       9056. kBytes
   fftplans  :        519. kBytes
   grid      :        766. kBytes
   one-center:         16. kBytes
   wavefun   :       1413. kBytes
 
  
  
 General timing and accounting informations for this job:
 ========================================================
  
                  Total CPU time used (sec):       10.758
                            User time (sec):       10.390
                          System time (sec):        0.368
                         Elapsed time (sec):       11.095
  
                   Maximum memory used (kb):      179272.
                   Average memory used (kb):          N/A
  
                          Minor page faults:        23519
                          Major page faults:           41
                 Voluntary context switches:         1982
