 vasp.6.4.2 20Jul23 (build Oct 12 2023 10:31:02) complex                         
 executed on              LinuxNV date 2024.11.02  00:36:14
 running  128 mpi-ranks, with    1 threads/rank, on    2 nodes
 distrk:  each k-point on   64 cores,    2 groups
 distr:  one band on NCORE=   8 cores,    8 groups


--------------------------------------------------------------------------------------------------------


 INCAR:
   ENCUT = 520.000000
   SIGMA = 0.050000
   EDIFF = 1.00e-06
   ALGO = N
   GGA = PE
   PREC = Accurate
   SYSTEM = 01_AOPT
   ICHARG = 0
   ISMEAR = 0
   ISPIN = 2
   ISTART = 1
   ISYM = -1
   KPAR = 2
   LORBIT = 11
   NBANDS = 220
   NELM = 100
   NELMIN = 5
   NPAR = 8
   LASPH = .TRUE.
   LCHARG = .FALSE.
   LWAVE = .FALSE.
   LREAL = .FALSE.

 POTCAR:    PAW_PBE Ge 05Jan2001                  
 POTCAR:    PAW_PBE Se 06Sep2000                  
 -----------------------------------------------------------------------------
|                                                                             |
|           W    W    AA    RRRRR   N    N  II  N    N   GGGG   !!!           |
|           W    W   A  A   R    R  NN   N  II  NN   N  G    G  !!!           |
|           W    W  A    A  R    R  N N  N  II  N N  N  G       !!!           |
|           W WW W  AAAAAA  RRRRR   N  N N  II  N  N N  G  GGG   !            |
|           WW  WW  A    A  R   R   N   NN  II  N   NN  G    G                |
|           W    W  A    A  R    R  N    N  II  N    N   GGGG   !!!           |
|                                                                             |
|     You use a magnetic or noncollinear calculation, but did not specify     |
|     the initial magnetic moment with the MAGMOM tag. Note that a            |
|     default of 1 will be used for all atoms. This ferromagnetic setup       |
|     may break the symmetry of the crystal, in particular it may rule        |
|     out finding an antiferromagnetic solution. Thence, we recommend         |
|     setting the initial magnetic moment manually or verifying carefully     |
|     that this magnetic setup is desired.                                    |
|                                                                             |
 -----------------------------------------------------------------------------

 POTCAR:    PAW_PBE Ge 05Jan2001                  
   VRHFIN =Ge: s2p2                                                                                 
   LEXCH  = PE                                                                                      
   EATOM  =   104.9960 eV,    7.7170 Ry                                                             
                                                                                                    
   TITEL  = PAW_PBE Ge 05Jan2001                                                                    
   LULTRA =        F    use ultrasoft PP ?                                                          
   IUNSCR =        1    unscreen: 0-lin 1-nonlin 2-no                                               
   RPACOR =    2.170    partial core radius                                                         
   POMASS =   72.610; ZVAL   =    4.000    mass and valenz                                          
   RCORE  =    2.300    outmost cutoff radius                                                       
   RWIGS  =    2.300; RWIGS  =    1.217    wigner-seitz radius (au A)                               
   ENMAX  =  173.807; ENMIN  =  130.355 eV                                                          
   ICORE  =        3    local potential                                                             
   LCOR   =        T    correct aug charges                                                         
   LPAW   =        T    paw PP                                                                      
   EAUG   =  385.843                                                                                
   DEXC   =    0.000                                                                                
   RMAX   =    2.342    core radius for proj-oper                                                   
   RAUG   =    1.300    factor for augmentation sphere                                              
   RDEP   =    2.318    radius for radial grids                                                     
   RDEPT  =    2.103    core radius for aug-charge                                                  
                                                                                                    
   Atomic configuration                                                                             
   10 entries                                                                                       
     n  l   j            E        occ.                                                              
     1  0  0.50    -10959.8463   2.0000                                                             
     2  0  0.50     -1371.6056   2.0000                                                             
     2  1  1.50     -1198.4791   6.0000                                                             
     3  0  0.50      -168.4733   2.0000                                                             
     3  1  1.50      -115.6019   6.0000                                                             
     3  2  2.50       -29.3106  10.0000                                                             
     4  0  0.50       -11.7309   2.0000                                                             
     4  1  0.50        -3.8952   2.0000                                                             
     4  2  1.50        -4.0817   0.0000                                                             
     4  3  2.50        -4.0817   0.0000                                                             
   Description                                                                                      
     l       E           TYP  RCUT    TYP  RCUT                                                     
     0    -11.7309493     23  2.300                                                                 
     0     -7.4578696     23  2.300                                                                 
     1     -3.8952261     23  2.300                                                                 
     1      6.1178114     23  2.300                                                                 
     2     -4.0817478     23  2.300                                                                 
     3     -1.3605826      7  2.300                                                                 
  local pseudopotential read in
  partial core-charges read in
  partial kinetic energy density read in
  atomic valenz-charges read in
  non local Contribution for L=            0  read in
    real space projection operators read in
  non local Contribution for L=            0  read in
    real space projection operators read in
  non local Contribution for L=            1  read in
    real space projection operators read in
  non local Contribution for L=            1  read in
    real space projection operators read in
  non local Contribution for L=            2  read in
    real space projection operators read in
    PAW grid and wavefunctions read in
 
   number of l-projection  operators is LMAX  =            5
   number of lm-projection operators is LMMAX =           13
 
 POTCAR:    PAW_PBE Se 06Sep2000                  
   VRHFIN =Se: s2p4                                                                                 
   LEXCH  = PE                                                                                      
   EATOM  =   257.1286 eV,   18.8984 Ry                                                             
                                                                                                    
   TITEL  = PAW_PBE Se 06Sep2000                                                                    
   LULTRA =        F    use ultrasoft PP ?                                                          
   IUNSCR =        1    unscreen: 0-lin 1-nonlin 2-no                                               
   RPACOR =    1.900    partial core radius                                                         
   POMASS =   78.960; ZVAL   =    6.000    mass and valenz                                          
   RCORE  =    2.100    outmost cutoff radius                                                       
   RWIGS  =    2.200; RWIGS  =    1.164    wigner-seitz radius (au A)                               
   ENMAX  =  211.555; ENMIN  =  158.666 eV                                                          
   ICORE  =        3    local potential                                                             
   LCOR   =        T    correct aug charges                                                         
   LPAW   =        T    paw PP                                                                      
   EAUG   =  446.842                                                                                
   DEXC   =    0.000                                                                                
   RMAX   =    2.147    core radius for proj-oper                                                   
   RAUG   =    1.300    factor for augmentation sphere                                              
   RDEP   =    2.177    radius for radial grids                                                     
   RDEPT  =    1.928    core radius for aug-charge                                                  
                                                                                                    
   Atomic configuration                                                                             
   10 entries                                                                                       
     n  l   j            E        occ.                                                              
     1  0  0.50    -12503.4787   2.0000                                                             
     2  0  0.50     -1606.9547   2.0000                                                             
     2  1  1.50     -1413.3140   6.0000                                                             
     3  0  0.50      -213.4885   2.0000                                                             
     3  1  1.50      -152.9538   6.0000                                                             
     3  2  2.50       -53.1221  10.0000                                                             
     4  0  0.50       -17.2865   2.0000                                                             
     4  1  0.50        -6.5110   4.0000                                                             
     4  2  2.50        -6.8029   0.0000                                                             
     4  3  2.50        -6.8029   0.0000                                                             
   Description                                                                                      
     l       E           TYP  RCUT    TYP  RCUT                                                     
     0    -17.2865377     23  2.100                                                                 
     0    -15.3094411     23  2.100                                                                 
     1     -6.5110275     23  2.100                                                                 
     1     -0.0695192     23  2.100                                                                 
     2     -6.8029130     23  2.100                                                                 
     3     -1.3605826      7  2.100                                                                 
  local pseudopotential read in
  partial core-charges read in
  partial kinetic energy density read in
  atomic valenz-charges read in
  non local Contribution for L=            0  read in
    real space projection operators read in
  non local Contribution for L=            0  read in
    real space projection operators read in
  non local Contribution for L=            1  read in
    real space projection operators read in
  non local Contribution for L=            1  read in
    real space projection operators read in
  non local Contribution for L=            2  read in
    real space projection operators read in
    PAW grid and wavefunctions read in
 
   number of l-projection  operators is LMAX  =            5
   number of lm-projection operators is LMMAX =           13
 
 -----------------------------------------------------------------------------
|                                                                             |
|               ----> ADVICE to this user running VASP <----                  |
|                                                                             |
|     You have a (more or less) 'large supercell' and for larger cells it     |
|     might be more efficient to use real-space projection operators.         |
|     Therefore, try LREAL= Auto in the INCAR file.                           |
|     Mind: For very accurate calculation, you might also keep the            |
|     reciprocal projection scheme (i.e. LREAL=.FALSE.).                      |
|                                                                             |
 -----------------------------------------------------------------------------

  PAW_PBE Ge 05Jan2001                  :
 energy of atom  1       EATOM= -104.9960
 kinetic energy error for atom=    0.0002 (will be added to EATOM!!)
  PAW_PBE Se 06Sep2000                  :
 energy of atom  2       EATOM= -257.1286
 kinetic energy error for atom=    0.0007 (will be added to EATOM!!)
 
 
 POSCAR: Ge Se
  positions in cartesian coordinates
  No initial velocities read in
 exchange correlation table for  LEXCH =        8
   RHO(1)=    0.500       N(1)  =     2000
   RHO(2)=  100.500       N(2)  =     4000
 


--------------------------------------------------------------------------------------------------------


 ion  position               nearest neighbor table
   1  0.041  0.028  0.112-  45 2.52  55 2.56  53 2.70
   2  0.228  0.883  0.376-  67 2.51  45 2.56  48 2.83
   3  0.567  0.223  0.351-  68 2.52  49 2.52  56 2.71
   4  0.526  0.525  0.376-  69 2.44  50 2.58  49 2.68
   5  0.569  0.860  0.360-  70 2.49  44 2.60  48 2.70
   6  0.894  0.207  0.380-  55 2.62  56 2.62  46 2.64
   7  0.910  0.535  0.364-  71 2.48  72 2.63
   8  0.888  0.858  0.366-  53 2.55  44 2.63  72 2.76
   9  0.096  0.138  0.628-  57 2.46  51 2.48  37 2.83
  10  0.082  0.477  0.633-  58 2.55  38 2.64  43 2.71
  11  0.098  0.802  0.628-  39 2.71  59 2.77  52 2.78
  12  0.417  0.131  0.615-  40 2.46  51 2.77  60 2.78
  13  0.413  0.461  0.603-  41 2.64  38 2.65  61 2.79
  14  0.427  0.811  0.647-  42 2.56  62 2.59  39 2.68
  15  0.748  0.137  0.628-  63 2.54  40 2.66  37 2.76
  16  0.746  0.473  0.625-  64 2.69  43 2.73  41 2.75
  17  0.220  0.539  0.395-  66 2.48  47 2.55  50 2.67
  18  0.201  0.182  0.363-  45 2.54  46 2.61  54 2.70
  19  0.745  0.814  0.633-  65 2.63  42 2.65  52 2.72
  20  0.893  0.653  0.880-  52 2.49  64 2.68  58 2.84
  21  0.884  0.975  0.872-  65 2.53  37 2.55
  22  0.065  0.378  0.106-  71 2.64  66 2.69  46 2.79
  23  0.087  0.730  0.121-  67 2.59  53 2.70  47 2.78
  24  0.415  0.055  0.131-  48 2.56  54 2.59  68 2.65
  25  0.377  0.368  0.137-  49 2.53  54 2.62  66 2.64
  26  0.736  0.055  0.127-  68 2.58  55 2.58  44 2.62
  27  0.738  0.372  0.136-  69 2.63  56 2.73
  28  0.395  0.704  0.118-  50 2.60  67 2.64  70 2.80
  29  0.227  0.303  0.875-  57 2.57  38 2.57  60 2.78
  30  0.239  0.658  0.889-  39 2.49  58 2.57
  31  0.244  0.975  0.891-  59 2.55  62 2.62  51 2.68
  32  0.562  0.315  0.851-  41 2.54  60 2.56  61 2.83
  33  0.577  0.643  0.864-  42 2.56  64 2.56  61 2.60
  34  0.574  0.995  0.883-  62 2.61  65 2.67  40 2.67
  35  0.904  0.319  0.871-  43 2.49  63 2.68  57 2.84
  36  0.716  0.694  0.127-  70 2.57  72 2.62  69 2.81
  37  0.918  0.997  0.646-  21 2.55  15 2.76   9 2.83
  38  0.242  0.340  0.647-  29 2.57  10 2.64  13 2.65
  39  0.266  0.669  0.666-  30 2.49  14 2.68  11 2.71
  40  0.574  0.014  0.643-  12 2.46  15 2.66  34 2.67
  41  0.578  0.330  0.623-  32 2.54  13 2.64  16 2.75
  42  0.582  0.678  0.636-  14 2.56  33 2.56  19 2.65
  43  0.917  0.336  0.647-  35 2.49  10 2.71  16 2.73
  44  0.728  0.995  0.354-   5 2.60  26 2.62   8 2.63
  45  0.080  0.021  0.336-   1 2.52  18 2.54   2 2.56
  46  0.060  0.337  0.354-  18 2.61   6 2.64  22 2.79
  47  0.084  0.690  0.368-  17 2.55  23 2.78
  48  0.414  0.011  0.356-  24 2.56   5 2.70   2 2.83
  49  0.407  0.347  0.362-   3 2.52  25 2.53   4 2.68
  50  0.383  0.672  0.351-   4 2.58  28 2.60  17 2.67
  51  0.240  0.002  0.651-   9 2.48  31 2.68  12 2.77
  52  0.914  0.678  0.658-  20 2.49  19 2.72  11 2.78
  53  0.912  0.856  0.137-   8 2.55  23 2.70   1 2.70
  54  0.260  0.194  0.128-  24 2.59  25 2.62  18 2.70
  55  0.903  0.177  0.147-   1 2.56  26 2.58   6 2.62
  56  0.741  0.351  0.381-   6 2.62   3 2.71  27 2.73
  57  0.073  0.168  0.846-   9 2.46  29 2.57  35 2.84
  58  0.082  0.528  0.857-  10 2.55  30 2.57  20 2.84
  59  0.085  0.848  0.873-  31 2.55  11 2.77
  60  0.411  0.177  0.861-  32 2.56  29 2.78  12 2.78
  61  0.428  0.498  0.852-  33 2.60  13 2.79  32 2.83
  62  0.418  0.856  0.875-  14 2.59  34 2.61  31 2.62
  63  0.747  0.173  0.854-  15 2.54  35 2.68
  64  0.733  0.510  0.864-  33 2.56  20 2.68  16 2.69
  65  0.727  0.846  0.867-  21 2.53  19 2.63  34 2.67
  66  0.225  0.511  0.173-  17 2.48  25 2.64  22 2.69
  67  0.250  0.856  0.153-   2 2.51  23 2.59  28 2.64
  68  0.579  0.190  0.127-   3 2.52  26 2.58  24 2.65
  69  0.585  0.515  0.165-   4 2.44  27 2.63  36 2.81
  70  0.572  0.841  0.136-   5 2.49  36 2.57  28 2.80
  71  0.912  0.522  0.139-   7 2.48  22 2.64
  72  0.757  0.680  0.359-  36 2.62   7 2.63   8 2.76
 

IMPORTANT INFORMATION: All symmetrisations will be switched off!
NOSYMM: (Re-)initialisation of all symmetry stuff for point group C_1.


----------------------------------------------------------------------------------------

                                     Primitive cell                                     

  volume of cell :    1720.6152

  direct lattice vectors                    reciprocal lattice vectors
    12.435195520 -0.000001076 -0.000002439     0.080416910  0.000000007  0.000000020
    -0.000001083 12.509406566  0.000001446     0.000000007  0.079939843 -0.000000012
    -0.000002793  0.000001646 11.061000948     0.000000018 -0.000000010  0.090407731

  length of vectors
    12.435195520 12.509406566 11.061000948     0.080416910  0.079939843  0.090407731

  position of ions in fractional coordinates (direct lattice)
     0.040759283  0.028322190  0.112315486
     0.227702553  0.882537592  0.376475790
     0.567100052  0.223361252  0.351452440
     0.526492445  0.524678447  0.375654551
     0.569080790  0.860260434  0.360161239
     0.893900679  0.207179213  0.380421976
     0.910155902  0.535284156  0.363557393
     0.887554347  0.857849934  0.365665539
     0.096095438  0.138250961  0.627602037
     0.082121015  0.477268100  0.633488964
     0.097712226  0.802259299  0.627553834
     0.417394146  0.131126808  0.614764692
     0.412790535  0.460950837  0.603158507
     0.426564723  0.811277180  0.646646847
     0.747780256  0.137138742  0.627577787
     0.746323346  0.472595197  0.624924798
     0.220029442  0.538830494  0.394766398
     0.201440021  0.181958028  0.362617548
     0.744953488  0.814484353  0.633100228
     0.892544349  0.653217055  0.879787770
     0.884143112  0.975428394  0.871595071
     0.064624842  0.378444254  0.106224232
     0.087238061  0.730331865  0.121492018
     0.414748417  0.055322085  0.130855239
     0.377471375  0.367808397  0.137059152
     0.736246005  0.054768704  0.127468029
     0.737509245  0.372166920  0.135709796
     0.394714033  0.703762868  0.118163171
     0.227207781  0.302899904  0.875130395
     0.238744689  0.657747232  0.888518068
     0.244478936  0.975377770  0.891237883
     0.561846144  0.314823170  0.851156132
     0.576611626  0.642865080  0.864260207
     0.574224038  0.995257558  0.883490010
     0.903710792  0.318867220  0.870624589
     0.715906490  0.694009579  0.127374639
     0.918384971  0.997301246  0.645575988
     0.242475155  0.339802196  0.647033869
     0.266322296  0.668920457  0.666161652
     0.573862001  0.013902818  0.642875580
     0.578413682  0.329646894  0.623189899
     0.582194933  0.677719443  0.635954111
     0.916952868  0.336051843  0.646556082
     0.727951998  0.995305281  0.354159236
     0.080470814  0.020553068  0.335942185
     0.060307717  0.336708542  0.353984968
     0.084019844  0.689653361  0.368347658
     0.413821629  0.011417086  0.356455604
     0.406869858  0.346958463  0.361820887
     0.383460833  0.671959268  0.350500286
     0.239670955  0.001678476  0.650546031
     0.913903102  0.678461324  0.657731913
     0.911641035  0.856254145  0.137007100
     0.259687076  0.193996230  0.128024560
     0.903017728  0.176923559  0.146664233
     0.740971151  0.350822585  0.381443568
     0.073026176  0.168361369  0.846169298
     0.081557993  0.527758517  0.857230896
     0.084973580  0.847885479  0.872544030
     0.410510835  0.176763059  0.860984615
     0.427772416  0.497841252  0.851730924
     0.417565308  0.856162443  0.874782782
     0.746941962  0.172814488  0.853914595
     0.733440337  0.509784601  0.863875220
     0.727051610  0.846439426  0.867168455
     0.224639013  0.510755933  0.172855588
     0.250241728  0.855590295  0.152781601
     0.579444422  0.189836421  0.127269469
     0.584703123  0.514575468  0.165253822
     0.571771306  0.841336500  0.136138317
     0.912177138  0.522343051  0.139389529
     0.756909761  0.679888179  0.358801083

  ion indices of the primitive-cell ions
   primitive index   ion index
                 1           1
                 2           2
                 3           3
                 4           4
                 5           5
                 6           6
                 7           7
                 8           8
                 9           9
                10          10
                11          11
                12          12
                13          13
                14          14
                15          15
                16          16
                17          17
                18          18
                19          19
                20          20
                21          21
                22          22
                23          23
                24          24
                25          25
                26          26
                27          27
                28          28
                29          29
                30          30
                31          31
                32          32
                33          33
                34          34
                35          35
                36          36
                37          37
                38          38
                39          39
                40          40
                41          41
                42          42
                43          43
                44          44
                45          45
                46          46
                47          47
                48          48
                49          49
                50          50
                51          51
                52          52
                53          53
                54          54
                55          55
                56          56
                57          57
                58          58
                59          59
                60          60
                61          61
                62          62
                63          63
                64          64
                65          65
                66          66
                67          67
                68          68
                69          69
                70          70
                71          71
                72          72

----------------------------------------------------------------------------------------

 
 
 KPOINTS: KPOINTS created by Atomic Simulation Env

Automatic generation of k-mesh.
 Grid dimensions read from file:
 generate k-points for:    2    2    2

 Generating k-lattice:

  Cartesian coordinates                     Fractional coordinates (reciprocal lattice)
     0.040208455  0.000000003  0.000000010     0.500000000 -0.000000000  0.000000000
     0.000000003  0.039969922 -0.000000006    -0.000000000  0.500000000  0.000000000
     0.000000009 -0.000000005  0.045203866     0.000000000  0.000000000  0.500000000

  Length of vectors
     0.040208455  0.039969922  0.045203866

  Shift w.r.t. Gamma in fractional coordinates (k-lattice)
     0.000000000  0.000000000  0.000000000

 
 Subroutine IBZKPT returns following result:
 ===========================================
 
 Found      8 irreducible k-points:
 
 Following reciprocal coordinates:
            Coordinates               Weight
  0.000000  0.000000  0.000000      1.000000
  0.500000  0.000000  0.000000      1.000000
  0.000000  0.500000  0.000000      1.000000
  0.500000  0.500000  0.000000      1.000000
  0.000000  0.000000  0.500000      1.000000
  0.500000  0.000000  0.500000      1.000000
  0.000000  0.500000  0.500000      1.000000
  0.500000  0.500000  0.500000      1.000000
 
 Following cartesian coordinates:
            Coordinates               Weight
  0.000000  0.000000  0.000000      1.000000
  0.040208  0.000000  0.000000      1.000000
  0.000000  0.039970 -0.000000      1.000000
  0.040208  0.039970  0.000000      1.000000
  0.000000 -0.000000  0.045204      1.000000
  0.040208 -0.000000  0.045204      1.000000
  0.000000  0.039970  0.045204      1.000000
  0.040208  0.039970  0.045204      1.000000
 
 -----------------------------------------------------------------------------
|                                                                             |
|           W    W    AA    RRRRR   N    N  II  N    N   GGGG   !!!           |
|           W    W   A  A   R    R  NN   N  II  NN   N  G    G  !!!           |
|           W    W  A    A  R    R  N N  N  II  N N  N  G       !!!           |
|           W WW W  AAAAAA  RRRRR   N  N N  II  N  N N  G  GGG   !            |
|           WW  WW  A    A  R   R   N   NN  II  N   NN  G    G                |
|           W    W  A    A  R    R  N    N  II  N    N   GGGG   !!!           |
|                                                                             |
|     The number of bands has been changed from the values supplied in        |
|     the INCAR file. This is a result of running the parallel version.       |
|     The orbitals not found in the WAVECAR file will be initialized with     |
|     random numbers, which is usually adequate. For correlated               |
|     calculations, however, you should redo the groundstate calculation.     |
|     I found NBANDS = 220. Now, NBANDS = 224.                                |
|                                                                             |
 -----------------------------------------------------------------------------



--------------------------------------------------------------------------------------------------------




 Dimension of arrays:
   k-points           NKPTS =      8   k-points in BZ     NKDIM =      8   number of bands    NBANDS=    224
   number of dos      NEDOS =    301   number of ions     NIONS =     72
   non local maximal  LDIM  =      5   non local SUM 2l+1 LMDIM =     13
   total plane-waves  NPLWV = 774144
   max r-space proj   IRMAX =      1   max aug-charges    IRDMAX=  24650
   dimension x,y,z NGX =    96 NGY =   96 NGZ =   84
   dimension x,y,z NGXF=   192 NGYF=  192 NGZF=  168
   support grid    NGXF=   192 NGYF=  192 NGZF=  168
   ions per type =              36  36
   NGX,Y,Z   is equivalent  to a cutoff of  12.83, 12.76, 12.63 a.u.
   NGXF,Y,Z  is equivalent  to a cutoff of  25.67, 25.52, 25.25 a.u.

 SYSTEM =  01_AOPT                                 
 POSCAR =  Ge Se                                   

 Startparameter for this run:
   NWRITE =      2    write-flag & timer
   PREC   = accura    normal or accurate (medium, high low for compatibility)
   ISTART =      0    job   : 0-new  1-cont  2-samecut
   ICHARG =      2    charge: 1-file 2-atom 10-const
   ISPIN  =      2    spin polarized calculation?
   LNONCOLLINEAR =      F non collinear calculations
   LSORBIT =      F    spin-orbit coupling
   INIWAV =      1    electr: 0-lowe 1-rand  2-diag
   LASPH  =      T    aspherical Exc in radial PAW
 Electronic Relaxation 1
   ENCUT  =  520.0 eV  38.22 Ry    6.18 a.u.  23.12 23.26 20.57*2*pi/ulx,y,z
   ENINI  =  520.0     initial cutoff
   ENAUG  =  446.8 eV  augmentation charge cutoff
   NELM   =    100;   NELMIN=  5; NELMDL=  0     # of ELM steps 
   EDIFF  = 0.1E-05   stopping-criterion for ELM
   LREAL  =      F    real-space projection
   NLSPLINE    = F    spline interpolate recip. space projectors
   LCOMPAT=      F    compatible to vasp.4.4
   GGA_COMPAT  = T    GGA compatible to vasp.4.4-vasp.4.6
   LMAXPAW     = -100 max onsite density
   LMAXMIX     =    2 max onsite mixed and CHGCAR
   VOSKOWN=      0    Vosko Wilk Nusair interpolation
   ROPT   =    0.00000   0.00000
 Ionic relaxation
   EDIFFG = 0.1E-04   stopping-criterion for IOM
   NSW    =      0    number of steps for IOM
   NBLOCK =      1;   KBLOCK =      1    inner block; outer block 
   IBRION =     -1    ionic relax: 0-MD 1-quasi-New 2-CG
   NFREE  =      0    steps in history (QN), initial steepest desc. (CG)
   ISIF   =      2    stress and relaxation
   IWAVPR =     10    prediction:  0-non 1-charg 2-wave 3-comb
   ISYM   =     -1    0-nonsym 1-usesym 2-fastsym
   LCORR  =      T    Harris-Foulkes like correction to forces

   POTIM  = 0.5000    time-step for ionic-motion
   TEIN   =    0.0    initial temperature
   TEBEG  =    0.0;   TEEND  =   0.0 temperature during run
   SMASS  =  -3.00    Nose mass-parameter (am)
   estimated Nose-frequenzy (Omega)   =  0.10E-29 period in steps = 0.13E+47 mass=  -0.353E-26a.u.
   SCALEE = 1.0000    scale energy and forces
   NPACO  =    256;   APACO  = 10.0  distance and # of slots for P.C.
   PSTRESS=    0.0 pullay stress

  Mass of Ions in am
   POMASS =  72.61 78.96
  Ionic Valenz
   ZVAL   =   4.00  6.00
  Atomic Wigner-Seitz radii
   RWIGS  =  -1.00 -1.00
  virtual crystal weights 
   VCA    =   1.00  1.00
   NELECT =     360.0000    total number of electrons
   NUPDOWN=      -1.0000    fix difference up-down

 DOS related values:
   EMIN   =  10.00;   EMAX   =-10.00  energy-range for DOS
   EFERMI =   0.00;   METHOD = LEGACY      
   ISMEAR =     0;   SIGMA  =   0.05  broadening in eV -4-tet -1-fermi 0-gaus

 Electronic relaxation 2 (details)
   IALGO  =     38    algorithm
   LDIAG  =      T    sub-space diagonalisation (order eigenvalues)
   LSUBROT=      F    optimize rotation matrix (better conditioning)
   TURBO    =      0    0=normal 1=particle mesh
   IRESTART =      0    0=no restart 2=restart with 2 vectors
   NREBOOT  =      0    no. of reboots
   NMIN     =      0    reboot dimension
   EREF     =   0.00    reference energy to select bands
   IMIX   =      4    mixing-type and parameters
     AMIX     =   0.40;   BMIX     =  1.00
     AMIX_MAG =   1.60;   BMIX_MAG =  1.00
     AMIN     =   0.10
     WC   =   100.;   INIMIX=   1;  MIXPRE=   1;  MAXMIX= -45

 Intra band minimization:
   WEIMIN = 0.0000     energy-eigenvalue tresh-hold
   EBREAK =  0.11E-08  absolut break condition
   DEPER  =   0.30     relativ break condition  

   TIME   =   0.40     timestep for ELM

  volume/ion in A,a.u.               =      23.90       161.27
  Fermi-wavevector in a.u.,A,eV,Ry     =   0.971884  1.836594 12.851498  0.944558
  Thomas-Fermi vector in A             =   2.102137
 
 Write flags
   LWAVE        =      F    write WAVECAR
   LDOWNSAMPLE  =      F    k-point downsampling of WAVECAR
   LCHARG       =      F    write CHGCAR
   LVTOT        =      F    write LOCPOT, total local potential
   LVHAR        =      F    write LOCPOT, Hartree potential only
   LELF         =      F    write electronic localiz. function (ELF)
   LORBIT       =     11    0 simple, 1 ext, 2 COOP (PROOUT), +10 PAW based schemes


 Dipole corrections
   LMONO  =      F    monopole corrections only (constant potential shift)
   LDIPOL =      F    correct potential (dipole corrections)
   IDIPOL =      0    1-x, 2-y, 3-z, 4-all directions 
   EPSILON=  1.0000000 bulk dielectric constant

 Exchange correlation treatment:
   GGA     =    PE    GGA type
   LEXCH   =     8    internal setting for exchange type
   LIBXC   =     F    Libxc                    
   VOSKOWN =     0    Vosko Wilk Nusair interpolation
   LHFCALC =     F    Hartree Fock is set to
   LHFONE  =     F    Hartree Fock one center treatment
   AEXX    =    0.0000 exact exchange contribution

 Linear response parameters
   LEPSILON=     F    determine dielectric tensor
   LRPA    =     F    only Hartree local field effects (RPA)
   LNABLA  =     F    use nabla operator in PAW spheres
   LVEL    =     F    velocity operator in full k-point grid
   CSHIFT  =0.1000    complex shift for real part using Kramers Kronig
   OMEGAMAX=  -1.0    maximum frequency
   DEG_THRESHOLD= 0.2000000E-02 threshold for treating states as degnerate
   RTIME   =   -0.100 relaxation time in fs
  (WPLASMAI=    0.000 imaginary part of plasma frequency in eV, 0.658/RTIME)
   DFIELD  = 0.0000000 0.0000000 0.0000000 field for delta impulse in time
 
  Optional k-point grid parameters
   LKPOINTS_OPT  =     F    use optional k-point grid
   KPOINTS_OPT_MODE=     1    mode for optional k-point grid
 
 Orbital magnetization related:
   ORBITALMAG=     F  switch on orbital magnetization
   LCHIMAG   =     F  perturbation theory with respect to B field
   DQ        =  0.001000  dq finite difference perturbation B field
   LLRAUG    =     F  two centre corrections for induced B field
   LBONE     =     F  B-component reconstruction in AE one-centre
   LVGVCALC  =     T  calculate vGv susceptibility
   LVGVAPPL  =     F  apply vGv susceptibility instead of pGv for G=0

 Random number generation:
   RANDOM_GENERATOR = DEFAULT
   PCG_SEED         = not used


--------------------------------------------------------------------------------------------------------


 Static calculation
 charge density and potential will be updated during run
 spin polarized calculation
 Variant of blocked Davidson
 Davidson routine will perform the subspace rotation
 perform sub-space diagonalisation
    after iterative eigenvector-optimisation
 modified Broyden-mixing scheme, WC =      100.0
 initial mixing is a Kerker type mixing with AMIX =  0.4000 and BMIX =      1.0000
 Hartree-type preconditioning will be used
 using additional bands            44
 reciprocal scheme for non local part
 use partial core corrections
 calculate Harris-corrections to forces 
   (improved forces if not selfconsistent)
 use gradient corrections 
 use of overlap-Matrix (Vanderbilt PP)
 Gauss-broadening in eV      SIGMA  =   0.05


--------------------------------------------------------------------------------------------------------


  energy-cutoff  :      520.00
  volume of cell :     1720.62
      direct lattice vectors                 reciprocal lattice vectors
    12.435195520 -0.000001076 -0.000002439     0.080416910  0.000000007  0.000000020
    -0.000001083 12.509406566  0.000001446     0.000000007  0.079939843 -0.000000012
    -0.000002793  0.000001646 11.061000948     0.000000018 -0.000000010  0.090407731

  length of vectors
    12.435195520 12.509406566 11.061000948     0.080416910  0.079939843  0.090407731


 
 k-points in units of 2pi/SCALE and weight: KPOINTS created by Atomic Simulation Env
   0.00000000  0.00000000  0.00000000       0.125
   0.04020846  0.00000000  0.00000001       0.125
   0.00000000  0.03996992 -0.00000001       0.125
   0.04020846  0.03996993  0.00000000       0.125
   0.00000001 -0.00000001  0.04520387       0.125
   0.04020846 -0.00000000  0.04520388       0.125
   0.00000001  0.03996992  0.04520386       0.125
   0.04020847  0.03996992  0.04520387       0.125
 
 k-points in reciprocal lattice and weights: KPOINTS created by Atomic Simulation Env
   0.00000000  0.00000000  0.00000000       0.125
   0.50000000  0.00000000  0.00000000       0.125
   0.00000000  0.50000000  0.00000000       0.125
   0.50000000  0.50000000  0.00000000       0.125
   0.00000000  0.00000000  0.50000000       0.125
   0.50000000  0.00000000  0.50000000       0.125
   0.00000000  0.50000000  0.50000000       0.125
   0.50000000  0.50000000  0.50000000       0.125
 
 position of ions in fractional coordinates (direct lattice) 
   0.04075928  0.02832219  0.11231549
   0.22770255  0.88253759  0.37647579
   0.56710005  0.22336125  0.35145244
   0.52649244  0.52467845  0.37565455
   0.56908079  0.86026043  0.36016124
   0.89390068  0.20717921  0.38042198
   0.91015590  0.53528416  0.36355739
   0.88755435  0.85784993  0.36566554
   0.09609544  0.13825096  0.62760204
   0.08212102  0.47726810  0.63348896
   0.09771223  0.80225930  0.62755383
   0.41739415  0.13112681  0.61476469
   0.41279054  0.46095084  0.60315851
   0.42656472  0.81127718  0.64664685
   0.74778026  0.13713874  0.62757779
   0.74632335  0.47259520  0.62492480
   0.22002944  0.53883049  0.39476640
   0.20144002  0.18195803  0.36261755
   0.74495349  0.81448435  0.63310023
   0.89254435  0.65321706  0.87978777
   0.88414311  0.97542839  0.87159507
   0.06462484  0.37844425  0.10622423
   0.08723806  0.73033186  0.12149202
   0.41474842  0.05532208  0.13085524
   0.37747137  0.36780840  0.13705915
   0.73624600  0.05476870  0.12746803
   0.73750924  0.37216692  0.13570980
   0.39471403  0.70376287  0.11816317
   0.22720778  0.30289990  0.87513040
   0.23874469  0.65774723  0.88851807
   0.24447894  0.97537777  0.89123788
   0.56184614  0.31482317  0.85115613
   0.57661163  0.64286508  0.86426021
   0.57422404  0.99525756  0.88349001
   0.90371079  0.31886722  0.87062459
   0.71590649  0.69400958  0.12737464
   0.91838497  0.99730125  0.64557599
   0.24247515  0.33980220  0.64703387
   0.26632230  0.66892046  0.66616165
   0.57386200  0.01390282  0.64287558
   0.57841368  0.32964689  0.62318990
   0.58219493  0.67771944  0.63595411
   0.91695287  0.33605184  0.64655608
   0.72795200  0.99530528  0.35415924
   0.08047081  0.02055307  0.33594218
   0.06030772  0.33670854  0.35398497
   0.08401984  0.68965336  0.36834766
   0.41382163  0.01141709  0.35645560
   0.40686986  0.34695846  0.36182089
   0.38346083  0.67195927  0.35050029
   0.23967095  0.00167848  0.65054603
   0.91390310  0.67846132  0.65773191
   0.91164104  0.85625414  0.13700710
   0.25968708  0.19399623  0.12802456
   0.90301773  0.17692356  0.14666423
   0.74097115  0.35082258  0.38144357
   0.07302618  0.16836137  0.84616930
   0.08155799  0.52775852  0.85723090
   0.08497358  0.84788548  0.87254403
   0.41051084  0.17676306  0.86098462
   0.42777242  0.49784125  0.85173092
   0.41756531  0.85616244  0.87478278
   0.74694196  0.17281449  0.85391460
   0.73344034  0.50978460  0.86387522
   0.72705161  0.84643943  0.86716846
   0.22463901  0.51075593  0.17285559
   0.25024173  0.85559030  0.15278160
   0.57944442  0.18983642  0.12726947
   0.58470312  0.51457547  0.16525382
   0.57177131  0.84133650  0.13613832
   0.91217714  0.52234305  0.13938953
   0.75690976  0.67988818  0.35880108
 
 position of ions in cartesian coordinates  (Angst):
   0.50684931  0.35429394  1.24232163
   2.83152376 11.04002192  4.16419979
   7.05199881  2.79411668  3.88741471
   6.54703487  6.56341606  4.15511482
   7.07662895 10.76134750  3.98374367
  11.11582844  2.59168867  4.20784595
  11.31796500  6.69608675  4.02130723
  11.03690988 10.73119324  4.04462595
   1.19496366  1.72943841  6.94190670
   1.02118860  5.97034166  7.00702252
   1.21506801 10.03578867  6.94137448
   5.19037595  1.64031912  6.79991202
   5.13312883  5.76622197  6.67153647
   5.30441305 10.14859669  7.15256152
   9.29879179  1.71552451  6.94163688
   9.28067447  5.91188568  6.91229265
   2.73610744  6.74045013  4.36651175
   2.50494484  2.27618733  4.01091281
   9.26363963 10.18871615  7.00272159
  11.09896032  8.17135821  9.73133213
  10.99448898 12.20203084  9.64071316
   0.80362184  4.73411314  1.17494672
   1.08482121  9.13601833  1.34382416
   5.15747723  0.69204622  1.44738899
   4.69392957  4.60106460  1.51601103
   9.15536261  0.68512340  1.40992228
   9.17107087  4.65558674  1.50108492
   4.90834508  8.80365561  1.30700300
   2.82537041  3.78909924  9.67981802
   2.96883369  8.22802875  9.82789956
   3.04013982 12.20139828  9.85798388
   6.98666393  3.93825182  9.41463787
   7.17027519  8.04186145  9.55958250
   7.14058463 12.45008226  9.77228387
  11.23781761  3.98884016  9.62997766
   8.90243607  8.68164743  1.40889026
  11.42029379 12.47564683  7.14071582
   3.01522378  4.25072463  7.15684214
   3.31176724  8.36779876  7.36841498
   7.13608437  0.17391644  7.11084602
   7.19268513  4.12368742  6.89310313
   7.23970531  8.47786847  7.03428858
  11.40248603  4.20380921  7.15155568
   9.05222336 12.45067821  3.91735531
   1.00066934  0.25710716  3.71585666
   0.74993689  4.21202457  3.91542841
   1.04480141  8.62715480  4.07429459
   5.14595186  0.14282111  3.94275478
   5.05950485  4.34024464  4.00210069
   4.76840873  8.40581184  3.87688404
   2.98035336  0.02099756  7.19568968
  11.36456119  8.48714864  7.27517207
  11.33643321 10.71123047  1.51543467
   3.22925900  2.42677764  1.41607943
  11.22920141  2.21320800  1.62225127
   9.21411969  4.38858218  4.21914636
   0.90809223  2.10610213  9.35947947
   1.01418662  6.60194718  9.48183232
   1.05665973 10.60654552  9.65121136
   5.10477990  2.21120195  9.52335090
   5.31943071  6.22769956  9.42099623
   5.19250288 10.71008508  9.67597340
   9.28836676  2.16180729  9.44514858
   9.12047102  6.37710347  9.55532357
   9.04102558 10.58845556  9.59175056
   2.79342902  6.38925367  1.91195601
   3.11180347 10.70292684  1.68991806
   7.20550412  2.37474055  1.40772658
   7.27089664  6.43703338  1.82787200
   7.11008670 10.52461995  1.50582588
  11.34310011  6.53420084  1.54178624
   9.41231913  8.50499743  3.96869826
 


--------------------------------------------------------------------------------------------------------


 k-point   1 :   0.0000 0.0000 0.0000  plane waves:   46301
 k-point   2 :   0.5000 0.0000 0.0000  plane waves:   46370
 k-point   3 :   0.0000 0.5000 0.0000  plane waves:   46314
 k-point   4 :   0.5000 0.5000 0.0000  plane waves:   46424
 k-point   5 :   0.0000 0.0000 0.5000  plane waves:   46314
 k-point   6 :   0.5000 0.0000 0.5000  plane waves:   46316
 k-point   7 :   0.0000 0.5000 0.5000  plane waves:   46336
 k-point   8 :   0.5000 0.5000 0.5000  plane waves:   46312

 maximum and minimum number of plane-waves per node :      5872     5745

 maximum number of plane-waves:     46424
 maximum index in each direction: 
   IXMAX=   23   IYMAX=   23   IZMAX=   20
   IXMIN=  -23   IYMIN=  -23   IZMIN=  -21


 parallel 3D FFT for wavefunctions:
    minimum data exchange during FFTs selected (reduces bandwidth)
 parallel 3D FFT for charge:
    minimum data exchange during FFTs selected (reduces bandwidth)


 total amount of memory used by VASP MPI-rank0   110764. kBytes
=======================================================================

   base      :      30000. kBytes
   nonl-proj :      16355. kBytes
   fftplans  :       6179. kBytes
   grid      :      15593. kBytes
   one-center:        146. kBytes
   wavefun   :      42491. kBytes
 
     INWAV:  cpu time      0.0000: real time      0.0001
 Broyden mixing: mesh for mixing (old mesh)
   NGX = 47   NGY = 47   NGZ = 41
  (NGX  =192   NGY  =192   NGZ  =168)
  gives a total of  90569 points

 initial charge density was supplied:
 charge density of overlapping atoms calculated
 number of electron     360.0000000 magnetization      72.0000000
 keeping initial charge density in first step


--------------------------------------------------------------------------------------------------------


 Maximum index for augmentation-charges           801 (set IRDMAX)


--------------------------------------------------------------------------------------------------------


 First call to EWALD:  gamma=   0.148
 Maximum number of real-space cells 3x 3x 3
 Maximum number of reciprocal cells 3x 3x 3

    FEWALD:  cpu time      0.0024: real time      0.0024


--------------------------------------- Ionic step        1  -------------------------------------------




--------------------------------------- Iteration      1(   1)  ---------------------------------------


    POTLOK:  cpu time      0.1414: real time      0.1428
    SETDIJ:  cpu time      0.6340: real time      0.6357
     EDDAV:  cpu time      8.7177: real time      8.7623
       DOS:  cpu time      0.0016: real time      0.0016
    --------------------------------------------
      LOOP:  cpu time      9.4947: real time      9.5423

 eigenvalue-minimisations  :  7168
 total energy-change (2. order) : 0.1810811E+04  (-0.1419122E+05)
 number of electron     360.0000000 magnetization      72.0000000
 augmentation part      360.0000000 magnetization      72.0000000

 Free energy of the ion-electron system (eV)
  ---------------------------------------------------
  alpha Z        PSCENC =       797.67985311
  Ewald energy   TEWEN  =    -12875.32277284
  -Hartree energ DENC   =     -1104.82369265
  -exchange      EXHF   =         0.00000000
  -V(xc)+E(xc)   XCENC  =      -293.75556247
  PAW double counting   =     10738.42099860    -9719.93139476
  entropy T*S    EENTRO =        -0.02326759
  eigenvalues    EBANDS =      1232.11585726
  atomic energy  EATOM  =     13036.45147835
  Solvation  Ediel_sol  =         0.00000000
  ---------------------------------------------------
  free energy    TOTEN  =      1810.81149701 eV

  energy without entropy =     1810.83476460  energy(sigma->0) =     1810.82313081


--------------------------------------------------------------------------------------------------------




--------------------------------------- Iteration      1(   2)  ---------------------------------------


     EDDAV:  cpu time      9.8242: real time      9.8821
       DOS:  cpu time      0.0013: real time      0.0013
    --------------------------------------------
      LOOP:  cpu time      9.8255: real time      9.8834

 eigenvalue-minimisations  :  8472
 total energy-change (2. order) :-0.1875156E+04  (-0.1800360E+04)
 number of electron     360.0000000 magnetization      72.0000000
 augmentation part      360.0000000 magnetization      72.0000000

 Free energy of the ion-electron system (eV)
  ---------------------------------------------------
  alpha Z        PSCENC =       797.67985311
  Ewald energy   TEWEN  =    -12875.32277284
  -Hartree energ DENC   =     -1104.82369265
  -exchange      EXHF   =         0.00000000
  -V(xc)+E(xc)   XCENC  =      -293.75556247
  PAW double counting   =     10738.42099860    -9719.93139476
  entropy T*S    EENTRO =        -0.01732049
  eigenvalues    EBANDS =      -643.04636134
  atomic energy  EATOM  =     13036.45147835
  Solvation  Ediel_sol  =         0.00000000
  ---------------------------------------------------
  free energy    TOTEN  =       -64.34477449 eV

  energy without entropy =      -64.32745400  energy(sigma->0) =      -64.33611424


--------------------------------------------------------------------------------------------------------




--------------------------------------- Iteration      1(   3)  ---------------------------------------


     EDDAV:  cpu time      9.9196: real time      9.9811
       DOS:  cpu time      0.0014: real time      0.0014
    --------------------------------------------
      LOOP:  cpu time      9.9210: real time      9.9826

 eigenvalue-minimisations  :  8552
 total energy-change (2. order) :-0.2173428E+03  (-0.2114056E+03)
 number of electron     360.0000000 magnetization      72.0000000
 augmentation part      360.0000000 magnetization      72.0000000

 Free energy of the ion-electron system (eV)
  ---------------------------------------------------
  alpha Z        PSCENC =       797.67985311
  Ewald energy   TEWEN  =    -12875.32277284
  -Hartree energ DENC   =     -1104.82369265
  -exchange      EXHF   =         0.00000000
  -V(xc)+E(xc)   XCENC  =      -293.75556247
  PAW double counting   =     10738.42099860    -9719.93139476
  entropy T*S    EENTRO =        -0.00000653
  eigenvalues    EBANDS =      -860.40646423
  atomic energy  EATOM  =     13036.45147835
  Solvation  Ediel_sol  =         0.00000000
  ---------------------------------------------------
  free energy    TOTEN  =      -281.68756341 eV

  energy without entropy =     -281.68755688  energy(sigma->0) =     -281.68756015


--------------------------------------------------------------------------------------------------------




--------------------------------------- Iteration      1(   4)  ---------------------------------------


     EDDAV:  cpu time     10.1687: real time     10.2211
       DOS:  cpu time      0.0012: real time      0.0012
    --------------------------------------------
      LOOP:  cpu time     10.1699: real time     10.2223

 eigenvalue-minimisations  :  8848
 total energy-change (2. order) :-0.8049206E+01  (-0.7958591E+01)
 number of electron     360.0000000 magnetization      72.0000000
 augmentation part      360.0000000 magnetization      72.0000000

 Free energy of the ion-electron system (eV)
  ---------------------------------------------------
  alpha Z        PSCENC =       797.67985311
  Ewald energy   TEWEN  =    -12875.32277284
  -Hartree energ DENC   =     -1104.82369265
  -exchange      EXHF   =         0.00000000
  -V(xc)+E(xc)   XCENC  =      -293.75556247
  PAW double counting   =     10738.42099860    -9719.93139476
  entropy T*S    EENTRO =        -0.00000109
  eigenvalues    EBANDS =      -868.45567541
  atomic energy  EATOM  =     13036.45147835
  Solvation  Ediel_sol  =         0.00000000
  ---------------------------------------------------
  free energy    TOTEN  =      -289.73676915 eV

  energy without entropy =     -289.73676806  energy(sigma->0) =     -289.73676861


--------------------------------------------------------------------------------------------------------




--------------------------------------- Iteration      1(   5)  ---------------------------------------


     EDDAV:  cpu time     10.2441: real time     10.2975
       DOS:  cpu time      0.0009: real time      0.0009
    CHARGE:  cpu time      0.4191: real time      0.4209
    MIXING:  cpu time      0.0072: real time      0.0073
    --------------------------------------------
      LOOP:  cpu time     10.6714: real time     10.7266

 eigenvalue-minimisations  :  9032
 total energy-change (2. order) :-0.2724758E+00  (-0.2717046E+00)
 number of electron     359.9999993 magnetization      48.7920596
 augmentation part      -66.8113830 magnetization      49.0062564

 Broyden mixing:
  rms(total) = 0.29082E+01    rms(broyden)= 0.29082E+01
  rms(prec ) = 0.30630E+01
  weight for this iteration     100.00

 Free energy of the ion-electron system (eV)
  ---------------------------------------------------
  alpha Z        PSCENC =       797.67985311
  Ewald energy   TEWEN  =    -12875.32277284
  -Hartree energ DENC   =     -1104.82369265
  -exchange      EXHF   =         0.00000000
  -V(xc)+E(xc)   XCENC  =      -293.75556247
  PAW double counting   =     10738.42099860    -9719.93139476
  entropy T*S    EENTRO =        -0.00000127
  eigenvalues    EBANDS =      -868.72815097
  atomic energy  EATOM  =     13036.45147835
  Solvation  Ediel_sol  =         0.00000000
  ---------------------------------------------------
  free energy    TOTEN  =      -290.00924490 eV

  energy without entropy =     -290.00924363  energy(sigma->0) =     -290.00924426


--------------------------------------------------------------------------------------------------------




--------------------------------------- Iteration      1(   6)  ---------------------------------------


    POTLOK:  cpu time      0.1359: real time      0.1372
    SETDIJ:  cpu time      0.6322: real time      0.6344
     EDDAV:  cpu time      9.3262: real time      9.3782
       DOS:  cpu time      0.0015: real time      0.0015
    CHARGE:  cpu time      0.4258: real time      0.4274
    MIXING:  cpu time      0.0072: real time      0.0072
    --------------------------------------------
      LOOP:  cpu time     10.5288: real time     10.5859

 eigenvalue-minimisations  :  7904
 total energy-change (2. order) : 0.3043365E+00  (-0.2660231E+01)
 number of electron     359.9999993 magnetization      27.9392040
 augmentation part      -66.2015722 magnetization      29.1202632

 Broyden mixing:
  rms(total) = 0.17205E+01    rms(broyden)= 0.17205E+01
  rms(prec ) = 0.17572E+01
  weight for this iteration     100.00

 eigenvalues of (default mixing * dielectric matrix)
  average eigenvalue GAMMA=   1.0069
  1.0069

 Free energy of the ion-electron system (eV)
  ---------------------------------------------------
  alpha Z        PSCENC =       797.67985311
  Ewald energy   TEWEN  =    -12875.32277284
  -Hartree energ DENC   =     -1157.99223629
  -exchange      EXHF   =         0.00000000
  -V(xc)+E(xc)   XCENC  =      -287.25703193
  PAW double counting   =     13011.41969563   -11996.42699191
  entropy T*S    EENTRO =        -0.00000062
  eigenvalues    EBANDS =      -818.25690187
  atomic energy  EATOM  =     13036.45147835
  Solvation  Ediel_sol  =         0.00000000
  ---------------------------------------------------
  free energy    TOTEN  =      -289.70490837 eV

  energy without entropy =     -289.70490775  energy(sigma->0) =     -289.70490806


--------------------------------------------------------------------------------------------------------




--------------------------------------- Iteration      1(   7)  ---------------------------------------


    POTLOK:  cpu time      0.1319: real time      0.1326
    SETDIJ:  cpu time      0.6313: real time      0.6332
     EDDAV:  cpu time      9.3311: real time      9.3804
       DOS:  cpu time      0.0008: real time      0.0008
    CHARGE:  cpu time      0.4186: real time      0.4205
    MIXING:  cpu time      0.0074: real time      0.0075
    --------------------------------------------
      LOOP:  cpu time     10.5211: real time     10.5749

 eigenvalue-minimisations  :  7976
 total energy-change (2. order) :-0.7258985E+01  (-0.8581121E+00)
 number of electron     359.9999993 magnetization       9.1193440
 augmentation part      -66.1943913 magnetization       9.7925234

 Broyden mixing:
  rms(total) = 0.90770E+00    rms(broyden)= 0.90770E+00
  rms(prec ) = 0.92370E+00
  weight for this iteration     100.00

 eigenvalues of (default mixing * dielectric matrix)
  average eigenvalue GAMMA=   1.4559
  0.8621  2.0497

 Free energy of the ion-electron system (eV)
  ---------------------------------------------------
  alpha Z        PSCENC =       797.67985311
  Ewald energy   TEWEN  =    -12875.32277284
  -Hartree energ DENC   =     -1174.52935021
  -exchange      EXHF   =         0.00000000
  -V(xc)+E(xc)   XCENC  =      -290.21641556
  PAW double counting   =     15088.22889692   -14074.84488681
  entropy T*S    EENTRO =        -0.00000000
  eigenvalues    EBANDS =      -804.41069643
  atomic energy  EATOM  =     13036.45147835
  Solvation  Ediel_sol  =         0.00000000
  ---------------------------------------------------
  free energy    TOTEN  =      -296.96389347 eV

  energy without entropy =     -296.96389347  energy(sigma->0) =     -296.96389347


--------------------------------------------------------------------------------------------------------




--------------------------------------- Iteration      1(   8)  ---------------------------------------


    POTLOK:  cpu time      0.1320: real time      0.1326
    SETDIJ:  cpu time      0.6329: real time      0.6346
     EDDAV:  cpu time      9.4910: real time      9.5398
       DOS:  cpu time      0.0008: real time      0.0008
    CHARGE:  cpu time      0.4233: real time      0.4249
    MIXING:  cpu time      0.0083: real time      0.0083
    --------------------------------------------
      LOOP:  cpu time     10.6884: real time     10.7411

 eigenvalue-minimisations  :  8184
 total energy-change (2. order) :-0.3229429E+01  (-0.1741330E+00)
 number of electron     359.9999993 magnetization       4.3017414
 augmentation part      -66.2061181 magnetization       4.6048156

 Broyden mixing:
  rms(total) = 0.32634E+00    rms(broyden)= 0.32634E+00
  rms(prec ) = 0.33166E+00
  weight for this iteration     100.00

 eigenvalues of (default mixing * dielectric matrix)
  average eigenvalue GAMMA=   1.3630
  2.5082  0.9258  0.6550

 Free energy of the ion-electron system (eV)
  ---------------------------------------------------
  alpha Z        PSCENC =       797.67985311
  Ewald energy   TEWEN  =    -12875.32277284
  -Hartree energ DENC   =     -1179.07303713
  -exchange      EXHF   =         0.00000000
  -V(xc)+E(xc)   XCENC  =      -289.91001310
  PAW double counting   =     16863.42287051   -15850.97360868
  entropy T*S    EENTRO =        -0.00000000
  eigenvalues    EBANDS =      -802.46809262
  atomic energy  EATOM  =     13036.45147835
  Solvation  Ediel_sol  =         0.00000000
  ---------------------------------------------------
  free energy    TOTEN  =      -300.19332242 eV

  energy without entropy =     -300.19332242  energy(sigma->0) =     -300.19332242


--------------------------------------------------------------------------------------------------------




--------------------------------------- Iteration      1(   9)  ---------------------------------------


    POTLOK:  cpu time      0.1319: real time      0.1328
    SETDIJ:  cpu time      0.6321: real time      0.6337
     EDDAV:  cpu time     10.3864: real time     10.4392
       DOS:  cpu time      0.0035: real time      0.0035
    CHARGE:  cpu time      0.4278: real time      0.4293
    MIXING:  cpu time      0.0074: real time      0.0074
    --------------------------------------------
      LOOP:  cpu time     11.5889: real time     11.6460

 eigenvalue-minimisations  :  9064
 total energy-change (2. order) :-0.3745107E+00  (-0.4231546E-01)
 number of electron     359.9999993 magnetization       2.2619058
 augmentation part      -66.2441109 magnetization       2.4124034

 Broyden mixing:
  rms(total) = 0.14598E+00    rms(broyden)= 0.14598E+00
  rms(prec ) = 0.14762E+00
  weight for this iteration     100.00

 eigenvalues of (default mixing * dielectric matrix)
  average eigenvalue GAMMA=   1.3303
  2.6363  1.2321  0.8326  0.6203

 Free energy of the ion-electron system (eV)
  ---------------------------------------------------
  alpha Z        PSCENC =       797.67985311
  Ewald energy   TEWEN  =    -12875.32277284
  -Hartree energ DENC   =     -1178.06187998
  -exchange      EXHF   =         0.00000000
  -V(xc)+E(xc)   XCENC  =      -289.94968577
  PAW double counting   =     17147.42164759   -16135.30953310
  entropy T*S    EENTRO =        -0.00000000
  eigenvalues    EBANDS =      -803.47694048
  atomic energy  EATOM  =     13036.45147835
  Solvation  Ediel_sol  =         0.00000000
  ---------------------------------------------------
  free energy    TOTEN  =      -300.56783314 eV

  energy without entropy =     -300.56783314  energy(sigma->0) =     -300.56783314


--------------------------------------------------------------------------------------------------------




--------------------------------------- Iteration      1(  10)  ---------------------------------------


    POTLOK:  cpu time      0.1322: real time      0.1329
    SETDIJ:  cpu time      0.6311: real time      0.6331
     EDDAV:  cpu time      9.4734: real time      9.5276
       DOS:  cpu time      0.0010: real time      0.0010
    CHARGE:  cpu time      0.4169: real time      0.4188
    MIXING:  cpu time      0.0075: real time      0.0076
    --------------------------------------------
      LOOP:  cpu time     10.6622: real time     10.7208

 eigenvalue-minimisations  :  8144
 total energy-change (2. order) :-0.1010697E+00  (-0.9336352E-02)
 number of electron     359.9999993 magnetization       0.7244825
 augmentation part      -66.2454887 magnetization       0.7913910

 Broyden mixing:
  rms(total) = 0.72662E-01    rms(broyden)= 0.72662E-01
  rms(prec ) = 0.73763E-01
  weight for this iteration     100.00

 eigenvalues of (default mixing * dielectric matrix)
  average eigenvalue GAMMA=   1.3764
  2.7016  1.7625  0.9690  0.8226  0.6263

 Free energy of the ion-electron system (eV)
  ---------------------------------------------------
  alpha Z        PSCENC =       797.67985311
  Ewald energy   TEWEN  =    -12875.32277284
  -Hartree energ DENC   =     -1178.28084340
  -exchange      EXHF   =         0.00000000
  -V(xc)+E(xc)   XCENC  =      -289.94797025
  PAW double counting   =     17151.61323032   -16139.51186653
  entropy T*S    EENTRO =        -0.00000000
  eigenvalues    EBANDS =      -803.35001157
  atomic energy  EATOM  =     13036.45147835
  Solvation  Ediel_sol  =         0.00000000
  ---------------------------------------------------
  free energy    TOTEN  =      -300.66890281 eV

  energy without entropy =     -300.66890281  energy(sigma->0) =     -300.66890281


--------------------------------------------------------------------------------------------------------




--------------------------------------- Iteration      1(  11)  ---------------------------------------


    POTLOK:  cpu time      0.1329: real time      0.1335
    SETDIJ:  cpu time      0.6309: real time      0.6328
     EDDAV:  cpu time     10.1868: real time     10.2557
       DOS:  cpu time      0.0007: real time      0.0007
    CHARGE:  cpu time      0.4236: real time      0.4251
    MIXING:  cpu time      0.0080: real time      0.0081
    --------------------------------------------
      LOOP:  cpu time     11.3830: real time     11.4560

 eigenvalue-minimisations  :  8872
 total energy-change (2. order) :-0.3068582E-01  (-0.3550711E-02)
 number of electron     359.9999993 magnetization       0.1690892
 augmentation part      -66.2304264 magnetization       0.1874023

 Broyden mixing:
  rms(total) = 0.28163E-01    rms(broyden)= 0.28163E-01
  rms(prec ) = 0.28608E-01
  weight for this iteration     100.00

 eigenvalues of (default mixing * dielectric matrix)
  average eigenvalue GAMMA=   1.4069
  2.9100  2.1866  1.1690  0.8545  0.6967  0.6243

 Free energy of the ion-electron system (eV)
  ---------------------------------------------------
  alpha Z        PSCENC =       797.67985311
  Ewald energy   TEWEN  =    -12875.32277284
  -Hartree energ DENC   =     -1179.42824983
  -exchange      EXHF   =         0.00000000
  -V(xc)+E(xc)   XCENC  =      -289.90643639
  PAW double counting   =     17072.90346176   -16060.77424437
  entropy T*S    EENTRO =        -0.00000000
  eigenvalues    EBANDS =      -802.30267843
  atomic energy  EATOM  =     13036.45147835
  Solvation  Ediel_sol  =         0.00000000
  ---------------------------------------------------
  free energy    TOTEN  =      -300.69958864 eV

  energy without entropy =     -300.69958864  energy(sigma->0) =     -300.69958864


--------------------------------------------------------------------------------------------------------




--------------------------------------- Iteration      1(  12)  ---------------------------------------


    POTLOK:  cpu time      0.1310: real time      0.1324
    SETDIJ:  cpu time      0.6319: real time      0.6339
     EDDAV:  cpu time     10.0179: real time     10.0755
       DOS:  cpu time      0.0010: real time      0.0010
    CHARGE:  cpu time      0.4173: real time      0.4191
    MIXING:  cpu time      0.0079: real time      0.0080
    --------------------------------------------
      LOOP:  cpu time     11.2069: real time     11.2698

 eigenvalue-minimisations  :  8616
 total energy-change (2. order) :-0.3234761E-02  (-0.4517460E-03)
 number of electron     359.9999993 magnetization       0.0570220
 augmentation part      -66.2300655 magnetization       0.0610478

 Broyden mixing:
  rms(total) = 0.10226E-01    rms(broyden)= 0.10226E-01
  rms(prec ) = 0.10880E-01
  weight for this iteration     100.00

 eigenvalues of (default mixing * dielectric matrix)
  average eigenvalue GAMMA=   1.3668
  3.0123  2.3289  1.2062  0.8793  0.8793  0.6070  0.6545

 Free energy of the ion-electron system (eV)
  ---------------------------------------------------
  alpha Z        PSCENC =       797.67985311
  Ewald energy   TEWEN  =    -12875.32277284
  -Hartree energ DENC   =     -1179.52312258
  -exchange      EXHF   =         0.00000000
  -V(xc)+E(xc)   XCENC  =      -289.90856319
  PAW double counting   =     17037.83999366   -16025.68839851
  entropy T*S    EENTRO =        -0.00000000
  eigenvalues    EBANDS =      -802.23129140
  atomic energy  EATOM  =     13036.45147835
  Solvation  Ediel_sol  =         0.00000000
  ---------------------------------------------------
  free energy    TOTEN  =      -300.70282340 eV

  energy without entropy =     -300.70282340  energy(sigma->0) =     -300.70282340


--------------------------------------------------------------------------------------------------------




--------------------------------------- Iteration      1(  13)  ---------------------------------------


    POTLOK:  cpu time      0.1340: real time      0.1347
    SETDIJ:  cpu time      0.6296: real time      0.6317
     EDDAV:  cpu time     11.0982: real time     11.1610
       DOS:  cpu time      0.0009: real time      0.0009
    CHARGE:  cpu time      0.4229: real time      0.4250
    MIXING:  cpu time      0.0083: real time      0.0083
    --------------------------------------------
      LOOP:  cpu time     12.2938: real time     12.3616

 eigenvalue-minimisations  :  9880
 total energy-change (2. order) :-0.9442018E-04  (-0.5533899E-04)
 number of electron     359.9999993 magnetization       0.0148751
 augmentation part      -66.2316850 magnetization       0.0156673

 Broyden mixing:
  rms(total) = 0.43531E-02    rms(broyden)= 0.43531E-02
  rms(prec ) = 0.45576E-02
  weight for this iteration     100.00

 eigenvalues of (default mixing * dielectric matrix)
  average eigenvalue GAMMA=   1.3465
  3.0566  2.4253  1.0727  1.0727  1.0273  0.8600  0.6492  0.6080

 Free energy of the ion-electron system (eV)
  ---------------------------------------------------
  alpha Z        PSCENC =       797.67985311
  Ewald energy   TEWEN  =    -12875.32277284
  -Hartree energ DENC   =     -1179.41113538
  -exchange      EXHF   =         0.00000000
  -V(xc)+E(xc)   XCENC  =      -289.91884496
  PAW double counting   =     17025.49195009   -16013.32966163
  entropy T*S    EENTRO =        -0.00000000
  eigenvalues    EBANDS =      -802.34378456
  atomic energy  EATOM  =     13036.45147835
  Solvation  Ediel_sol  =         0.00000000
  ---------------------------------------------------
  free energy    TOTEN  =      -300.70291782 eV

  energy without entropy =     -300.70291782  energy(sigma->0) =     -300.70291782


--------------------------------------------------------------------------------------------------------




--------------------------------------- Iteration      1(  14)  ---------------------------------------


    POTLOK:  cpu time      0.1309: real time      0.1316
    SETDIJ:  cpu time      0.6306: real time      0.6331
     EDDAV:  cpu time      9.6289: real time      9.6822
       DOS:  cpu time      0.0007: real time      0.0007
    CHARGE:  cpu time      0.4243: real time      0.4263
    MIXING:  cpu time      0.0080: real time      0.0080
    --------------------------------------------
      LOOP:  cpu time     10.8234: real time     10.8819

 eigenvalue-minimisations  :  8272
 total energy-change (2. order) :-0.1367543E-04  (-0.8920875E-05)
 number of electron     359.9999993 magnetization       0.0045702
 augmentation part      -66.2313422 magnetization       0.0048964

 Broyden mixing:
  rms(total) = 0.16073E-02    rms(broyden)= 0.16073E-02
  rms(prec ) = 0.17141E-02
  weight for this iteration     100.00

 eigenvalues of (default mixing * dielectric matrix)
  average eigenvalue GAMMA=   1.3353
  3.0817  2.4576  1.4900  1.1969  0.8775  0.8775  0.7830  0.6115  0.6416

 Free energy of the ion-electron system (eV)
  ---------------------------------------------------
  alpha Z        PSCENC =       797.67985311
  Ewald energy   TEWEN  =    -12875.32277284
  -Hartree energ DENC   =     -1179.41113268
  -exchange      EXHF   =         0.00000000
  -V(xc)+E(xc)   XCENC  =      -289.91971079
  PAW double counting   =     17020.89389951   -16008.72846640
  entropy T*S    EENTRO =        -0.00000000
  eigenvalues    EBANDS =      -802.34607976
  atomic energy  EATOM  =     13036.45147835
  Solvation  Ediel_sol  =         0.00000000
  ---------------------------------------------------
  free energy    TOTEN  =      -300.70293150 eV

  energy without entropy =     -300.70293150  energy(sigma->0) =     -300.70293150


--------------------------------------------------------------------------------------------------------




--------------------------------------- Iteration      1(  15)  ---------------------------------------


    POTLOK:  cpu time      0.1310: real time      0.1316
    SETDIJ:  cpu time      0.6321: real time      0.6344
     EDDAV:  cpu time     10.0295: real time     10.0883
       DOS:  cpu time      0.0012: real time      0.0012
    CHARGE:  cpu time      0.4239: real time      0.4269
    MIXING:  cpu time      0.0083: real time      0.0083
    --------------------------------------------
      LOOP:  cpu time     11.2260: real time     11.2908

 eigenvalue-minimisations  :  8608
 total energy-change (2. order) :-0.3078712E-05  (-0.1548434E-05)
 number of electron     359.9999993 magnetization       0.0016858
 augmentation part      -66.2315022 magnetization       0.0018836

 Broyden mixing:
  rms(total) = 0.70339E-03    rms(broyden)= 0.70339E-03
  rms(prec ) = 0.74960E-03
  weight for this iteration     100.00

 eigenvalues of (default mixing * dielectric matrix)
  average eigenvalue GAMMA=   1.3014
  3.0917  2.4271  1.6744  1.0955  0.9749  0.9749  0.8238  0.7116  0.6198  0.6198

 Free energy of the ion-electron system (eV)
  ---------------------------------------------------
  alpha Z        PSCENC =       797.67985311
  Ewald energy   TEWEN  =    -12875.32277284
  -Hartree energ DENC   =     -1179.39921720
  -exchange      EXHF   =         0.00000000
  -V(xc)+E(xc)   XCENC  =      -289.91996293
  PAW double counting   =     17020.51169023   -16008.34549574
  entropy T*S    EENTRO =        -0.00000000
  eigenvalues    EBANDS =      -802.35850756
  atomic energy  EATOM  =     13036.45147835
  Solvation  Ediel_sol  =         0.00000000
  ---------------------------------------------------
  free energy    TOTEN  =      -300.70293457 eV

  energy without entropy =     -300.70293457  energy(sigma->0) =     -300.70293457


--------------------------------------------------------------------------------------------------------




--------------------------------------- Iteration      1(  16)  ---------------------------------------


    POTLOK:  cpu time      0.1356: real time      0.1391
    SETDIJ:  cpu time      0.6243: real time      0.6263
     EDDAV:  cpu time      6.6118: real time      6.6486
       DOS:  cpu time      0.0008: real time      0.0008
    --------------------------------------------
      LOOP:  cpu time      7.3725: real time      7.4148

 eigenvalue-minimisations  :  4784
 total energy-change (2. order) :-0.6122614E-06  (-0.1380406E-06)
 number of electron     359.9999993 magnetization       0.0016858
 augmentation part      -66.2315022 magnetization       0.0018836

 Free energy of the ion-electron system (eV)
  ---------------------------------------------------
  alpha Z        PSCENC =       797.67985311
  Ewald energy   TEWEN  =    -12875.32277284
  -Hartree energ DENC   =     -1179.39462160
  -exchange      EXHF   =         0.00000000
  -V(xc)+E(xc)   XCENC  =      -289.92012414
  PAW double counting   =     17020.48011207   -16008.31369181
  entropy T*S    EENTRO =        -0.00000000
  eigenvalues    EBANDS =      -802.36316833
  atomic energy  EATOM  =     13036.45147835
  Solvation  Ediel_sol  =         0.00000000
  ---------------------------------------------------
  free energy    TOTEN  =      -300.70293519 eV

  energy without entropy =     -300.70293519  energy(sigma->0) =     -300.70293519


--------------------------------------------------------------------------------------------------------




 average (electrostatic) potential at core
  the test charge radii are     1.1631  1.0808
  (the norm of the test charge is              1.0000)
       1 -33.5174       2 -33.4772       3 -33.3548       4 -33.2915       5 -33.3101
       6 -33.4477       7 -33.4196       8 -33.3697       9 -33.3003      10 -33.4940
      11 -33.6633      12 -33.5002      13 -33.5979      14 -33.3711      15 -33.4821
      16 -33.6712      17 -33.3856      18 -33.4048      19 -33.4866      20 -33.4691
      21 -33.3962      22 -33.6325      23 -33.5432      24 -33.4413      25 -33.3747
      26 -33.4439      27 -33.7451      28 -33.6013      29 -33.3913      30 -33.5891
      31 -33.3813      32 -33.2324      33 -33.2695      34 -33.5846      35 -33.6090
      36 -33.5017      37 -54.6126      38 -54.8282      39 -54.8944      40 -54.9431
      41 -54.9119      42 -54.8579      43 -54.9342      44 -54.7393      45 -55.0249
      46 -54.7580      47 -54.7272      48 -54.6993      49 -55.0109      50 -54.8087
      51 -54.8227      52 -54.6955      53 -54.8649      54 -54.8324      55 -55.0269
      56 -54.9119      57 -54.8279      58 -54.8182      59 -54.6871      60 -54.6506
      61 -54.4954      62 -54.8598      63 -54.7969      64 -54.8706      65 -54.9496
      66 -54.8821      67 -55.0033      68 -55.1073      69 -54.8002      70 -54.8755
      71 -54.7872      72 -54.6923
 
 
 
 E-fermi :   3.5246     XC(G=0):  -9.3798     alpha+bet : -8.8297

 Fermi energy:         3.5246268652

 spin component 1

 k-point     1 :       0.0000    0.0000    0.0000
  band No.  band energies     occupation 
      1     -10.8960      1.00000
      2     -10.5132      1.00000
      3     -10.4637      1.00000
      4     -10.3702      1.00000
      5     -10.3047      1.00000
      6     -10.2222      1.00000
      7     -10.0472      1.00000
      8     -10.0281      1.00000
      9      -9.9794      1.00000
     10      -9.9098      1.00000
     11      -9.9087      1.00000
     12      -9.8278      1.00000
     13      -9.8072      1.00000
     14      -9.7846      1.00000
     15      -9.7225      1.00000
     16      -9.6400      1.00000
     17      -9.6027      1.00000
     18      -9.5653      1.00000
     19      -9.5478      1.00000
     20      -9.5325      1.00000
     21      -9.4636      1.00000
     22      -9.4073      1.00000
     23      -9.3296      1.00000
     24      -9.2802      1.00000
     25      -9.2662      1.00000
     26      -9.2464      1.00000
     27      -9.1769      1.00000
     28      -9.1680      1.00000
     29      -9.1260      1.00000
     30      -9.1126      1.00000
     31      -9.0586      1.00000
     32      -9.0426      1.00000
     33      -9.0173      1.00000
     34      -8.9773      1.00000
     35      -8.9381      1.00000
     36      -8.8371      1.00000
     37      -5.4674      1.00000
     38      -5.3732      1.00000
     39      -5.3076      1.00000
     40      -5.2450      1.00000
     41      -5.1563      1.00000
     42      -5.0725      1.00000
     43      -5.0165      1.00000
     44      -4.9586      1.00000
     45      -4.7878      1.00000
     46      -4.7352      1.00000
     47      -4.5737      1.00000
     48      -4.5380      1.00000
     49      -4.4726      1.00000
     50      -4.4464      1.00000
     51      -4.4390      1.00000
     52      -4.3841      1.00000
     53      -4.3507      1.00000
     54      -4.3131      1.00000
     55      -4.3035      1.00000
     56      -4.2918      1.00000
     57      -4.2724      1.00000
     58      -4.2419      1.00000
     59      -4.2118      1.00000
     60      -4.1684      1.00000
     61      -4.1094      1.00000
     62      -4.0499      1.00000
     63      -4.0005      1.00000
     64      -3.9364      1.00000
     65      -3.8261      1.00000
     66      -3.8008      1.00000
     67      -3.6920      1.00000
     68      -3.6446      1.00000
     69      -3.5133      1.00000
     70      -3.3877      1.00000
     71      -2.4427      1.00000
     72      -2.4139      1.00000
     73      -1.8347      1.00000
     74      -1.6426      1.00000
     75      -1.5421      1.00000
     76      -1.5331      1.00000
     77      -1.4182      1.00000
     78      -1.3729      1.00000
     79      -1.2687      1.00000
     80      -1.2240      1.00000
     81      -1.1998      1.00000
     82      -1.1736      1.00000
     83      -1.0877      1.00000
     84      -1.0514      1.00000
     85      -0.9988      1.00000
     86      -0.8269      1.00000
     87      -0.8167      1.00000
     88      -0.7713      1.00000
     89      -0.6837      1.00000
     90      -0.6571      1.00000
     91      -0.5796      1.00000
     92      -0.4679      1.00000
     93      -0.4322      1.00000
     94      -0.2776      1.00000
     95      -0.2367      1.00000
     96      -0.1558      1.00000
     97      -0.0472      1.00000
     98      -0.0045      1.00000
     99       0.0586      1.00000
    100       0.0775      1.00000
    101       0.1240      1.00000
    102       0.1521      1.00000
    103       0.1779      1.00000
    104       0.2298      1.00000
    105       0.2543      1.00000
    106       0.3017      1.00000
    107       0.3393      1.00000
    108       0.3466      1.00000
    109       0.3746      1.00000
    110       0.4112      1.00000
    111       0.4962      1.00000
    112       0.5570      1.00000
    113       0.5850      1.00000
    114       0.6208      1.00000
    115       0.6446      1.00000
    116       0.6919      1.00000
    117       0.7006      1.00000
    118       0.7154      1.00000
    119       0.7544      1.00000
    120       0.7754      1.00000
    121       0.8420      1.00000
    122       0.8484      1.00000
    123       0.8783      1.00000
    124       0.9244      1.00000
    125       0.9667      1.00000
    126       0.9845      1.00000
    127       0.9921      1.00000
    128       1.0531      1.00000
    129       1.0801      1.00000
    130       1.1073      1.00000
    131       1.1617      1.00000
    132       1.2011      1.00000
    133       1.2414      1.00000
    134       1.2861      1.00000
    135       1.3047      1.00000
    136       1.4016      1.00000
    137       1.4191      1.00000
    138       1.4508      1.00000
    139       1.4903      1.00000
    140       1.5440      1.00000
    141       1.5575      1.00000
    142       1.5728      1.00000
    143       1.6877      1.00000
    144       1.7016      1.00000
    145       1.7244      1.00000
    146       1.7547      1.00000
    147       1.7849      1.00000
    148       1.8223      1.00000
    149       1.8584      1.00000
[...]
   -.291E+01 -.141E+02 -.277E+02   0.329E+01 0.156E+02 0.302E+02   -.339E+00 -.207E+01 -.262E+01   0.282E-03 -.203E-03 -.950E-04
   -.101E+02 0.656E+01 0.185E+02   0.119E+02 -.739E+01 -.212E+02   -.180E+01 0.509E+00 0.295E+01   -.112E-03 0.161E-03 0.175E-03
   -.688E+01 0.908E+01 0.388E+02   0.708E+01 -.987E+01 -.406E+02   -.408E+00 0.101E+01 0.168E+01   -.127E-03 0.161E-03 -.210E-03
   0.439E+00 0.701E+01 0.226E+02   -.517E+00 -.833E+01 -.242E+02   -.463E-01 0.122E+01 0.144E+01   -.236E-03 -.703E-04 0.183E-04
   -.176E+01 0.919E+01 0.275E+02   0.199E+01 -.104E+02 -.289E+02   -.462E+00 0.152E+01 0.103E+01   0.356E-03 -.207E-03 -.127E-03
   -.771E+01 0.167E+02 0.324E+02   0.830E+01 -.185E+02 -.337E+02   0.730E-01 0.977E+00 0.171E+01   0.398E-03 -.307E-03 -.492E-03
   -.708E+01 0.601E+01 0.148E+02   0.746E+01 -.688E+01 -.165E+02   -.268E+00 0.101E+01 0.170E+01   -.344E-03 0.173E-03 -.200E-03
   -.372E+01 0.145E+02 0.366E+02   0.381E+01 -.159E+02 -.384E+02   0.373E-01 0.119E+01 0.199E+01   -.184E-03 -.321E-04 -.215E-03
   -.375E+01 0.132E+01 0.237E+02   0.388E+01 -.238E+01 -.254E+02   -.316E+00 0.160E+01 0.155E+01   0.365E-03 -.321E-03 -.167E-03
   -.438E+01 -.158E+02 -.318E+02   0.439E+01 0.171E+02 0.338E+02   0.176E+00 -.966E+00 -.198E+01   0.251E-03 -.642E-04 0.204E-04
   0.191E+02 0.214E+01 -.340E+02   -.208E+02 -.233E+01 0.357E+02   0.132E+01 0.767E-01 -.122E+01   -.279E-03 0.115E-03 0.323E-03
   -.307E+01 -.123E+02 -.208E+02   0.335E+01 0.135E+02 0.218E+02   -.259E+00 -.140E+01 -.137E+01   0.283E-03 -.247E-03 0.946E-04
   0.193E+02 -.803E+01 -.251E+02   -.200E+02 0.875E+01 0.262E+02   0.327E+00 -.810E+00 -.125E+01   0.429E-05 -.326E-04 0.483E-04
   0.148E+01 -.521E+01 -.322E+02   -.154E+01 0.585E+01 0.341E+02   0.577E-01 -.637E+00 -.160E+01   0.125E-03 -.249E-04 -.602E-04
   0.238E+02 0.122E+02 -.223E+02   -.253E+02 -.127E+02 0.238E+02   0.123E+01 0.686E+00 -.151E+01   0.235E-04 0.311E-03 -.104E-03
   -.108E+02 -.223E+02 -.292E+02   0.108E+02 0.237E+02 0.306E+02   0.298E+00 -.141E+01 -.131E+01   0.464E-03 -.430E-03 0.371E-03
   -.732E+01 0.139E+02 0.282E+02   0.781E+01 -.151E+02 -.293E+02   0.155E+00 0.978E+00 0.121E+01   -.442E-03 0.262E-03 -.246E-03
   -.276E+01 0.909E+01 0.329E+02   0.297E+01 -.101E+02 -.347E+02   -.445E+00 0.118E+01 0.133E+01   -.315E-03 0.214E-03 -.118E-03
   0.156E+02 0.135E+02 0.181E+02   -.165E+02 -.140E+02 -.198E+02   0.134E+01 0.354E+00 0.169E+01   -.141E-03 0.263E-03 0.178E-03
   0.243E+02 0.108E+01 0.151E+02   -.256E+02 -.135E+01 -.165E+02   0.920E+00 0.318E-01 0.202E+01   -.108E-03 0.226E-03 0.678E-04
   -.475E+01 -.229E+02 0.209E+02   0.492E+01 0.246E+02 -.220E+02   -.497E+00 -.134E+01 0.128E+01   0.202E-04 -.425E-03 0.118E-03
   -.601E+01 -.127E+02 -.143E+02   0.580E+01 0.137E+02 0.155E+02   0.468E+00 -.947E+00 -.222E+01   -.138E-03 -.185E-03 -.714E-04
   0.112E+02 0.266E+01 -.306E+02   -.117E+02 -.385E+01 0.325E+02   0.375E+00 0.153E+01 -.120E+01   0.238E-03 0.869E-04 -.571E-04
   0.446E+01 0.140E+02 -.233E+02   -.501E+01 -.149E+02 0.251E+02   0.210E+00 0.530E+00 -.126E+01   0.437E-03 -.212E-03 0.225E-03
   0.162E+02 0.101E+02 -.413E+01   -.171E+02 -.104E+02 0.486E+01   0.903E+00 -.160E+00 -.106E+01   -.117E-03 0.255E-03 0.392E-03
   0.964E+01 -.636E-01 -.107E+02   -.101E+02 -.842E+00 0.118E+02   0.100E+00 0.850E+00 -.167E+01   -.299E-03 0.434E-03 0.304E-03
   0.184E+02 0.228E+01 -.309E+02   -.194E+02 -.258E+01 0.319E+02   0.746E+00 0.470E+00 -.135E+01   -.204E-05 0.169E-03 0.341E-03
   0.250E+01 0.186E+02 -.135E+02   -.243E+01 -.199E+02 0.152E+02   -.105E+00 0.862E+00 -.190E+01   -.165E-03 -.350E-03 0.411E-04
   -.263E+01 -.919E+01 -.221E+02   0.199E+01 0.903E+01 0.239E+02   0.871E+00 0.285E+00 -.162E+01   0.271E-03 -.364E-03 0.929E-04
   -.685E+01 0.172E+02 -.201E+02   0.706E+01 -.183E+02 0.216E+02   0.347E+00 0.823E+00 -.174E+01   -.445E-03 0.455E-03 0.204E-03
   -.284E+01 0.186E+02 -.171E+02   0.268E+01 -.197E+02 0.188E+02   0.385E+00 0.906E+00 -.205E+01   0.518E-03 -.223E-04 -.417E-04
   0.724E+00 -.575E+01 0.385E+02   -.560E+00 0.711E+01 -.401E+02   -.213E+00 -.178E+01 0.638E+00   0.431E-03 -.184E-03 -.196E-03
   -.566E+01 -.118E+02 0.180E+02   0.599E+01 0.134E+02 -.194E+02   -.277E+00 -.162E+01 0.963E+00   -.138E-03 0.491E-04 -.250E-04
   -.245E+01 -.170E+02 0.217E+02   0.239E+01 0.183E+02 -.238E+02   0.107E+00 -.767E+00 0.200E+01   -.983E-06 -.885E-04 0.308E-03
   0.671E+01 -.269E+01 0.338E+02   -.776E+01 0.285E+01 -.362E+02   0.122E+01 0.411E-01 0.122E+01   -.699E-03 0.148E-03 0.367E-03
   0.413E+00 -.359E+01 0.156E+02   -.648E+00 0.468E+01 -.175E+02   -.134E+00 -.148E+01 0.185E+01   0.244E-03 -.525E-04 0.444E-03
   0.221E+01 -.849E+01 0.276E+02   -.252E+01 0.973E+01 -.293E+02   0.273E+00 -.176E+01 0.152E+01   0.194E-03 0.142E-03 0.218E-03
   0.117E+02 0.540E+01 -.314E+02   -.130E+02 -.570E+01 0.332E+02   0.138E+01 0.664E+00 -.188E+01   -.174E-03 0.236E-03 0.145E-03
 -----------------------------------------------------------------------------------------------
   0.932E+01 0.368E+01 0.160E+01   -.355E-14 -.533E-13 0.149E-12   -.932E+01 -.368E+01 -.160E+01   -.365E-03 -.261E-04 0.151E-02
 
 
 POSITION                                       TOTAL-FORCE (eV/Angst)
 -----------------------------------------------------------------------------------
      0.50685      0.35429      1.24232         0.034917     -0.324498     -0.316630
      2.83152     11.04002      4.16420         0.506655     -0.060555      0.215206
      7.05200      2.79412      3.88741         0.308099     -0.616428      0.700874
      6.54703      6.56342      4.15511         0.209854      0.058476      0.788873
      7.07663     10.76135      3.98374        -0.226164      0.252394      0.296185
     11.11583      2.59169      4.20785         0.124046      0.020554      0.076795
     11.31797      6.69609      4.02131         0.005125      0.383732      0.174164
     11.03691     10.73119      4.04463        -0.307837     -0.226533      0.038626
      1.19496      1.72944      6.94191        -0.628311      0.110804     -0.486206
      1.02119      5.97034      7.00702        -0.021569     -0.041733     -0.209765
      1.21507     10.03579      6.94137        -0.155254     -0.034531      0.489075
      5.19038      1.64032      6.79991        -0.718384      0.595966      0.326315
      5.13313      5.76622      6.67154        -0.054737      0.198114      0.942064
      5.30441     10.14860      7.15256        -0.334783      0.218945     -0.115568
      9.29879      1.71552      6.94164         0.297355     -0.030564     -0.101098
      9.28067      5.91189      6.91229         0.051425     -0.069811      0.249863
      2.73611      6.74045      4.36651         0.083324      0.209534      0.250427
      2.50494      2.27619      4.01091         0.396006      0.473779     -0.137086
      9.26364     10.18872      7.00272         0.207288     -0.101602      0.138907
     11.09896      8.17136      9.73133         0.215318     -0.123066      0.145548
     10.99449     12.20203      9.64071         0.433031      0.476977     -0.044128
      0.80362      4.73411      1.17495         0.009982      0.415764      0.712611
      1.08482      9.13602      1.34382        -0.373385     -0.167808      0.190513
      5.15748      0.69205      1.44739        -0.202012     -0.148954     -0.099985
      4.69393      4.60106      1.51601        -0.047915      0.174865     -0.279204
      9.15536      0.68512      1.40992         0.039133     -0.614434     -0.056499
      9.17107      4.65559      1.50108         0.095589      0.579056      0.608500
      4.90835      8.80366      1.30700         0.117250      0.214141      0.157482
      2.82537      3.78910      9.67982         0.361619      0.070152      0.007151
      2.96883      8.22803      9.82790        -0.001338     -0.144729     -0.058532
      3.04014     12.20140      9.85798        -0.012711      0.390874     -0.275002
      6.98666      3.93825      9.41464         0.031824      0.267365      0.295342
      7.17028      8.04186      9.55958        -0.388052     -0.144947      0.027284
      7.14058     12.45008      9.77228        -0.189619      0.044065     -0.378355
     11.23782      3.98884      9.62998         0.040192     -0.561204     -0.045872
      8.90244      8.68165      1.40889         0.028016     -0.314495      0.322131
     11.42029     12.47565      7.14072        -0.206646      0.227297     -0.129457
      3.01522      4.25072      7.15684        -0.125015     -0.096886     -0.121126
      3.31177      8.36780      7.36841        -0.233676      0.317102     -0.400651
      7.13608      0.17392      7.11085         0.672560     -0.731323      0.397714
      7.19269      4.12369      6.89310         0.116137      0.130533      0.061084
      7.23971      8.47787      7.03429         0.131711     -0.190654      0.208726
     11.40249      4.20381      7.15156        -0.185243      0.538354     -0.138461
      9.05222     12.45068      3.91736         0.178111      0.356923      0.028962
      1.00067      0.25711      3.71586        -0.352627     -0.112746      0.426342
      0.74994      4.21202      3.91543         0.025351     -0.217614     -0.436604
      1.04480      8.62715      4.07429        -0.446331     -0.089155     -0.126492
      5.14595      0.14282      3.94275        -0.000091      0.001111      0.247051
      5.05950      4.34024      4.00210        -0.191832      0.211547     -0.008322
      4.76841      8.40581      3.87688         0.335725     -0.038691      0.069991
      2.98035      0.02100      7.19569         0.646329     -0.240275      0.113776
     11.36456      8.48715      7.27517        -0.235116      0.131432     -0.495694
     11.33643     10.71123      1.51543         0.367487     -0.107020     -0.018014
      3.22926      2.42678      1.41608        -0.334629     -0.235909      0.606947
     11.22920      2.21321      1.62225        -0.330666      0.321761      0.114449
      9.21412      4.38858      4.21915         0.256025      0.037178     -1.048687
      0.90809      2.10610      9.35948        -0.046833      0.346266      0.711395
      1.01419      6.60195      9.48183        -0.348558     -0.365456      0.465014
      1.05666     10.60655      9.65121        -0.024589     -0.534896     -0.335881
      5.10478      2.21120      9.52335        -0.320240     -0.054724     -0.545680
      5.31943      6.22770      9.42100        -0.201877      0.166890     -0.324478
      5.19250     10.71009      9.67597        -0.032509     -0.440887     -0.209162
      9.28837      2.16181      9.44515         0.232780      0.133187      0.124548
      9.12047      6.37710      9.55532         0.561175     -0.292558     -0.237943
      9.04103     10.58846      9.59175         0.216898     -0.244840     -0.383073
      2.79343      6.38925      1.91196        -0.048388     -0.418148     -0.998147
      3.11180     10.70293      1.68992         0.053770     -0.037401     -0.501478
      7.20550      2.37474      1.40773         0.051384      0.438627     -0.063899
      7.27090      6.43703      1.82787         0.172356      0.198611     -1.154366
      7.11009     10.52462      1.50583        -0.368804     -0.388673     -0.051544
     11.34310      6.53420      1.54179        -0.036223     -0.520477     -0.248758
      9.41232      8.50500      3.96870         0.118119      0.371849     -0.148085
 -----------------------------------------------------------------------------------
    total drift:                               -0.001249     -0.001705     -0.000092


--------------------------------------------------------------------------------------------------------



  FREE ENERGIE OF THE ION-ELECTRON SYSTEM (eV)
  ---------------------------------------------------
  free  energy   TOTEN  =      -300.70293519 eV

  energy  without entropy=     -300.70293519  energy(sigma->0) =     -300.70293519
 


--------------------------------------------------------------------------------------------------------


    POTLOK:  cpu time      0.7375: real time      0.7402


--------------------------------------------------------------------------------------------------------


     LOOP+:  cpu time    182.6674: real time    183.6642
    4ORBIT:  cpu time      0.0000: real time      0.0000



 total charge

# of ion       s       p       d       tot
------------------------------------------
    1        1.325   0.775   0.059   2.159
    2        1.323   0.773   0.060   2.156
    3        1.327   0.795   0.060   2.182
    4        1.303   0.837   0.064   2.204
    5        1.316   0.788   0.058   2.162
    6        1.326   0.759   0.053   2.138
    7        1.320   0.764   0.055   2.138
    8        1.326   0.758   0.053   2.137
    9        1.300   0.827   0.064   2.190
   10        1.319   0.761   0.053   2.133
   11        1.346   0.678   0.045   2.068
   12        1.332   0.741   0.054   2.127
   13        1.324   0.734   0.054   2.111
   14        1.323   0.777   0.055   2.155
   15        1.325   0.748   0.053   2.125
   16        1.344   0.692   0.045   2.082
   17        1.301   0.816   0.065   2.182
   18        1.319   0.776   0.055   2.150
   19        1.330   0.737   0.051   2.118
   20        1.328   0.747   0.053   2.129
   21        1.314   0.777   0.056   2.147
   22        1.325   0.720   0.048   2.092
   23        1.334   0.727   0.051   2.112
   24        1.316   0.784   0.058   2.158
   25        1.327   0.775   0.058   2.160
   26        1.315   0.791   0.058   2.163
   27        1.339   0.698   0.047   2.083
   28        1.334   0.723   0.051   2.108
   29        1.317   0.769   0.055   2.140
   30        1.310   0.770   0.056   2.137
   31        1.327   0.756   0.057   2.140
   32        1.327   0.774   0.059   2.159
   33        1.303   0.813   0.061   2.177
   34        1.329   0.737   0.058   2.124
   35        1.316   0.758   0.052   2.126
   36        1.325   0.745   0.052   2.122
   37        1.477   2.277   0.026   3.780
   38        1.475   2.299   0.030   3.805
   39        1.478   2.297   0.032   3.807
   40        1.475   2.316   0.034   3.825
   41        1.478   2.294   0.034   3.806
   42        1.480   2.301   0.033   3.814
   43        1.478   2.290   0.031   3.799
   44        1.474   2.303   0.029   3.807
   45        1.474   2.337   0.038   3.849
   46        1.476   2.285   0.028   3.790
   47        1.476   2.285   0.027   3.788
   48        1.476   2.284   0.027   3.787
   49        1.479   2.317   0.039   3.835
   50        1.476   2.305   0.031   3.811
   51        1.476   2.305   0.031   3.811
   52        1.475   2.297   0.028   3.800
   53        1.478   2.289   0.032   3.798
   54        1.478   2.290   0.031   3.800
   55        1.476   2.315   0.034   3.824
   56        1.481   2.274   0.031   3.786
   57        1.477   2.307   0.033   3.818
   58        1.473   2.303   0.029   3.804
   59        1.476   2.281   0.027   3.784
   60        1.477   2.287   0.028   3.792
   61        1.477   2.270   0.023   3.770
   62        1.475   2.307   0.032   3.814
   63        1.477   2.291   0.030   3.798
   64        1.476   2.294   0.030   3.800
   65        1.479   2.301   0.035   3.814
   66        1.476   2.309   0.033   3.819
   67        1.475   2.318   0.036   3.829
   68        1.479   2.306   0.038   3.824
   69        1.473   2.317   0.032   3.821
   70        1.479   2.303   0.034   3.816
   71        1.477   2.296   0.030   3.803
   72        1.476   2.285   0.027   3.789
--------------------------------------------------
tot        100.768 110.136   3.106 214.010



 magnetization (x)

# of ion       s       p       d       tot
------------------------------------------
    1       -0.000   0.000   0.000   0.000
    2       -0.000   0.000  -0.000   0.000
    3       -0.000   0.000   0.000   0.000
    4       -0.000   0.000  -0.000   0.000
    5       -0.000   0.000  -0.000  -0.000
    6       -0.000   0.000   0.000   0.000
    7       -0.000   0.000   0.000   0.000
    8       -0.000   0.000   0.000   0.000
    9       -0.000   0.000   0.000   0.000
   10       -0.000   0.000   0.000   0.000
   11       -0.000   0.000   0.000   0.000
   12       -0.000   0.000   0.000   0.000
   13       -0.000   0.000   0.000   0.000
   14       -0.000   0.000  -0.000   0.000
   15       -0.000   0.000   0.000   0.000
   16       -0.000   0.000   0.000   0.000
   17       -0.000   0.000   0.000   0.000
   18       -0.000   0.000   0.000   0.000
   19       -0.000   0.000   0.000   0.000
   20       -0.000   0.000   0.000   0.000
   21       -0.000   0.000   0.000   0.000
   22       -0.000   0.000   0.000   0.000
   23       -0.000   0.000   0.000   0.000
   24       -0.000   0.000   0.000   0.000
   25       -0.000   0.000  -0.000   0.000
   26       -0.000   0.000   0.000   0.000
   27       -0.000   0.000   0.000   0.000
   28       -0.000   0.000  -0.000  -0.000
   29       -0.000   0.000   0.000   0.000
   30       -0.000  -0.000  -0.000  -0.000
   31       -0.000   0.000   0.000   0.000
   32       -0.000   0.000   0.000   0.000
   33       -0.000   0.000  -0.000  -0.000
   34       -0.000   0.000   0.000   0.000
   35       -0.000   0.000   0.000   0.000
   36       -0.000   0.000   0.000   0.000
   37       -0.000  -0.000   0.000  -0.000
   38       -0.000  -0.000   0.000  -0.000
   39       -0.000  -0.000  -0.000  -0.000
   40       -0.000  -0.000   0.000  -0.000
   41       -0.000  -0.000   0.000  -0.000
   42       -0.000  -0.000  -0.000  -0.000
   43       -0.000  -0.000   0.000  -0.000
   44       -0.000  -0.000   0.000  -0.000
   45       -0.000  -0.000   0.000  -0.000
   46       -0.000  -0.000   0.000  -0.000
   47       -0.000  -0.000   0.000  -0.000
   48       -0.000  -0.000   0.000  -0.000
   49       -0.000  -0.000   0.000  -0.000
   50       -0.000  -0.000  -0.000  -0.000
   51       -0.000  -0.000   0.000  -0.000
   52       -0.000  -0.000   0.000  -0.000
   53       -0.000  -0.000   0.000  -0.000
   54       -0.000  -0.000   0.000  -0.000
   55       -0.000  -0.000   0.000  -0.000
   56       -0.000  -0.000   0.000  -0.000
   57       -0.000  -0.000   0.000  -0.000
   58       -0.000  -0.000   0.000  -0.000
   59       -0.000  -0.000   0.000  -0.000
   60       -0.000  -0.000   0.000  -0.000
   61       -0.000  -0.000  -0.000  -0.000
   62       -0.000  -0.000   0.000  -0.000
   63       -0.000  -0.000   0.000  -0.000
   64       -0.000  -0.000   0.000  -0.000
   65       -0.000  -0.000   0.000  -0.000
   66       -0.000  -0.000   0.000  -0.000
   67       -0.000  -0.000   0.000  -0.000
   68       -0.000  -0.000   0.000  -0.000
   69       -0.000  -0.000   0.000  -0.000
   70       -0.000  -0.000   0.000  -0.000
   71       -0.000  -0.000   0.000  -0.000
   72       -0.000  -0.000   0.000  -0.000
--------------------------------------------------
tot         -0.000  -0.000   0.000  -0.000
 

 total amount of memory used by VASP MPI-rank0   110764. kBytes
=======================================================================

   base      :      30000. kBytes
   nonl-proj :      16355. kBytes
   fftplans  :       6179. kBytes
   grid      :      15593. kBytes
   one-center:        146. kBytes
   wavefun   :      42491. kBytes
 
  
  
 General timing and accounting informations for this job:
 ========================================================
  
                  Total CPU time used (sec):      194.354
                            User time (sec):      188.638
                          System time (sec):        5.715
                         Elapsed time (sec):      197.281
  
                   Maximum memory used (kb):      307208.
                   Average memory used (kb):          N/A
  
                          Minor page faults:       102762
                          Major page faults:           39
                 Voluntary context switches:        11977
