 running  128 mpi-ranks, with    1 threads/rank, on    2 nodes
 distrk:  each k-point on   64 cores,    2 groups
 distr:  one band on    8 cores,    8 groups
 vasp.6.4.2 20Jul23 (build Oct 12 2023 10:31:02) complex                         
 POSCAR found type information on POSCAR GeSe
 POSCAR found :  2 types and      72 ions
 Reading from existing POTCAR
 -----------------------------------------------------------------------------
|                                                                             |
|           W    W    AA    RRRRR   N    N  II  N    N   GGGG   !!!           |
|           W    W   A  A   R    R  NN   N  II  NN   N  G    G  !!!           |
|           W    W  A    A  R    R  N N  N  II  N N  N  G       !!!           |
|           W WW W  AAAAAA  RRRRR   N  N N  II  N  N N  G  GGG   !            |
|           WW  WW  A    A  R   R   N   NN  II  N   NN  G    G                |
|           W    W  A    A  R    R  N    N  II  N    N   GGGG   !!!           |
|                                                                             |
|     You use a magnetic or noncollinear calculation, but did not specify     |
|     the initial magnetic moment with the MAGMOM tag. Note that a            |
|     default of 1 will be used for all atoms. This ferromagnetic setup       |
|     may break the symmetry of the crystal, in particular it may rule        |
|     out finding an antiferromagnetic solution. Thence, we recommend         |
|     setting the initial magnetic moment manually or verifying carefully     |
|     that this magnetic setup is desired.                                    |
|                                                                             |
 -----------------------------------------------------------------------------

 scaLAPACK will be used
 Reading from existing POTCAR
 -----------------------------------------------------------------------------
|                                                                             |
|               ----> ADVICE to this user running VASP <----                  |
|                                                                             |
|     You have a (more or less) 'large supercell' and for larger cells it     |
|     might be more efficient to use real-space projection operators.         |
|     Therefore, try LREAL= Auto in the INCAR file.                           |
|     Mind: For very accurate calculation, you might also keep the            |
|     reciprocal projection scheme (i.e. LREAL=.FALSE.).                      |
|                                                                             |
 -----------------------------------------------------------------------------

 LDA part: xc-table for Pade appr. of Perdew
 -----------------------------------------------------------------------------
|                                                                             |
|           W    W    AA    RRRRR   N    N  II  N    N   GGGG   !!!           |
|           W    W   A  A   R    R  NN   N  II  NN   N  G    G  !!!           |
|           W    W  A    A  R    R  N N  N  II  N N  N  G       !!!           |
|           W WW W  AAAAAA  RRRRR   N  N N  II  N  N N  G  GGG   !            |
|           WW  WW  A    A  R   R   N   NN  II  N   NN  G    G                |
|           W    W  A    A  R    R  N    N  II  N    N   GGGG   !!!           |
|                                                                             |
|     The number of bands has been changed from the values supplied in        |
|     the INCAR file. This is a result of running the parallel version.       |
|     The orbitals not found in the WAVECAR file will be initialized with     |
|     random numbers, which is usually adequate. For correlated               |
|     calculations, however, you should redo the groundstate calculation.     |
|     I found NBANDS = 220. Now, NBANDS = 224.                                |
|                                                                             |
 -----------------------------------------------------------------------------

 POSCAR, INCAR and KPOINTS ok, starting setup
 FFT: planning ... GRIDC
 FFT: planning ... GRID_SOFT
 FFT: planning ... GRID
 WAVECAR not read
 WARNING: random wavefunctions but no delay for mixing, default for NELMDL
 entering main loop
       N       E                     dE             d eps       ncg     rms          rms(c)
DAV:   1     0.181167771559E+04    0.18117E+04   -0.14188E+05  7168   0.135E+03
DAV:   2    -0.640451481361E+02   -0.18757E+04   -0.18002E+04  8456   0.205E+02
DAV:   3    -0.281670312723E+03   -0.21763E+03   -0.21175E+03  8568   0.691E+01
DAV:   4    -0.289685817833E+03   -0.80155E+01   -0.79228E+01  8792   0.131E+01
DAV:   5    -0.289966862797E+03   -0.28104E+00   -0.28025E+00  9048   0.210E+00    0.290E+01
DAV:   6    -0.289426135615E+03    0.54073E+00   -0.27052E+01  7944   0.766E+00    0.171E+01
DAV:   7    -0.296742885873E+03   -0.73168E+01   -0.86110E+00  8072   0.447E+00    0.909E+00
DAV:   8    -0.300014950500E+03   -0.32721E+01   -0.17371E+00  8168   0.225E+00    0.329E+00
DAV:   9    -0.300407649061E+03   -0.39270E+00   -0.43833E-01  9048   0.103E+00    0.147E+00
DAV:  10    -0.300507560405E+03   -0.99911E-01   -0.93638E-02  8080   0.461E-01    0.732E-01
DAV:  11    -0.300538649079E+03   -0.31089E-01   -0.37110E-02  9088   0.282E-01    0.283E-01
DAV:  12    -0.300541769884E+03   -0.31208E-02   -0.43040E-03  8296   0.119E-01    0.109E-01
DAV:  13    -0.300541893156E+03   -0.12327E-03   -0.71019E-04  9904   0.407E-02    0.457E-02
DAV:  14    -0.300541911425E+03   -0.18270E-04   -0.95607E-05  8264   0.192E-02    0.170E-02
DAV:  15    -0.300541914401E+03   -0.29759E-05   -0.17053E-05  8648   0.846E-03    0.761E-03
DAV:  16    -0.300541914899E+03   -0.49757E-06   -0.15232E-06  4896   0.275E-03
   1 F= -.30054191E+03 E0= -.30054191E+03  d E =-.443981E-13  mag=     0.0004
