 vasp.6.4.2 20Jul23 (build Oct 12 2023 10:31:02) complex                         
 executed on              LinuxNV date 2025.05.19  09:11:37
 running  160 mpi-ranks, with    1 threads/rank, on   10 nodes
 distrk:  each k-point on   80 cores,    2 groups
 distr:  one band on NCORE=   5 cores,   16 groups


--------------------------------------------------------------------------------------------------------


 INCAR:
   ENCUT = 360.000000
   SIGMA = 0.050000
   EDIFF = 1.00e-06
   ALGO = Normal
   GGA = PE
   PREC = Normal
   SYSTEM = ./
   ICHARG = 2
   ISMEAR = 0
   ISPIN = 1
   ISTART = 0
   ISYM = 0
   KPAR = 2
   LMAXMIX = 4
   NELM = 100
   NPAR = 16
   LASPH = .TRUE.
   LCHARG = .FALSE.
   LWAVE = .FALSE.

 POTCAR:    PAW_PBE Ge 05Jan2001                  
 POTCAR:    PAW_PBE Se 06Sep2000                  
 POTCAR:    PAW_PBE Ge 05Jan2001                  
   VRHFIN =Ge: s2p2                                                                                 
   LEXCH  = PE                                                                                      
   EATOM  =   104.9960 eV,    7.7170 Ry                                                             
                                                                                                    
   TITEL  = PAW_PBE Ge 05Jan2001                                                                    
   LULTRA =        F    use ultrasoft PP ?                                                          
   IUNSCR =        1    unscreen: 0-lin 1-nonlin 2-no                                               
   RPACOR =    2.170    partial core radius                                                         
   POMASS =   72.610; ZVAL   =    4.000    mass and valenz                                          
   RCORE  =    2.300    outmost cutoff radius                                                       
   RWIGS  =    2.300; RWIGS  =    1.217    wigner-seitz radius (au A)                               
   ENMAX  =  173.807; ENMIN  =  130.355 eV                                                          
   ICORE  =        3    local potential                                                             
   LCOR   =        T    correct aug charges                                                         
   LPAW   =        T    paw PP                                                                      
   EAUG   =  385.843                                                                                
   DEXC   =    0.000                                                                                
   RMAX   =    2.342    core radius for proj-oper                                                   
   RAUG   =    1.300    factor for augmentation sphere                                              
   RDEP   =    2.318    radius for radial grids                                                     
   RDEPT  =    2.103    core radius for aug-charge                                                  
                                                                                                    
   Atomic configuration                                                                             
   10 entries                                                                                       
     n  l   j            E        occ.                                                              
     1  0  0.50    -10959.8463   2.0000                                                             
     2  0  0.50     -1371.6056   2.0000                                                             
     2  1  1.50     -1198.4791   6.0000                                                             
     3  0  0.50      -168.4733   2.0000                                                             
     3  1  1.50      -115.6019   6.0000                                                             
     3  2  2.50       -29.3106  10.0000                                                             
     4  0  0.50       -11.7309   2.0000                                                             
     4  1  0.50        -3.8952   2.0000                                                             
     4  2  1.50        -4.0817   0.0000                                                             
     4  3  2.50        -4.0817   0.0000                                                             
   Description                                                                                      
     l       E           TYP  RCUT    TYP  RCUT                                                     
     0    -11.7309493     23  2.300                                                                 
     0     -7.4578696     23  2.300                                                                 
     1     -3.8952261     23  2.300                                                                 
     1      6.1178114     23  2.300                                                                 
     2     -4.0817478     23  2.300                                                                 
     3     -1.3605826      7  2.300                                                                 
  local pseudopotential read in
  partial core-charges read in
  partial kinetic energy density read in
  atomic valenz-charges read in
  non local Contribution for L=            0  read in
    real space projection operators read in
  non local Contribution for L=            0  read in
    real space projection operators read in
  non local Contribution for L=            1  read in
    real space projection operators read in
  non local Contribution for L=            1  read in
    real space projection operators read in
  non local Contribution for L=            2  read in
    real space projection operators read in
    PAW grid and wavefunctions read in
 
   number of l-projection  operators is LMAX  =            5
   number of lm-projection operators is LMMAX =           13
 
 POTCAR:    PAW_PBE Se 06Sep2000                  
   VRHFIN =Se: s2p4                                                                                 
   LEXCH  = PE                                                                                      
   EATOM  =   257.1286 eV,   18.8984 Ry                                                             
                                                                                                    
   TITEL  = PAW_PBE Se 06Sep2000                                                                    
   LULTRA =        F    use ultrasoft PP ?                                                          
   IUNSCR =        1    unscreen: 0-lin 1-nonlin 2-no                                               
   RPACOR =    1.900    partial core radius                                                         
   POMASS =   78.960; ZVAL   =    6.000    mass and valenz                                          
   RCORE  =    2.100    outmost cutoff radius                                                       
   RWIGS  =    2.200; RWIGS  =    1.164    wigner-seitz radius (au A)                               
   ENMAX  =  211.555; ENMIN  =  158.666 eV                                                          
   ICORE  =        3    local potential                                                             
   LCOR   =        T    correct aug charges                                                         
   LPAW   =        T    paw PP                                                                      
   EAUG   =  446.842                                                                                
   DEXC   =    0.000                                                                                
   RMAX   =    2.147    core radius for proj-oper                                                   
   RAUG   =    1.300    factor for augmentation sphere                                              
   RDEP   =    2.177    radius for radial grids                                                     
   RDEPT  =    1.928    core radius for aug-charge                                                  
                                                                                                    
   Atomic configuration                                                                             
   10 entries                                                                                       
     n  l   j            E        occ.                                                              
     1  0  0.50    -12503.4787   2.0000                                                             
     2  0  0.50     -1606.9547   2.0000                                                             
     2  1  1.50     -1413.3140   6.0000                                                             
     3  0  0.50      -213.4885   2.0000                                                             
     3  1  1.50      -152.9538   6.0000                                                             
     3  2  2.50       -53.1221  10.0000                                                             
     4  0  0.50       -17.2865   2.0000                                                             
     4  1  0.50        -6.5110   4.0000                                                             
     4  2  2.50        -6.8029   0.0000                                                             
     4  3  2.50        -6.8029   0.0000                                                             
   Description                                                                                      
     l       E           TYP  RCUT    TYP  RCUT                                                     
     0    -17.2865377     23  2.100                                                                 
     0    -15.3094411     23  2.100                                                                 
     1     -6.5110275     23  2.100                                                                 
     1     -0.0695192     23  2.100                                                                 
     2     -6.8029130     23  2.100                                                                 
     3     -1.3605826      7  2.100                                                                 
  local pseudopotential read in
  partial core-charges read in
  partial kinetic energy density read in
  atomic valenz-charges read in
  non local Contribution for L=            0  read in
    real space projection operators read in
  non local Contribution for L=            0  read in
    real space projection operators read in
  non local Contribution for L=            1  read in
    real space projection operators read in
  non local Contribution for L=            1  read in
    real space projection operators read in
  non local Contribution for L=            2  read in
    real space projection operators read in
    PAW grid and wavefunctions read in
 
   number of l-projection  operators is LMAX  =            5
   number of lm-projection operators is LMMAX =           13
 
  PAW_PBE Ge 05Jan2001                  :
 energy of atom  1       EATOM= -104.9960
 kinetic energy error for atom=    0.0005 (will be added to EATOM!!)
  PAW_PBE Se 06Sep2000                  :
 energy of atom  2       EATOM= -257.1286
 kinetic energy error for atom=    0.0030 (will be added to EATOM!!)
 
 
 POSCAR: Ge Se
  positions in cartesian coordinates
  No initial velocities read in
 exchange correlation table for  LEXCH =        8
   RHO(1)=    0.500       N(1)  =     2000
   RHO(2)=  100.500       N(2)  =     4000
 


--------------------------------------------------------------------------------------------------------


 ion  position               nearest neighbor table
   1  0.699  0.603  0.132-   5 2.59   6 2.60   6 2.60
   2  0.199  0.103  0.368-   6 2.59   5 2.60   5 2.60
   3  0.750  0.904  0.868-   7 2.59   8 2.60   8 2.60
   4  0.250  0.404  0.632-   8 2.59   7 2.60   7 2.60
   5  0.699  0.487  0.351-   1 2.59   2 2.60   2 2.60
   6  0.199  0.987  0.149-   2 2.59   1 2.60   1 2.60
   7  0.750  0.021  0.649-   3 2.59   4 2.60   4 2.60
   8  0.250  0.521  0.851-   4 2.59   3 2.60   3 2.60
 

IMPORTANT INFORMATION: All symmetrisations will be switched off!
NOSYMM: (Re-)initialisation of all symmetry stuff for point group C_1.


----------------------------------------------------------------------------------------

                                     Primitive cell                                     

  volume of cell :     202.3233

  direct lattice vectors                    reciprocal lattice vectors
     3.858100176  0.000000000  0.000000000     0.259194929  0.000000000  0.000000000
     0.000000000  4.526575088  0.000000000     0.000000000  0.220917577  0.000000000
     0.000000000  0.000000000 11.585176468     0.000000000  0.000000000  0.086317200

  length of vectors
     3.858100176  4.526575088 11.585176468     0.259194929  0.220917577  0.086317200

  position of ions in fractional coordinates (direct lattice)
     0.699275365  0.603489734  0.131971745
     0.199275330  0.103489721  0.368028228
     0.749999855  0.903756548  0.868028249
     0.249999781  0.403756501  0.631971759
     0.699275349  0.486712081  0.351109927
     0.199275366  0.986712102  0.148890049
     0.749999761  0.020534152  0.648890076
     0.249999838  0.520534176  0.851109946

  ion indices of the primitive-cell ions
   primitive index   ion index
                 1           1
                 2           2
                 3           3
                 4           4
                 5           5
                 6           6
                 7           7
                 8           8

----------------------------------------------------------------------------------------

 
 
 KPOINTS: KPOINTS created by Atomic Simulation Env

Automatic generation of k-mesh.
 Grid dimensions read from file:
 generate k-points for:    6    6    2

 Generating k-lattice:

  Cartesian coordinates                     Fractional coordinates (reciprocal lattice)
     0.043199155  0.000000000  0.000000000     0.166666667  0.000000000  0.000000000
     0.000000000  0.036819596  0.000000000     0.000000000  0.166666667  0.000000000
     0.000000000  0.000000000  0.043158600     0.000000000  0.000000000  0.500000000

  Length of vectors
     0.043199155  0.036819596  0.043158600

  Shift w.r.t. Gamma in fractional coordinates (k-lattice)
     0.000000000  0.000000000  0.000000000

 
 Subroutine IBZKPT returns following result:
 ===========================================
 
 Found     40 irreducible k-points:
 
 Following reciprocal coordinates:
            Coordinates               Weight
  0.000000  0.000000  0.000000      1.000000
  0.166667  0.000000  0.000000      2.000000
  0.333333  0.000000  0.000000      2.000000
  0.500000  0.000000  0.000000      1.000000
  0.000000  0.166667  0.000000      2.000000
  0.166667  0.166667  0.000000      2.000000
  0.166667 -0.166667  0.000000      2.000000
  0.333333  0.166667  0.000000      2.000000
  0.333333 -0.166667  0.000000      2.000000
  0.500000  0.166667  0.000000      2.000000
  0.000000  0.333333  0.000000      2.000000
  0.166667  0.333333  0.000000      2.000000
  0.166667 -0.333333  0.000000      2.000000
  0.333333  0.333333  0.000000      2.000000
  0.333333 -0.333333  0.000000      2.000000
  0.500000  0.333333  0.000000      2.000000
  0.000000  0.500000  0.000000      1.000000
  0.166667  0.500000  0.000000      2.000000
  0.333333  0.500000  0.000000      2.000000
  0.500000  0.500000  0.000000      1.000000
  0.000000  0.000000  0.500000      1.000000
  0.166667  0.000000  0.500000      2.000000
  0.333333  0.000000  0.500000      2.000000
  0.500000  0.000000  0.500000      1.000000
  0.000000  0.166667  0.500000      2.000000
  0.166667  0.166667  0.500000      2.000000
  0.166667 -0.166667  0.500000      2.000000
  0.333333  0.166667  0.500000      2.000000
  0.333333 -0.166667  0.500000      2.000000
  0.500000  0.166667  0.500000      2.000000
  0.000000  0.333333  0.500000      2.000000
  0.166667  0.333333  0.500000      2.000000
  0.166667 -0.333333  0.500000      2.000000
  0.333333  0.333333  0.500000      2.000000
  0.333333 -0.333333  0.500000      2.000000
  0.500000  0.333333  0.500000      2.000000
  0.000000  0.500000  0.500000      1.000000
  0.166667  0.500000  0.500000      2.000000
  0.333333  0.500000  0.500000      2.000000
  0.500000  0.500000  0.500000      1.000000
 
 Following cartesian coordinates:
            Coordinates               Weight
  0.000000  0.000000  0.000000      1.000000
  0.043199  0.000000  0.000000      2.000000
  0.086398  0.000000  0.000000      2.000000
  0.129597  0.000000  0.000000      1.000000
  0.000000  0.036820  0.000000      2.000000
  0.043199  0.036820  0.000000      2.000000
  0.043199 -0.036820  0.000000      2.000000
  0.086398  0.036820  0.000000      2.000000
  0.086398 -0.036820  0.000000      2.000000
  0.129597  0.036820  0.000000      2.000000
  0.000000  0.073639  0.000000      2.000000
  0.043199  0.073639  0.000000      2.000000
  0.043199 -0.073639  0.000000      2.000000
  0.086398  0.073639  0.000000      2.000000
  0.086398 -0.073639  0.000000      2.000000
  0.129597  0.073639  0.000000      2.000000
  0.000000  0.110459  0.000000      1.000000
  0.043199  0.110459  0.000000      2.000000
  0.086398  0.110459  0.000000      2.000000
  0.129597  0.110459  0.000000      1.000000
  0.000000  0.000000  0.043159      1.000000
  0.043199  0.000000  0.043159      2.000000
  0.086398  0.000000  0.043159      2.000000
  0.129597  0.000000  0.043159      1.000000
  0.000000  0.036820  0.043159      2.000000
  0.043199  0.036820  0.043159      2.000000
  0.043199 -0.036820  0.043159      2.000000
  0.086398  0.036820  0.043159      2.000000
  0.086398 -0.036820  0.043159      2.000000
  0.129597  0.036820  0.043159      2.000000
  0.000000  0.073639  0.043159      2.000000
  0.043199  0.073639  0.043159      2.000000
  0.043199 -0.073639  0.043159      2.000000
  0.086398  0.073639  0.043159      2.000000
  0.086398 -0.073639  0.043159      2.000000
  0.129597  0.073639  0.043159      2.000000
  0.000000  0.110459  0.043159      1.000000
  0.043199  0.110459  0.043159      2.000000
  0.086398  0.110459  0.043159      2.000000
  0.129597  0.110459  0.043159      1.000000
 


--------------------------------------------------------------------------------------------------------




 Dimension of arrays:
   k-points           NKPTS =     40   k-points in BZ     NKDIM =     40   number of bands    NBANDS=     32
   number of dos      NEDOS =    301   number of ions     NIONS =      8
   non local maximal  LDIM  =      5   non local SUM 2l+1 LMDIM =     13
   total plane-waves  NPLWV =  23328
   max r-space proj   IRMAX =      1   max aug-charges    IRDMAX=   6465
   dimension x,y,z NGX =    18 NGY =   24 NGZ =   54
   dimension x,y,z NGXF=    36 NGYF=   48 NGZF=  108
   support grid    NGXF=    36 NGYF=   48 NGZF=  108
   ions per type =               4   4
   NGX,Y,Z   is equivalent  to a cutoff of   7.76,  8.81,  7.75 a.u.
   NGXF,Y,Z  is equivalent  to a cutoff of  15.51, 17.63, 15.50 a.u.

 SYSTEM =  ./                                      
 POSCAR =  Ge Se                                   

 Startparameter for this run:
   NWRITE =      2    write-flag & timer
   PREC   = normal    normal or accurate (medium, high low for compatibility)
   ISTART =      0    job   : 0-new  1-cont  2-samecut
   ICHARG =      2    charge: 1-file 2-atom 10-const
   ISPIN  =      1    spin polarized calculation?
   LNONCOLLINEAR =      F non collinear calculations
   LSORBIT =      F    spin-orbit coupling
   INIWAV =      1    electr: 0-lowe 1-rand  2-diag
   LASPH  =      T    aspherical Exc in radial PAW
 Electronic Relaxation 1
   ENCUT  =  360.0 eV  26.46 Ry    5.14 a.u.   5.97  7.00 17.92*2*pi/ulx,y,z
   ENINI  =  360.0     initial cutoff
   ENAUG  =  446.8 eV  augmentation charge cutoff
   NELM   =    100;   NELMIN=  2; NELMDL= -5     # of ELM steps 
   EDIFF  = 0.1E-05   stopping-criterion for ELM
   LREAL  =      F    real-space projection
   NLSPLINE    = F    spline interpolate recip. space projectors
   LCOMPAT=      F    compatible to vasp.4.4
   GGA_COMPAT  = T    GGA compatible to vasp.4.4-vasp.4.6
   LMAXPAW     = -100 max onsite density
   LMAXMIX     =    4 max onsite mixed and CHGCAR
   VOSKOWN=      0    Vosko Wilk Nusair interpolation
   ROPT   =    0.00000   0.00000
 Ionic relaxation
   EDIFFG = 0.1E-04   stopping-criterion for IOM
   NSW    =      0    number of steps for IOM
   NBLOCK =      1;   KBLOCK =      1    inner block; outer block 
   IBRION =     -1    ionic relax: 0-MD 1-quasi-New 2-CG
   NFREE  =      0    steps in history (QN), initial steepest desc. (CG)
   ISIF   =      2    stress and relaxation
   IWAVPR =     10    prediction:  0-non 1-charg 2-wave 3-comb
   ISYM   =      0    0-nonsym 1-usesym 2-fastsym
   LCORR  =      T    Harris-Foulkes like correction to forces

   POTIM  = 0.5000    time-step for ionic-motion
   TEIN   =    0.0    initial temperature
   TEBEG  =    0.0;   TEEND  =   0.0 temperature during run
   SMASS  =  -3.00    Nose mass-parameter (am)
   estimated Nose-frequenzy (Omega)   =  0.10E-29 period in steps = 0.13E+47 mass=  -0.340E-27a.u.
   SCALEE = 1.0000    scale energy and forces
   NPACO  =    256;   APACO  = 10.0  distance and # of slots for P.C.
   PSTRESS=    0.0 pullay stress

  Mass of Ions in am
   POMASS =  72.61 78.96
  Ionic Valenz
   ZVAL   =   4.00  6.00
  Atomic Wigner-Seitz radii
   RWIGS  =  -1.00 -1.00
  virtual crystal weights 
   VCA    =   1.00  1.00
   NELECT =      40.0000    total number of electrons
   NUPDOWN=      -1.0000    fix difference up-down

 DOS related values:
   EMIN   =  10.00;   EMAX   =-10.00  energy-range for DOS
   EFERMI =   0.00;   METHOD = LEGACY      
   ISMEAR =     0;   SIGMA  =   0.05  broadening in eV -4-tet -1-fermi 0-gaus

 Electronic relaxation 2 (details)
   IALGO  =     38    algorithm
   LDIAG  =      T    sub-space diagonalisation (order eigenvalues)
   LSUBROT=      F    optimize rotation matrix (better conditioning)
   TURBO    =      0    0=normal 1=particle mesh
   IRESTART =      0    0=no restart 2=restart with 2 vectors
   NREBOOT  =      0    no. of reboots
   NMIN     =      0    reboot dimension
   EREF     =   0.00    reference energy to select bands
   IMIX   =      4    mixing-type and parameters
     AMIX     =   0.40;   BMIX     =  1.00
     AMIX_MAG =   1.60;   BMIX_MAG =  1.00
     AMIN     =   0.10
     WC   =   100.;   INIMIX=   1;  MIXPRE=   1;  MAXMIX= -45

 Intra band minimization:
   WEIMIN = 0.0000     energy-eigenvalue tresh-hold
   EBREAK =  0.78E-08  absolut break condition
   DEPER  =   0.30     relativ break condition  

   TIME   =   0.40     timestep for ELM

  volume/ion in A,a.u.               =      25.29       170.67
  Fermi-wavevector in a.u.,A,eV,Ry     =   0.953702  1.802236 12.375155  0.909548
  Thomas-Fermi vector in A             =   2.082382
 
 Write flags
   LWAVE        =      F    write WAVECAR
   LDOWNSAMPLE  =      F    k-point downsampling of WAVECAR
   LCHARG       =      F    write CHGCAR
   LVTOT        =      F    write LOCPOT, total local potential
   LVHAR        =      F    write LOCPOT, Hartree potential only
   LELF         =      F    write electronic localiz. function (ELF)
   LORBIT       =      0    0 simple, 1 ext, 2 COOP (PROOUT), +10 PAW based schemes


 Dipole corrections
   LMONO  =      F    monopole corrections only (constant potential shift)
   LDIPOL =      F    correct potential (dipole corrections)
   IDIPOL =      0    1-x, 2-y, 3-z, 4-all directions 
   EPSILON=  1.0000000 bulk dielectric constant

 Exchange correlation treatment:
   GGA     =    PE    GGA type
   LEXCH   =     8    internal setting for exchange type
   LIBXC   =     F    Libxc                    
   VOSKOWN =     0    Vosko Wilk Nusair interpolation
   LHFCALC =     F    Hartree Fock is set to
   LHFONE  =     F    Hartree Fock one center treatment
   AEXX    =    0.0000 exact exchange contribution

 Linear response parameters
   LEPSILON=     F    determine dielectric tensor
   LRPA    =     F    only Hartree local field effects (RPA)
   LNABLA  =     F    use nabla operator in PAW spheres
   LVEL    =     F    velocity operator in full k-point grid
   CSHIFT  =0.1000    complex shift for real part using Kramers Kronig
   OMEGAMAX=  -1.0    maximum frequency
   DEG_THRESHOLD= 0.2000000E-02 threshold for treating states as degnerate
   RTIME   =   -0.100 relaxation time in fs
  (WPLASMAI=    0.000 imaginary part of plasma frequency in eV, 0.658/RTIME)
   DFIELD  = 0.0000000 0.0000000 0.0000000 field for delta impulse in time
 
  Optional k-point grid parameters
   LKPOINTS_OPT  =     F    use optional k-point grid
   KPOINTS_OPT_MODE=     1    mode for optional k-point grid
 
 Orbital magnetization related:
   ORBITALMAG=     F  switch on orbital magnetization
   LCHIMAG   =     F  perturbation theory with respect to B field
   DQ        =  0.001000  dq finite difference perturbation B field
   LLRAUG    =     F  two centre corrections for induced B field
   LBONE     =     F  B-component reconstruction in AE one-centre
   LVGVCALC  =     T  calculate vGv susceptibility
   LVGVAPPL  =     F  apply vGv susceptibility instead of pGv for G=0

 Random number generation:
   RANDOM_GENERATOR = DEFAULT
   PCG_SEED         = not used


--------------------------------------------------------------------------------------------------------


 Static calculation
 charge density and potential will be updated during run
 non-spin polarized calculation
 Variant of blocked Davidson
 Davidson routine will perform the subspace rotation
 perform sub-space diagonalisation
    after iterative eigenvector-optimisation
 modified Broyden-mixing scheme, WC =      100.0
 initial mixing is a Kerker type mixing with AMIX =  0.4000 and BMIX =      1.0000
 Hartree-type preconditioning will be used
 using additional bands            12
 reciprocal scheme for non local part
 use partial core corrections
 calculate Harris-corrections to forces 
   (improved forces if not selfconsistent)
 use gradient corrections 
 use of overlap-Matrix (Vanderbilt PP)
 Gauss-broadening in eV      SIGMA  =   0.05


--------------------------------------------------------------------------------------------------------


  energy-cutoff  :      360.00
  volume of cell :      202.32
      direct lattice vectors                 reciprocal lattice vectors
     3.858100176  0.000000000  0.000000000     0.259194929  0.000000000  0.000000000
     0.000000000  4.526575088  0.000000000     0.000000000  0.220917577  0.000000000
     0.000000000  0.000000000 11.585176468     0.000000000  0.000000000  0.086317200

  length of vectors
     3.858100176  4.526575088 11.585176468     0.259194929  0.220917577  0.086317200


 
 k-points in units of 2pi/SCALE and weight: KPOINTS created by Atomic Simulation Env
   0.00000000  0.00000000  0.00000000       0.014
   0.04319915  0.00000000  0.00000000       0.028
   0.08639831  0.00000000  0.00000000       0.028
   0.12959746  0.00000000  0.00000000       0.014
   0.00000000  0.03681960  0.00000000       0.028
   0.04319915  0.03681960  0.00000000       0.028
   0.04319915 -0.03681960  0.00000000       0.028
   0.08639831  0.03681960  0.00000000       0.028
   0.08639831 -0.03681960  0.00000000       0.028
   0.12959746  0.03681960  0.00000000       0.028
   0.00000000  0.07363919  0.00000000       0.028
   0.04319915  0.07363919  0.00000000       0.028
   0.04319915 -0.07363919  0.00000000       0.028
   0.08639831  0.07363919  0.00000000       0.028
   0.08639831 -0.07363919  0.00000000       0.028
   0.12959746  0.07363919  0.00000000       0.028
   0.00000000  0.11045879  0.00000000       0.014
   0.04319915  0.11045879  0.00000000       0.028
   0.08639831  0.11045879  0.00000000       0.028
   0.12959746  0.11045879  0.00000000       0.014
   0.00000000  0.00000000  0.04315860       0.014
   0.04319915  0.00000000  0.04315860       0.028
   0.08639831  0.00000000  0.04315860       0.028
   0.12959746  0.00000000  0.04315860       0.014
   0.00000000  0.03681960  0.04315860       0.028
   0.04319915  0.03681960  0.04315860       0.028
   0.04319915 -0.03681960  0.04315860       0.028
   0.08639831  0.03681960  0.04315860       0.028
   0.08639831 -0.03681960  0.04315860       0.028
   0.12959746  0.03681960  0.04315860       0.028
   0.00000000  0.07363919  0.04315860       0.028
   0.04319915  0.07363919  0.04315860       0.028
   0.04319915 -0.07363919  0.04315860       0.028
   0.08639831  0.07363919  0.04315860       0.028
   0.08639831 -0.07363919  0.04315860       0.028
   0.12959746  0.07363919  0.04315860       0.028
   0.00000000  0.11045879  0.04315860       0.014
   0.04319915  0.11045879  0.04315860       0.028
   0.08639831  0.11045879  0.04315860       0.028
   0.12959746  0.11045879  0.04315860       0.014
 
 k-points in reciprocal lattice and weights: KPOINTS created by Atomic Simulation Env
   0.00000000  0.00000000  0.00000000       0.014
   0.16666667  0.00000000  0.00000000       0.028
   0.33333333  0.00000000  0.00000000       0.028
   0.50000000  0.00000000  0.00000000       0.014
   0.00000000  0.16666667  0.00000000       0.028
   0.16666667  0.16666667  0.00000000       0.028
   0.16666667 -0.16666667  0.00000000       0.028
   0.33333333  0.16666667  0.00000000       0.028
   0.33333333 -0.16666667  0.00000000       0.028
   0.50000000  0.16666667  0.00000000       0.028
   0.00000000  0.33333333  0.00000000       0.028
   0.16666667  0.33333333  0.00000000       0.028
   0.16666667 -0.33333333  0.00000000       0.028
   0.33333333  0.33333333  0.00000000       0.028
   0.33333333 -0.33333333  0.00000000       0.028
   0.50000000  0.33333333  0.00000000       0.028
   0.00000000  0.50000000  0.00000000       0.014
   0.16666667  0.50000000  0.00000000       0.028
   0.33333333  0.50000000  0.00000000       0.028
   0.50000000  0.50000000  0.00000000       0.014
   0.00000000  0.00000000  0.50000000       0.014
   0.16666667  0.00000000  0.50000000       0.028
   0.33333333  0.00000000  0.50000000       0.028
   0.50000000  0.00000000  0.50000000       0.014
   0.00000000  0.16666667  0.50000000       0.028
   0.16666667  0.16666667  0.50000000       0.028
   0.16666667 -0.16666667  0.50000000       0.028
   0.33333333  0.16666667  0.50000000       0.028
   0.33333333 -0.16666667  0.50000000       0.028
   0.50000000  0.16666667  0.50000000       0.028
   0.00000000  0.33333333  0.50000000       0.028
   0.16666667  0.33333333  0.50000000       0.028
   0.16666667 -0.33333333  0.50000000       0.028
   0.33333333  0.33333333  0.50000000       0.028
   0.33333333 -0.33333333  0.50000000       0.028
   0.50000000  0.33333333  0.50000000       0.028
   0.00000000  0.50000000  0.50000000       0.014
   0.16666667  0.50000000  0.50000000       0.028
   0.33333333  0.50000000  0.50000000       0.028
   0.50000000  0.50000000  0.50000000       0.014
 
 position of ions in fractional coordinates (direct lattice) 
   0.69927537  0.60348973  0.13197174
   0.19927533  0.10348972  0.36802823
   0.74999985  0.90375655  0.86802825
   0.24999978  0.40375650  0.63197176
   0.69927535  0.48671208  0.35110993
   0.19927537  0.98671210  0.14889005
   0.74999976  0.02053415  0.64889008
   0.24999984  0.52053418  0.85110995
 
 position of ions in cartesian coordinates  (Angst):
   2.69787441  2.73174160  1.52891595
   0.76882418  0.46845400  4.26367197
   2.89357457  4.09092188 10.05626045
   0.96452420  1.82763412  7.32150435
   2.69787435  2.20313878  4.06767047
   0.76882432  4.46642642  1.72491749
   2.89357421  0.09294938  7.51750603
   0.96452442  2.35623703  9.86025892
 


--------------------------------------------------------------------------------------------------------


 k-point   1 :   0.0000 0.0000 0.0000  plane waves:    3119
 k-point   2 :   0.1667 0.0000 0.0000  plane waves:    3116
 k-point   3 :   0.3333 0.0000 0.0000  plane waves:    3142
 k-point   4 :   0.5000 0.0000 0.0000  plane waves:    3148
 k-point   5 :   0.0000 0.1667 0.0000  plane waves:    3108
 k-point   6 :   0.1667 0.1667 0.0000  plane waves:    3123
 k-point   7 :   0.1667-0.1667 0.0000  plane waves:    3123
 k-point   8 :   0.3333 0.1667 0.0000  plane waves:    3135
 k-point   9 :   0.3333-0.1667 0.0000  plane waves:    3135
 k-point  10 :   0.5000 0.1667 0.0000  plane waves:    3138
 k-point  11 :   0.0000 0.3333 0.0000  plane waves:    3116
 k-point  12 :   0.1667 0.3333 0.0000  plane waves:    3133
 k-point  13 :   0.1667-0.3333 0.0000  plane waves:    3133
 k-point  14 :   0.3333 0.3333 0.0000  plane waves:    3155
 k-point  15 :   0.3333-0.3333 0.0000  plane waves:    3155
 k-point  16 :   0.5000 0.3333 0.0000  plane waves:    3152
 k-point  17 :   0.0000 0.5000 0.0000  plane waves:    3134
 k-point  18 :   0.1667 0.5000 0.0000  plane waves:    3140
 k-point  19 :   0.3333 0.5000 0.0000  plane waves:    3144
 k-point  20 :   0.5000 0.5000 0.0000  plane waves:    3144
 k-point  21 :   0.0000 0.0000 0.5000  plane waves:    3092
 k-point  22 :   0.1667 0.0000 0.5000  plane waves:    3124
 k-point  23 :   0.3333 0.0000 0.5000  plane waves:    3140
 k-point  24 :   0.5000 0.0000 0.5000  plane waves:    3132
 k-point  25 :   0.0000 0.1667 0.5000  plane waves:    3112
 k-point  26 :   0.1667 0.1667 0.5000  plane waves:    3140
 k-point  27 :   0.1667-0.1667 0.5000  plane waves:    3140
 k-point  28 :   0.3333 0.1667 0.5000  plane waves:    3134
 k-point  29 :   0.3333-0.1667 0.5000  plane waves:    3134
 k-point  30 :   0.5000 0.1667 0.5000  plane waves:    3144
 k-point  31 :   0.0000 0.3333 0.5000  plane waves:    3130
 k-point  32 :   0.1667 0.3333 0.5000  plane waves:    3148
 k-point  33 :   0.1667-0.3333 0.5000  plane waves:    3148
 k-point  34 :   0.3333 0.3333 0.5000  plane waves:    3142
 k-point  35 :   0.3333-0.3333 0.5000  plane waves:    3142
 k-point  36 :   0.5000 0.3333 0.5000  plane waves:    3152
 k-point  37 :   0.0000 0.5000 0.5000  plane waves:    3132
 k-point  38 :   0.1667 0.5000 0.5000  plane waves:    3148
 k-point  39 :   0.3333 0.5000 0.5000  plane waves:    3140
 k-point  40 :   0.5000 0.5000 0.5000  plane waves:    3160

 maximum and minimum number of plane-waves per node :       659      606

 maximum number of plane-waves:      3160
 maximum index in each direction: 
   IXMAX=    5   IYMAX=    7   IZMAX=   17
   IXMIN=   -6   IYMIN=   -7   IZMIN=  -18


 parallel 3D FFT for wavefunctions:
    minimum data exchange during FFTs selected (reduces bandwidth)
 parallel 3D FFT for charge:
    minimum data exchange during FFTs selected (reduces bandwidth)


 total amount of memory used by VASP MPI-rank0    37119. kBytes
=======================================================================

   base      :      30000. kBytes
   nonl-proj :       5406. kBytes
   fftplans  :        334. kBytes
   grid      :        503. kBytes
   one-center:         16. kBytes
   wavefun   :        860. kBytes
 
     INWAV:  cpu time      0.0000: real time      0.0001
 Broyden mixing: mesh for mixing (old mesh)
   NGX = 11   NGY = 15   NGZ = 35
  (NGX  = 36   NGY  = 48   NGZ  =108)
  gives a total of   5775 points

 initial charge density was supplied:
 charge density of overlapping atoms calculated
 number of electron      40.0000000 magnetization 
 keeping initial charge density in first step


--------------------------------------------------------------------------------------------------------


 Maximum index for augmentation-charges           238 (set IRDMAX)


--------------------------------------------------------------------------------------------------------


 First call to EWALD:  gamma=   0.302
 Maximum number of real-space cells 4x 3x 2
 Maximum number of reciprocal cells 2x 2x 5

    FEWALD:  cpu time      0.0010: real time      0.0011


--------------------------------------- Ionic step        1  -------------------------------------------




--------------------------------------- Iteration      1(   1)  ---------------------------------------


    POTLOK:  cpu time      0.0085: real time      0.0085
    SETDIJ:  cpu time      0.2186: real time      0.2190
     EDDAV:  cpu time      0.3148: real time      0.3162
       DOS:  cpu time      0.0012: real time      0.0012
    --------------------------------------------
      LOOP:  cpu time      0.5431: real time      0.5450

 eigenvalue-minimisations  :  2560
 total energy-change (2. order) : 0.1310746E+03  (-0.1287880E+04)
 number of electron      40.0000000 magnetization 
 augmentation part       40.0000000 magnetization 

 Free energy of the ion-electron system (eV)
  ---------------------------------------------------
  alpha Z        PSCENC =        83.74935623
  Ewald energy   TEWEN  =     -1381.93959499
  -Hartree energ DENC   =      -147.42089364
  -exchange      EXHF   =         0.00000000
  -V(xc)+E(xc)   XCENC  =       -33.74645252
  PAW double counting   =      1193.78262552    -1080.73714043
  entropy T*S    EENTRO =        -0.00518694
  eigenvalues    EBANDS =        48.90731056
  atomic energy  EATOM  =      1448.48460880
  Solvation  Ediel_sol  =         0.00000000
  ---------------------------------------------------
  free energy    TOTEN  =       131.07463259 eV

  energy without entropy =      131.07981953  energy(sigma->0) =      131.07722606


--------------------------------------------------------------------------------------------------------




--------------------------------------- Iteration      1(   2)  ---------------------------------------


     EDDAV:  cpu time      0.4410: real time      0.4437
       DOS:  cpu time      0.0008: real time      0.0008
    --------------------------------------------
      LOOP:  cpu time      0.4418: real time      0.4445

 eigenvalue-minimisations  :  3776
 total energy-change (2. order) :-0.1564260E+03  (-0.1515152E+03)
 number of electron      40.0000000 magnetization 
 augmentation part       40.0000000 magnetization 

 Free energy of the ion-electron system (eV)
  ---------------------------------------------------
  alpha Z        PSCENC =        83.74935623
  Ewald energy   TEWEN  =     -1381.93959499
  -Hartree energ DENC   =      -147.42089364
  -exchange      EXHF   =         0.00000000
  -V(xc)+E(xc)   XCENC  =       -33.74645252
  PAW double counting   =      1193.78262552    -1080.73714043
  entropy T*S    EENTRO =        -0.00000014
  eigenvalues    EBANDS =      -107.52390412
  atomic energy  EATOM  =      1448.48460880
  Solvation  Ediel_sol  =         0.00000000
  ---------------------------------------------------
  free energy    TOTEN  =       -25.35139529 eV

  energy without entropy =      -25.35139515  energy(sigma->0) =      -25.35139522


--------------------------------------------------------------------------------------------------------




--------------------------------------- Iteration      1(   3)  ---------------------------------------


     EDDAV:  cpu time      0.3630: real time      0.3654
       DOS:  cpu time      0.0005: real time      0.0005
    --------------------------------------------
      LOOP:  cpu time      0.3635: real time      0.3658

 eigenvalue-minimisations  :  3184
 total energy-change (2. order) :-0.8704692E+01  (-0.8688622E+01)
 number of electron      40.0000000 magnetization 
 augmentation part       40.0000000 magnetization 

 Free energy of the ion-electron system (eV)
  ---------------------------------------------------
  alpha Z        PSCENC =        83.74935623
  Ewald energy   TEWEN  =     -1381.93959499
  -Hartree energ DENC   =      -147.42089364
  -exchange      EXHF   =         0.00000000
  -V(xc)+E(xc)   XCENC  =       -33.74645252
  PAW double counting   =      1193.78262552    -1080.73714043
  entropy T*S    EENTRO =        -0.00000000
  eigenvalues    EBANDS =      -116.22859613
  atomic energy  EATOM  =      1448.48460880
  Solvation  Ediel_sol  =         0.00000000
  ---------------------------------------------------
  free energy    TOTEN  =       -34.05608716 eV

  energy without entropy =      -34.05608716  energy(sigma->0) =      -34.05608716


--------------------------------------------------------------------------------------------------------




--------------------------------------- Iteration      1(   4)  ---------------------------------------


     EDDAV:  cpu time      0.3770: real time      0.3787
       DOS:  cpu time      0.0005: real time      0.0005
    --------------------------------------------
      LOOP:  cpu time      0.3775: real time      0.3793

 eigenvalue-minimisations  :  3232
 total energy-change (2. order) :-0.6135628E-01  (-0.6134597E-01)
 number of electron      40.0000000 magnetization 
 augmentation part       40.0000000 magnetization 

 Free energy of the ion-electron system (eV)
  ---------------------------------------------------
  alpha Z        PSCENC =        83.74935623
  Ewald energy   TEWEN  =     -1381.93959499
  -Hartree energ DENC   =      -147.42089364
  -exchange      EXHF   =         0.00000000
  -V(xc)+E(xc)   XCENC  =       -33.74645252
  PAW double counting   =      1193.78262552    -1080.73714043
  entropy T*S    EENTRO =        -0.00000000
  eigenvalues    EBANDS =      -116.28995241
  atomic energy  EATOM  =      1448.48460880
  Solvation  Ediel_sol  =         0.00000000
  ---------------------------------------------------
  free energy    TOTEN  =       -34.11744344 eV

  energy without entropy =      -34.11744344  energy(sigma->0) =      -34.11744344


--------------------------------------------------------------------------------------------------------




--------------------------------------- Iteration      1(   5)  ---------------------------------------


     EDDAV:  cpu time      0.3743: real time      0.3777
       DOS:  cpu time      0.0005: real time      0.0005
    CHARGE:  cpu time      0.0056: real time      0.0056
    MIXING:  cpu time      0.0004: real time      0.0004
    --------------------------------------------
      LOOP:  cpu time      0.3808: real time      0.3842

 eigenvalue-minimisations  :  3200
 total energy-change (2. order) :-0.4418580E-03  (-0.4418249E-03)
 number of electron      39.9999963 magnetization 
 augmentation part       -7.4131382 magnetization 

 Broyden mixing:
  rms(total) = 0.64257E+00    rms(broyden)= 0.64255E+00
  rms(prec ) = 0.72269E+00
  weight for this iteration     100.00

 Free energy of the ion-electron system (eV)
  ---------------------------------------------------
  alpha Z        PSCENC =        83.74935623
  Ewald energy   TEWEN  =     -1381.93959499
  -Hartree energ DENC   =      -147.42089364
  -exchange      EXHF   =         0.00000000
  -V(xc)+E(xc)   XCENC  =       -33.74645252
  PAW double counting   =      1193.78262552    -1080.73714043
  entropy T*S    EENTRO =        -0.00000000
  eigenvalues    EBANDS =      -116.29039427
  atomic energy  EATOM  =      1448.48460880
  Solvation  Ediel_sol  =         0.00000000
  ---------------------------------------------------
  free energy    TOTEN  =       -34.11788530 eV

  energy without entropy =      -34.11788530  energy(sigma->0) =      -34.11788530


--------------------------------------------------------------------------------------------------------




--------------------------------------- Iteration      1(   6)  ---------------------------------------


    POTLOK:  cpu time      0.0077: real time      0.0078
    SETDIJ:  cpu time      0.2175: real time      0.2180
     EDDAV:  cpu time      0.3680: real time      0.3701
       DOS:  cpu time      0.0010: real time      0.0010
    CHARGE:  cpu time      0.0053: real time      0.0054
    MIXING:  cpu time      0.0005: real time      0.0005
    --------------------------------------------
      LOOP:  cpu time      0.6000: real time      0.6027

 eigenvalue-minimisations  :  3152
 total energy-change (2. order) : 0.3975791E+00  (-0.8197115E-01)
 number of electron      39.9999964 magnetization 
 augmentation part       -7.3542823 magnetization 

 Broyden mixing:
  rms(total) = 0.40385E+00    rms(broyden)= 0.40385E+00
  rms(prec ) = 0.42372E+00
  weight for this iteration     100.00

 eigenvalues of (default mixing * dielectric matrix)
  average eigenvalue GAMMA=   2.1627
  2.1627

 Free energy of the ion-electron system (eV)
  ---------------------------------------------------
  alpha Z        PSCENC =        83.74935623
  Ewald energy   TEWEN  =     -1381.93959499
  -Hartree energ DENC   =      -153.46053134
  -exchange      EXHF   =         0.00000000
  -V(xc)+E(xc)   XCENC  =       -33.12941787
  PAW double counting   =      1453.69541069    -1340.96502713
  entropy T*S    EENTRO =        -0.00006181
  eigenvalues    EBANDS =      -110.15504882
  atomic energy  EATOM  =      1448.48460880
  Solvation  Ediel_sol  =         0.00000000
  ---------------------------------------------------
  free energy    TOTEN  =       -33.72030623 eV

  energy without entropy =      -33.72024442  energy(sigma->0) =      -33.72027532


--------------------------------------------------------------------------------------------------------




--------------------------------------- Iteration      1(   7)  ---------------------------------------


    POTLOK:  cpu time      0.0077: real time      0.0078
    SETDIJ:  cpu time      0.2171: real time      0.2176
     EDDAV:  cpu time      0.3623: real time      0.3647
       DOS:  cpu time      0.0010: real time      0.0010
    CHARGE:  cpu time      0.0054: real time      0.0054
    MIXING:  cpu time      0.0005: real time      0.0005
    --------------------------------------------
      LOOP:  cpu time      0.5939: real time      0.5970

 eigenvalue-minimisations  :  3104
 total energy-change (2. order) : 0.9078592E-02  (-0.2307203E-01)
 number of electron      39.9999964 magnetization 
 augmentation part       -7.3378682 magnetization 

 Broyden mixing:
  rms(total) = 0.13088E+00    rms(broyden)= 0.13088E+00
  rms(prec ) = 0.13936E+00
  weight for this iteration     100.00

 eigenvalues of (default mixing * dielectric matrix)
  average eigenvalue GAMMA=   1.7952
  1.2096  2.3809

 Free energy of the ion-electron system (eV)
  ---------------------------------------------------
  alpha Z        PSCENC =        83.74935623
  Ewald energy   TEWEN  =     -1381.93959499
  -Hartree energ DENC   =      -156.17444725
  -exchange      EXHF   =         0.00000000
  -V(xc)+E(xc)   XCENC  =       -32.65547279
  PAW double counting   =      1773.30940428    -1660.80873677
  entropy T*S    EENTRO =        -0.00038486
  eigenvalues    EBANDS =      -107.67596028
  atomic energy  EATOM  =      1448.48460880
  Solvation  Ediel_sol  =         0.00000000
  ---------------------------------------------------
  free energy    TOTEN  =       -33.71122764 eV

  energy without entropy =      -33.71084278  energy(sigma->0) =      -33.71103521


--------------------------------------------------------------------------------------------------------




--------------------------------------- Iteration      1(   8)  ---------------------------------------


    POTLOK:  cpu time      0.0078: real time      0.0079
    SETDIJ:  cpu time      0.2176: real time      0.2180
     EDDAV:  cpu time      0.3733: real time      0.3753
       DOS:  cpu time      0.0010: real time      0.0010
    CHARGE:  cpu time      0.0058: real time      0.0058
    MIXING:  cpu time      0.0005: real time      0.0005
    --------------------------------------------
      LOOP:  cpu time      0.6060: real time      0.6086

 eigenvalue-minimisations  :  2976
 total energy-change (2. order) : 0.2158918E-02  (-0.2627188E-02)
 number of electron      39.9999964 magnetization 
 augmentation part       -7.3475760 magnetization 

 Broyden mixing:
  rms(total) = 0.17514E-01    rms(broyden)= 0.17514E-01
  rms(prec ) = 0.21385E-01
  weight for this iteration     100.00

 eigenvalues of (default mixing * dielectric matrix)
  average eigenvalue GAMMA=   1.6940
  2.5074  1.2873  1.2873

 Free energy of the ion-electron system (eV)
  ---------------------------------------------------
  alpha Z        PSCENC =        83.74935623
  Ewald energy   TEWEN  =     -1381.93959499
  -Hartree energ DENC   =      -156.20437166
  -exchange      EXHF   =         0.00000000
  -V(xc)+E(xc)   XCENC  =       -32.51849892
  PAW double counting   =      1911.47411967    -1799.03029931
  entropy T*S    EENTRO =        -0.00015674
  eigenvalues    EBANDS =      -107.72423180
  atomic energy  EATOM  =      1448.48460880
  Solvation  Ediel_sol  =         0.00000000
  ---------------------------------------------------
  free energy    TOTEN  =       -33.70906872 eV

  energy without entropy =      -33.70891198  energy(sigma->0) =      -33.70899035


--------------------------------------------------------------------------------------------------------




--------------------------------------- Iteration      1(   9)  ---------------------------------------


    POTLOK:  cpu time      0.0078: real time      0.0080
    SETDIJ:  cpu time      0.2170: real time      0.2175
     EDDAV:  cpu time      0.3887: real time      0.3911
       DOS:  cpu time      0.0010: real time      0.0010
    CHARGE:  cpu time      0.0058: real time      0.0058
    MIXING:  cpu time      0.0005: real time      0.0005
    --------------------------------------------
      LOOP:  cpu time      0.6208: real time      0.6240

 eigenvalue-minimisations  :  3296
 total energy-change (2. order) :-0.2366605E-03  (-0.3702162E-03)
 number of electron      39.9999964 magnetization 
 augmentation part       -7.3453439 magnetization 

 Broyden mixing:
  rms(total) = 0.65486E-02    rms(broyden)= 0.65485E-02
  rms(prec ) = 0.73552E-02
  weight for this iteration     100.00

 eigenvalues of (default mixing * dielectric matrix)
  average eigenvalue GAMMA=   1.7565
  2.3377  2.3377  1.1752  1.1752

 Free energy of the ion-electron system (eV)
  ---------------------------------------------------
  alpha Z        PSCENC =        83.74935623
  Ewald energy   TEWEN  =     -1381.93959499
  -Hartree energ DENC   =      -156.61879313
  -exchange      EXHF   =         0.00000000
  -V(xc)+E(xc)   XCENC  =       -32.47410623
  PAW double counting   =      1925.01029170    -1812.57753950
  entropy T*S    EENTRO =        -0.00021151
  eigenvalues    EBANDS =      -107.34331676
  atomic energy  EATOM  =      1448.48460880
  Solvation  Ediel_sol  =         0.00000000
  ---------------------------------------------------
  free energy    TOTEN  =       -33.70930538 eV

  energy without entropy =      -33.70909387  energy(sigma->0) =      -33.70919963


--------------------------------------------------------------------------------------------------------




--------------------------------------- Iteration      1(  10)  ---------------------------------------


    POTLOK:  cpu time      0.0078: real time      0.0079
    SETDIJ:  cpu time      0.2164: real time      0.2168
     EDDAV:  cpu time      0.3516: real time      0.3537
       DOS:  cpu time      0.0010: real time      0.0010
    CHARGE:  cpu time      0.0053: real time      0.0053
    MIXING:  cpu time      0.0005: real time      0.0005
    --------------------------------------------
      LOOP:  cpu time      0.5826: real time      0.5853

 eigenvalue-minimisations  :  3040
 total energy-change (2. order) :-0.8701868E-04  (-0.2874185E-04)
 number of electron      39.9999964 magnetization 
 augmentation part       -7.3454343 magnetization 

 Broyden mixing:
  rms(total) = 0.22910E-02    rms(broyden)= 0.22910E-02
  rms(prec ) = 0.27075E-02
  weight for this iteration     100.00

 eigenvalues of (default mixing * dielectric matrix)
  average eigenvalue GAMMA=   1.7550
  2.7311  2.4820  1.1823  1.1899  1.1899

 Free energy of the ion-electron system (eV)
  ---------------------------------------------------
  alpha Z        PSCENC =        83.74935623
  Ewald energy   TEWEN  =     -1381.93959499
  -Hartree energ DENC   =      -156.63981625
  -exchange      EXHF   =         0.00000000
  -V(xc)+E(xc)   XCENC  =       -32.47163132
  PAW double counting   =      1918.25192541    -1805.81353771
  entropy T*S    EENTRO =        -0.00019622
  eigenvalues    EBANDS =      -107.33050635
  atomic energy  EATOM  =      1448.48460880
  Solvation  Ediel_sol  =         0.00000000
  ---------------------------------------------------
  free energy    TOTEN  =       -33.70939240 eV

  energy without entropy =      -33.70919618  energy(sigma->0) =      -33.70929429


--------------------------------------------------------------------------------------------------------




--------------------------------------- Iteration      1(  11)  ---------------------------------------


    POTLOK:  cpu time      0.0077: real time      0.0078
    SETDIJ:  cpu time      0.2163: real time      0.2168
     EDDAV:  cpu time      0.3784: real time      0.3804
       DOS:  cpu time      0.0010: real time      0.0010
    CHARGE:  cpu time      0.0054: real time      0.0054
    MIXING:  cpu time      0.0005: real time      0.0005
    --------------------------------------------
      LOOP:  cpu time      0.6092: real time      0.6118

 eigenvalue-minimisations  :  3200
 total energy-change (2. order) :-0.2618672E-04  (-0.3647825E-05)
 number of electron      39.9999964 magnetization 
 augmentation part       -7.3455483 magnetization 

 Broyden mixing:
  rms(total) = 0.11559E-02    rms(broyden)= 0.11559E-02
  rms(prec ) = 0.12874E-02
  weight for this iteration     100.00

 eigenvalues of (default mixing * dielectric matrix)
  average eigenvalue GAMMA=   1.7549
  2.5449  2.5449  2.1683  1.1615  1.1615  0.9481

 Free energy of the ion-electron system (eV)
  ---------------------------------------------------
  alpha Z        PSCENC =        83.74935623
  Ewald energy   TEWEN  =     -1381.93959499
  -Hartree energ DENC   =      -156.67250317
  -exchange      EXHF   =         0.00000000
  -V(xc)+E(xc)   XCENC  =       -32.46519128
  PAW double counting   =      1919.75573370    -1807.31771778
  entropy T*S    EENTRO =        -0.00019391
  eigenvalues    EBANDS =      -107.30391618
  atomic energy  EATOM  =      1448.48460880
  Solvation  Ediel_sol  =         0.00000000
  ---------------------------------------------------
  free energy    TOTEN  =       -33.70941859 eV

  energy without entropy =      -33.70922468  energy(sigma->0) =      -33.70932163


--------------------------------------------------------------------------------------------------------




--------------------------------------- Iteration      1(  12)  ---------------------------------------


    POTLOK:  cpu time      0.0076: real time      0.0077
    SETDIJ:  cpu time      0.2170: real time      0.2177
     EDDAV:  cpu time      0.4030: real time      0.4052
       DOS:  cpu time      0.0010: real time      0.0010
    --------------------------------------------
      LOOP:  cpu time      0.6286: real time      0.6317

 eigenvalue-minimisations  :  3216
 total energy-change (2. order) :-0.6131510E-06  (-0.5988061E-06)
 number of electron      39.9999964 magnetization 
 augmentation part       -7.3455483 magnetization 

 Free energy of the ion-electron system (eV)
  ---------------------------------------------------
  alpha Z        PSCENC =        83.74935623
  Ewald energy   TEWEN  =     -1381.93959499
  -Hartree energ DENC   =      -156.68335961
  -exchange      EXHF   =         0.00000000
  -V(xc)+E(xc)   XCENC  =       -32.46425534
  PAW double counting   =      1919.19582688    -1806.75767751
  entropy T*S    EENTRO =        -0.00019620
  eigenvalues    EBANDS =      -107.29412746
  atomic energy  EATOM  =      1448.48460880
  Solvation  Ediel_sol  =         0.00000000
  ---------------------------------------------------
  free energy    TOTEN  =       -33.70941920 eV

  energy without entropy =      -33.70922300  energy(sigma->0) =      -33.70932110


--------------------------------------------------------------------------------------------------------




 average (electrostatic) potential at core
  the test charge radii are     1.1631  1.0808
  (the norm of the test charge is              1.0000)
       1 -33.8351       2 -33.8351       3 -33.8351       4 -33.8351       5 -55.3196
       6 -55.3196       7 -55.3196       8 -55.3197
 
 
 
 E-fermi :   2.9513     XC(G=0):  -9.0687     alpha+bet : -8.3433

 Fermi energy:         2.9512849954

 k-point     1 :       0.0000    0.0000    0.0000
  band No.  band energies     occupation 
      1     -11.2384      2.00000
      2     -11.0228      2.00000
      3      -9.9716      2.00000
      4      -9.6556      2.00000
      5      -4.9960      2.00000
      6      -4.4869      2.00000
      7      -2.8416      2.00000
      8      -2.8018      2.00000
      9      -2.1328      2.00000
     10      -0.7667      2.00000
     11      -0.2866      2.00000
     12      -0.2557      2.00000
     13      -0.1132      2.00000
     14       0.1470      2.00000
     15       0.8182      2.00000
     16       1.1052      2.00000
     17       1.4873      2.00000
     18       1.7804      2.00000
     19       2.2167      2.00000
     20       2.7421      2.00000
     21       3.0114      0.08893
     22       5.5664      0.00000
     23       5.5864      0.00000
     24       5.7487      0.00000
     25       5.7976      0.00000
     26       6.7293      0.00000
     27       6.8292      0.00000
     28       7.0243      0.00000
     29       7.8795      0.00000
     30       8.2140      0.00000
     31       8.3241      0.00000
     32       8.3669      0.00000

 k-point     2 :       0.1667    0.0000    0.0000
  band No.  band energies     occupation 
      1     -11.0519      2.00000
      2     -10.8448      2.00000
      3      -9.8667      2.00000
      4      -9.5839      2.00000
      5      -5.2566      2.00000
      6      -4.6809      2.00000
      7      -3.3947      2.00000
      8      -3.1389      2.00000
      9      -1.9776      2.00000
     10      -0.6543      2.00000
     11      -0.3355      2.00000
     12      -0.2890      2.00000
     13      -0.1377      2.00000
     14       0.1132      2.00000
     15       0.7105      2.00000
     16       1.0569      2.00000
     17       1.4177      2.00000
     18       1.9502      2.00000
     19       2.1672      2.00000
     20       2.5665      2.00000
     21       3.1526      0.00000
     22       5.1802      0.00000
     23       5.5646      0.00000
     24       6.1201      0.00000
     25       6.2790      0.00000
     26       6.3707      0.00000
     27       6.4831      0.00000
     28       7.0660      0.00000
     29       7.3016      0.00000
     30       7.4794      0.00000
     31       7.5931      0.00000
     32       8.2514      0.00000

 k-point     3 :       0.3333    0.0000    0.0000
  band No.  band energies     occupation 
      1     -10.5480      2.00000
      2     -10.3670      2.00000
      3      -9.7190      2.00000
      4      -9.5229      2.00000
      5      -5.7464      2.00000
      6      -5.0502      2.00000
      7      -4.6258      2.00000
      8      -4.0607      2.00000
      9      -1.3921      2.00000
     10      -0.5853      2.00000
     11      -0.2882      2.00000
     12       0.1335      2.00000
     13       0.2278      2.00000
     14       0.5548      2.00000
     15       0.7686      2.00000
     16       0.8708      2.00000
     17       1.6566      2.00000
     18       1.8228      2.00000
     19       1.9800      2.00000
     20       2.0686      2.00000
     21       3.7498      0.00000
     22       3.9121      0.00000
     23       4.4472      0.00000
     24       4.8798      0.00000
     25       5.3233      0.00000
     26       5.5171      0.00000
     27       5.6105      0.00000
     28       6.1885      0.00000
     29       6.5188      0.00000
     30       6.6200      0.00000
     31       7.5661      0.00000
     32       8.2760      0.00000

 k-point     4 :       0.5000    0.0000    0.0000
  band No.  band energies     occupation 
      1      -9.9561      2.00000
      2      -9.9561      2.00000
      3      -9.8032      2.00000
      4      -9.8032      2.00000
      5      -5.6171      2.00000
      6      -5.6171      2.00000
      7      -4.9040      2.00000
      8      -4.9040      2.00000
      9      -0.6574      2.00000
     10      -0.6574      2.00000
     11       0.2360      2.00000
     12       0.2360      2.00000
     13       0.5719      2.00000
     14       0.5719      2.00000
     15       0.8620      2.00000
     16       0.8620      2.00000
     17       1.5343      2.00000
     18       1.5343      2.00000
     19       1.8293      2.00000
     20       1.8293      2.00000
     21       3.9346      0.00000
     22       3.9346      0.00000
     23       4.4102      0.00000
     24       4.4102      0.00000
     25       4.6634      0.00000
     26       4.6634      0.00000
     27       5.4428      0.00000
     28       5.4428      0.00000
     29       5.4840      0.00000
     30       5.4840      0.00000
     31       8.0102      0.00000
     32       8.0102      0.00000

 k-point     5 :       0.0000    0.1667    0.0000
  band No.  band energies     occupation 
      1     -11.1241      2.00000
      2     -10.9162      2.00000
      3      -9.9839      2.00000
      4      -9.7103      2.00000
      5      -5.2013      2.00000
      6      -4.7384      2.00000
      7      -3.6039      2.00000
      8      -3.1675      2.00000
      9      -1.8845      2.00000
     10      -0.2792      2.00000
     11       0.0225      2.00000
     12       0.0274      2.00000
     13       0.1299      2.00000
     14       0.2803      2.00000
     15       1.1348      2.00000
     16       1.4671      2.00000
     17       1.5217      2.00000
     18       1.6352      2.00000
     19       2.1131      2.00000
     20       2.5990      2.00000
     21       3.4892      0.00000
     22       5.0133      0.00000
     23       5.5348      0.00000
     24       5.5439      0.00000
     25       5.7589      0.00000
     26       6.2924      0.00000
     27       6.3986      0.00000
     28       7.0696      0.00000
     29       7.5039      0.00000
     30       7.5586      0.00000
     31       7.8333      0.00000
     32       8.0466      0.00000

 k-point     6 :       0.1667    0.1667    0.0000
  band No.  band energies     occupation 
      1     -10.9427      2.00000
      2     -10.7442      2.00000
      3      -9.8782      2.00000
      4      -9.6352      2.00000
      5      -5.3307      2.00000
      6      -4.8081      2.00000
      7      -3.8058      2.00000
      8      -3.4369      2.00000
      9      -1.7290      2.00000
     10      -1.0117      2.00000
     11      -0.8534      2.00000
     12      -0.1340      2.00000
     13       0.4743      2.00000
     14       0.6611      2.00000
     15       0.8110      2.00000
     16       0.8495      2.00000
     17       1.6701      2.00000
     18       1.9501      2.00000
     19       2.1653      2.00000
     20       2.5317      2.00000
     21       3.6154      0.00000
     22       4.8743      0.00000
     23       5.0837      0.00000
     24       5.5640      0.00000
     25       6.0023      0.00000
     26       6.4780      0.00000
     27       6.7740      0.00000
     28       7.1275      0.00000
     29       7.1524      0.00000
     30       7.3112      0.00000
     31       7.3888      0.00000
     32       8.2565      0.00000

 k-point     7 :       0.1667   -0.1667    0.0000
  band No.  band energies     occupation 
      1     -10.9429      2.00000
      2     -10.7441      2.00000
      3      -9.8793      2.00000
      4      -9.6338      2.00000
      5      -5.3432      2.00000
      6      -4.7948      2.00000
      7      -3.7343      2.00000
      8      -3.5164      2.00000
      9      -1.7349      2.00000
     10      -0.9699      2.00000
     11      -0.9023      2.00000
     12      -0.1210      2.00000
     13       0.4895      2.00000
     14       0.6827      2.00000
     15       0.8082      2.00000
     16       0.8270      2.00000
     17       1.7365      2.00000
     18       1.8986      2.00000
     19       2.2019      2.00000
     20       2.4816      2.00000
     21       3.5766      0.00000
     22       4.9237      0.00000
     23       5.0821      0.00000
     24       5.5434      0.00000
     25       5.9750      0.00000
     26       6.4792      0.00000
     27       6.6025      0.00000
     28       7.1423      0.00000
     29       7.2851      0.00000
     30       7.3727      0.00000
     31       7.5289      0.00000
     32       8.1315      0.00000

 k-point     8 :       0.3333    0.1667    0.0000
  band No.  band energies     occupation 
      1     -10.4588      2.00000
      2     -10.2886      2.00000
      3      -9.7179      2.00000
      4      -9.5511      2.00000
      5      -5.6518      2.00000
      6      -4.9979      2.00000
      7      -4.6628      2.00000
      8      -4.1267      2.00000
      9      -1.2741      2.00000
     10      -1.2429      2.00000
     11      -1.1600      2.00000
     12      -0.0973      2.00000
     13       0.1434      2.00000
     14       0.5272      2.00000
     15       0.7009      2.00000
     16       0.9751      2.00000
     17       1.2827      2.00000
     18       1.7472      2.00000
     19       1.7567      2.00000
     20       2.1867      2.00000
     21       3.8284      0.00000
     22       4.5782      0.00000
     23       4.7179      0.00000
     24       5.1711      0.00000
     25       5.1863      0.00000
     26       5.8550      0.00000
     27       6.2999      0.00000
     28       6.7464      0.00000
     29       7.3053      0.00000
     30       7.4486      0.00000
     31       7.7088      0.00000
     32       8.0430      0.00000

 k-point     9 :       0.3333   -0.1667    0.0000
  band No.  band energies     occupation 
      1     -10.4590      2.00000
      2     -10.2886      2.00000
      3      -9.7208      2.00000
      4      -9.5474      2.00000
      5      -5.6704      2.00000
      6      -4.9778      2.00000
      7      -4.6242      2.00000
      8      -4.1697      2.00000
      9      -1.2794      2.00000
     10      -1.2198      2.00000
     11      -1.1932      2.00000
     12      -0.0902      2.00000
     13       0.1221      2.00000
     14       0.5172      2.00000
     15       0.7563      2.00000
     16       0.9651      2.00000
     17       1.3683      2.00000
     18       1.6977      2.00000
     19       1.8740      2.00000
     20       2.0196      2.00000
     21       3.8267      0.00000
     22       4.5294      0.00000
     23       4.7680      0.00000
     24       5.1117      0.00000
     25       5.1466      0.00000
     26       5.9095      0.00000
     27       6.2426      0.00000
     28       6.9471      0.00000
     29       7.4177      0.00000
     30       7.5078      0.00000
     31       7.7573      0.00000
     32       7.7921      0.00000

 k-point    10 :       0.5000    0.1667    0.0000
  band No.  band energies     occupation 
      1      -9.9115      2.00000
      2      -9.9100      2.00000
      3      -9.7740      2.00000
      4      -9.7719      2.00000
      5      -5.5366      2.00000
      6      -5.5153      2.00000
      7      -4.8536      2.00000
      8      -4.8307      2.00000
      9      -0.8511      2.00000
     10      -0.8248      2.00000
     11      -0.5436      2.00000
     12      -0.5282      2.00000
     13       0.0542      2.00000
     14       0.1100      2.00000
     15       0.4859      2.00000
     16       0.5000      2.00000
     17       1.3320      2.00000
     18       1.4122      2.00000
     19       1.9030      2.00000
     20       1.9162      2.00000
     21       4.1100      0.00000
     22       4.1228      0.00000
     23       4.7823      0.00000
     24       4.7936      0.00000
     25       5.6900      0.00000
     26       5.7865      0.00000
     27       6.1054      0.00000
     28       6.1086      0.00000
     29       6.6242      0.00000
     30       6.6484      0.00000
     31       7.6297      0.00000
     32       7.8540      0.00000

 k-point    11 :       0.0000    0.3333    0.0000
  band No.  band energies     occupation 
      1     -10.8102      2.00000
      2     -10.6272      2.00000
      3     -10.0914      2.00000
      4      -9.9113      2.00000
      5      -5.4571      2.00000
      6      -4.9900      2.00000
      7      -4.5917      2.00000
      8      -4.0681      2.00000
      9      -1.3452      2.00000
     10       0.2634      2.00000
     11       0.3969      2.00000
     12       0.6116      2.00000
     13       0.6304      2.00000
     14       0.7266      2.00000
     15       1.1220      2.00000
     16       1.3918      2.00000
     17       1.5004      2.00000
     18       2.1461      2.00000
     19       2.5136      2.00000
     20       2.8802      1.95554
     21       3.9832      0.00000
     22       4.2687      0.00000
     23       4.6044      0.00000
     24       5.1845      0.00000
     25       5.6642      0.00000
     26       5.6685      0.00000
     27       5.8934      0.00000
     28       6.4060      0.00000
     29       6.4546      0.00000
     30       6.8100      0.00000
     31       7.4153      0.00000
     32       8.0579      0.00000

 k-point    12 :       0.1667    0.3333    0.0000
  band No.  band energies     occupation 
      1     -10.6453      2.00000
      2     -10.4738      2.00000
      3      -9.9770      2.00000
      4      -9.8190      2.00000
      5      -5.4066      2.00000
      6      -4.9312      2.00000
      7      -4.5719      2.00000
      8      -4.1052      2.00000
      9      -1.1804      2.00000
     10      -0.9894      2.00000
     11      -0.8264      2.00000
     12      -0.1287      2.00000
     13       0.1528      2.00000
     14       0.5682      2.00000
     15       0.7932      2.00000
     16       1.3082      2.00000
     17       1.9353      2.00000
     18       1.9492      2.00000
     19       2.2652      2.00000
     20       2.5447      2.00000
     21       4.1789      0.00000
     22       4.8768      0.00000
     23       5.2039      0.00000
     24       5.4256      0.00000
     25       5.5531      0.00000
     26       5.9786      0.00000
     27       6.5288      0.00000
     28       6.8101      0.00000
     29       7.1015      0.00000
     30       7.3620      0.00000
     31       7.6448      0.00000
     32       7.9559      0.00000

 k-point    13 :       0.1667   -0.3333    0.0000
  band No.  band energies     occupation 
      1     -10.6456      2.00000
      2     -10.4736      2.00000
      3      -9.9787      2.00000
      4      -9.8168      2.00000
      5      -5.4252      2.00000
      6      -4.9127      2.00000
      7      -4.5343      2.00000
      8      -4.1445      2.00000
      9      -1.2044      2.00000
     10      -0.9442      2.00000
     11      -0.8691      2.00000
     12      -0.0904      2.00000
     13       0.1308      2.00000
     14       0.5683      2.00000
     15       0.7885      2.00000
     16       1.3782      2.00000
     17       1.8648      2.00000
     18       2.0449      2.00000
     19       2.1868      2.00000
     20       2.5291      2.00000
     21       4.1863      0.00000
     22       4.8693      0.00000
     23       5.2733      0.00000
     24       5.3545      0.00000
     25       5.5264      0.00000
     26       5.9349      0.00000
     27       6.4747      0.00000
     28       6.9914      0.00000
     29       7.0500      0.00000
     30       7.4994      0.00000
     31       7.6788      0.00000
     32       7.7867      0.00000

 k-point    14 :       0.3333    0.3333    0.0000
  band No.  band energies     occupation 
      1     -10.2238      2.00000
      2     -10.0864      2.00000
      3      -9.7619      2.00000
      4      -9.6580      2.00000
      5      -5.4098      2.00000
      6      -4.8588      2.00000
      7      -4.8153      2.00000
      8      -4.3481      2.00000
      9      -1.7945      2.00000
     10      -1.6417      2.00000
     11      -1.0279      2.00000
     12      -0.7915      2.00000
     13      -0.7131      2.00000
     14      -0.0030      2.00000
     15       0.4625      2.00000
     16       0.5471      2.00000
     17       0.8442      2.00000
     18       1.6304      2.00000
     19       1.6923      2.00000
     20       2.0232      2.00000
     21       4.2453      0.00000
     22       5.4258      0.00000
     23       5.6724      0.00000
     24       5.9563      0.00000
     25       6.4775      0.00000
     26       6.8441      0.00000
     27       6.9679      0.00000
     28       7.1579      0.00000
     29       7.6013      0.00000
     30       7.9966      0.00000
     31       8.3174      0.00000
     32       8.7939      0.00000

 k-point    15 :       0.3333   -0.3333    0.0000
  band No.  band energies     occupation 
      1     -10.2238      2.00000
      2     -10.0870      2.00000
      3      -9.7671      2.00000
      4      -9.6517      2.00000
      5      -5.4482      2.00000
      6      -4.8178      2.00000
      7      -4.7403      2.00000
      8      -4.4278      2.00000
      9      -1.7628      2.00000
     10      -1.6804      2.00000
     11      -1.0777      2.00000
     12      -0.7701      2.00000
     13      -0.6696      2.00000
     14      -0.0728      2.00000
     15       0.3998      2.00000
     16       0.7260      2.00000
     17       0.9124      2.00000
     18       1.5817      2.00000
     19       1.6285      2.00000
     20       2.0116      2.00000
     21       4.1695      0.00000
     22       5.4340      0.00000
     23       5.8211      0.00000
     24       5.9271      0.00000
     25       6.3349      0.00000
     26       6.8459      0.00000
     27       7.0860      0.00000
     28       7.2594      0.00000
     29       7.5590      0.00000
     30       7.9006      0.00000
     31       8.6258      0.00000
     32       8.7484      0.00000

 k-point    16 :       0.5000    0.3333    0.0000
  band No.  band energies     occupation 
      1      -9.8126      2.00000
      2      -9.8084      2.00000
      3      -9.7184      2.00000
      4      -9.7130      2.00000
      5      -5.3421      2.00000
      6      -5.2928      2.00000
      7      -4.7472      2.00000
      8      -4.6941      2.00000
      9      -1.3884      2.00000
     10      -1.3744      2.00000
     11      -1.2813      2.00000
     12      -1.2763      2.00000
     13      -0.6458      2.00000
     14      -0.6387      2.00000
     15      -0.1708      2.00000
     16      -0.1268      2.00000
     17       1.0176      2.00000
     18       1.0362      2.00000
     19       1.6390      2.00000
     20       1.7157      2.00000
     21       4.7773      0.00000
     22       4.9245      0.00000
     23       6.4243      0.00000
     24       6.4304      0.00000
     25       6.6269      0.00000
     26       6.6801      0.00000
     27       7.1602      0.00000
     28       7.4869      0.00000
     29       8.0927      0.00000
     30       8.1092      0.00000
     31       8.1451      0.00000
     32       8.3067      0.00000

 k-point    17 :       0.0000    0.5000    0.0000
  band No.  band energies     occupation 
      1     -10.4006      2.00000
      2     -10.4006      2.00000
      3     -10.2510      2.00000
      4     -10.2510      2.00000
      5      -5.2829      2.00000
      6      -5.2829      2.00000
      7      -4.7642      2.00000
      8      -4.7642      2.00000
      9      -0.5781      2.00000
     10      -0.5781      2.00000
     11       0.8488      2.00000
     12       0.8488      2.00000
     13       1.0711      2.00000
     14       1.0711      2.00000
     15       1.1834      2.00000
     16       1.1834      2.00000
     17       2.1261      2.00000
     18       2.1261      2.00000
     19       2.5632      2.00000
     20       2.5632      2.00000
     21       4.3601      0.00000
     22       4.3601      0.00000
     23       4.7406      0.00000
     24       4.7406      0.00000
     25       5.3209      0.00000
     26       5.3209      0.00000
     27       5.6814      0.00000
     28       5.6814      0.00000
     29       6.0388      0.00000
     30       6.0388      0.00000
     31       7.8209      0.00000
     32       7.8209      0.00000

 k-point    18 :       0.1667    0.5000    0.0000
  band No.  band energies     occupation 
      1     -10.2625      2.00000
      2     -10.2621      2.00000
      3     -10.1276      2.00000
      4     -10.1269      2.00000
      5      -5.1945      2.00000
      6      -5.1715      2.00000
      7      -4.7095      2.00000
      8      -4.6869      2.00000
      9      -0.6622      2.00000
     10      -0.6160      2.00000
     11      -0.4567      2.00000
     12      -0.4346      2.00000
     13      -0.2164      2.00000
     14      -0.1456      2.00000
     15       1.0589      2.00000
     16       1.1196      2.00000
     17       1.9541      2.00000
     18       2.0801      2.00000
     19       2.4430      2.00000
     20       2.4963      2.00000
     21       4.5581      0.00000
     22       4.5703      0.00000
     23       5.3675      0.00000
     24       5.4526      0.00000
     25       5.8926      0.00000
     26       6.0263      0.00000
     27       6.6775      0.00000
     28       6.7262      0.00000
     29       6.9489      0.00000
     30       6.9622      0.00000
     31       7.5236      0.00000
     32       7.6861      0.00000

 k-point    19 :       0.3333    0.5000    0.0000
  band No.  band energies     occupation 
      1      -9.9442      2.00000
      2      -9.9414      2.00000
      3      -9.8515      2.00000
      4      -9.8478      2.00000
      5      -5.1284      2.00000
      6      -5.0668      2.00000
      7      -4.6718      2.00000
      8      -4.6074      2.00000
      9      -1.6494      2.00000
     10      -1.5968      2.00000
     11      -1.4870      2.00000
     12      -1.4363      2.00000
     13      -0.2915      2.00000
     14      -0.2179      2.00000
     15      -0.0224      2.00000
     16       0.1272      2.00000
     17       1.0723      2.00000
     18       1.1379      2.00000
     19       1.7618      2.00000
     20       1.7876      2.00000
     21       5.0093      0.00000
     22       5.1762      0.00000
     23       6.3981      0.00000
     24       6.4537      0.00000
     25       6.9974      0.00000
     26       7.0270      0.00000
     27       7.5052      0.00000
     28       7.6706      0.00000
     29       8.2789      0.00000
     30       8.4001      0.00000
     31       8.5653      0.00000
     32       8.5678      0.00000

 k-point    20 :       0.5000    0.5000    0.0000
  band No.  band energies     occupation 
      1      -9.7549      2.00000
      2      -9.7463      2.00000
      3      -9.6985      2.00000
      4      -9.6885      2.00000
      5      -5.2289      2.00000
      6      -5.1589      2.00000
      7      -4.7038      2.00000
      8      -4.6287      2.00000
      9      -1.6315      2.00000
     10      -1.6186      2.00000
     11      -1.5594      2.00000
     12      -1.5552      2.00000
     13      -0.9305      2.00000
     14      -0.8200      2.00000
     15      -0.6674      2.00000
     16      -0.5474      2.00000
     17       1.0379      2.00000
     18       1.2439      2.00000
[...]
     32       7.4676      0.00000

 k-point    32 :       0.1667    0.3333    0.5000
  band No.  band energies     occupation 
      1     -10.5705      2.00000
      2     -10.5705      2.00000
      3      -9.8867      2.00000
      4      -9.8867      2.00000
      5      -5.2161      2.00000
      6      -5.2161      2.00000
      7      -4.3134      2.00000
      8      -4.3134      2.00000
      9      -1.0139      2.00000
     10      -1.0139      2.00000
     11      -0.4125      2.00000
     12      -0.4125      2.00000
     13       0.1379      2.00000
     14       0.1379      2.00000
     15       1.1394      2.00000
     16       1.1394      2.00000
     17       1.9854      2.00000
     18       1.9854      2.00000
     19       2.2142      2.00000
     20       2.2142      2.00000
     21       4.9380      0.00000
     22       4.9380      0.00000
     23       5.2370      0.00000
     24       5.2371      0.00000
     25       5.8061      0.00000
     26       5.8061      0.00000
     27       6.4798      0.00000
     28       6.4798      0.00000
     29       7.2017      0.00000
     30       7.2017      0.00000
     31       7.7121      0.00000
     32       7.7121      0.00000

 k-point    33 :       0.1667   -0.3333    0.5000
  band No.  band energies     occupation 
      1     -10.5708      2.00000
      2     -10.5708      2.00000
      3      -9.8864      2.00000
      4      -9.8864      2.00000
      5      -5.2166      2.00000
      6      -5.2166      2.00000
      7      -4.3122      2.00000
      8      -4.3122      2.00000
      9      -1.0167      2.00000
     10      -1.0167      2.00000
     11      -0.4158      2.00000
     12      -0.4158      2.00000
     13       0.1456      2.00000
     14       0.1456      2.00000
     15       1.1381      2.00000
     16       1.1381      2.00000
     17       1.9622      2.00000
     18       1.9622      2.00000
     19       2.2333      2.00000
     20       2.2333      2.00000
     21       4.9815      0.00000
     22       4.9815      0.00000
     23       5.2534      0.00000
     24       5.2534      0.00000
     25       5.7591      0.00000
     26       5.7591      0.00000
     27       6.4798      0.00000
     28       6.4798      0.00000
     29       7.0972      0.00000
     30       7.0972      0.00000
     31       7.7882      0.00000
     32       7.7882      0.00000

 k-point    34 :       0.3333    0.3333    0.5000
  band No.  band energies     occupation 
      1     -10.1640      2.00000
      2     -10.1640      2.00000
      3      -9.7009      2.00000
      4      -9.7009      2.00000
      5      -5.2367      2.00000
      6      -5.2367      2.00000
      7      -4.4769      2.00000
      8      -4.4769      2.00000
      9      -1.7533      2.00000
     10      -1.7533      2.00000
     11      -0.9913      2.00000
     12      -0.9913      2.00000
     13      -0.2513      2.00000
     14      -0.2513      2.00000
     15       0.6371      2.00000
     16       0.6371      2.00000
     17       1.0416      2.00000
     18       1.0416      2.00000
     19       1.8614      2.00000
     20       1.8614      2.00000
     21       4.9891      0.00000
     22       4.9891      0.00000
     23       5.5046      0.00000
     24       5.5046      0.00000
     25       6.8204      0.00000
     26       6.8204      0.00000
     27       7.1501      0.00000
     28       7.1501      0.00000
     29       7.7519      0.00000
     30       7.7519      0.00000
     31       8.7739      0.00000
     32       8.7739      0.00000

 k-point    35 :       0.3333   -0.3333    0.5000
  band No.  band energies     occupation 
      1     -10.1646      2.00000
      2     -10.1646      2.00000
      3      -9.7002      2.00000
      4      -9.7002      2.00000
      5      -5.2378      2.00000
      6      -5.2378      2.00000
      7      -4.4754      2.00000
      8      -4.4754      2.00000
      9      -1.7479      2.00000
     10      -1.7479      2.00000
     11      -1.0028      2.00000
     12      -1.0028      2.00000
     13      -0.2497      2.00000
     14      -0.2497      2.00000
     15       0.6651      2.00000
     16       0.6651      2.00000
     17       0.9881      2.00000
     18       0.9881      2.00000
     19       1.9024      2.00000
     20       1.9024      2.00000
     21       4.9663      0.00000
     22       4.9663      0.00000
     23       5.5220      0.00000
     24       5.5220      0.00000
     25       6.7704      0.00000
     26       6.7704      0.00000
     27       7.1942      0.00000
     28       7.1942      0.00000
     29       7.6923      0.00000
     30       7.6923      0.00000
     31       8.8708      0.00000
     32       8.8708      0.00000

 k-point    36 :       0.5000    0.3333    0.5000
  band No.  band energies     occupation 
      1      -9.8093      2.00000
      2      -9.8093      2.00000
      3      -9.7170      2.00000
      4      -9.7170      2.00000
      5      -5.3242      2.00000
      6      -5.3242      2.00000
      7      -4.7070      2.00000
      8      -4.7070      2.00000
      9      -1.5105      2.00000
     10      -1.5105      2.00000
     11      -1.1611      2.00000
     12      -1.1611      2.00000
     13      -0.6856      2.00000
     14      -0.6856      2.00000
     15      -0.1245      2.00000
     16      -0.1245      2.00000
     17       1.2025      2.00000
     18       1.2025      2.00000
     19       1.5592      2.00000
     20       1.5592      2.00000
     21       4.7109      0.00000
     22       4.7109      0.00000
     23       6.4621      0.00000
     24       6.4621      0.00000
     25       6.5796      0.00000
     26       6.5796      0.00000
     27       7.3895      0.00000
     28       7.3895      0.00000
     29       8.1319      0.00000
     30       8.1319      0.00000
     31       8.4003      0.00000
     32       8.4003      0.00000

 k-point    37 :       0.0000    0.5000    0.5000
  band No.  band energies     occupation 
      1     -10.3964      2.00000
      2     -10.3964      2.00000
      3     -10.2559      2.00000
      4     -10.2559      2.00000
      5      -5.1437      2.00000
      6      -5.1437      2.00000
      7      -4.9391      2.00000
      8      -4.9391      2.00000
      9      -0.0909      2.00000
     10      -0.0909      2.00000
     11       0.4420      2.00000
     12       0.4420      2.00000
     13       0.8533      2.00000
     14       0.8533      2.00000
     15       1.0711      2.00000
     16       1.0711      2.00000
     17       2.2937      2.00000
     18       2.2937      2.00000
     19       2.5892      2.00000
     20       2.5892      2.00000
     21       4.4444      0.00000
     22       4.4444      0.00000
     23       4.4845      0.00000
     24       4.4845      0.00000
     25       5.8025      0.00000
     26       5.8025      0.00000
     27       5.8814      0.00000
     28       5.8814      0.00000
     29       6.2643      0.00000
     30       6.2643      0.00000
     31       7.0247      0.00000
     32       7.0247      0.00000

 k-point    38 :       0.1667    0.5000    0.5000
  band No.  band energies     occupation 
      1     -10.2585      2.00000
      2     -10.2585      2.00000
      3     -10.1317      2.00000
      4     -10.1317      2.00000
      5      -5.0886      2.00000
      6      -5.0886      2.00000
      7      -4.8165      2.00000
      8      -4.8165      2.00000
      9      -0.6669      2.00000
     10      -0.6669      2.00000
     11      -0.4285      2.00000
     12      -0.4285      2.00000
     13       0.2282      2.00000
     14       0.2282      2.00000
     15       0.6662      2.00000
     16       0.6662      2.00000
     17       2.1030      2.00000
     18       2.1030      2.00000
     19       2.1883      2.00000
     20       2.1883      2.00000
     21       5.2239      0.00000
     22       5.2239      0.00000
     23       5.4021      0.00000
     24       5.4021      0.00000
     25       5.6781      0.00000
     26       5.6781      0.00000
     27       6.7478      0.00000
     28       6.7478      0.00000
     29       6.9866      0.00000
     30       6.9866      0.00000
     31       7.3914      0.00000
     32       7.3914      0.00000

 k-point    39 :       0.3333    0.5000    0.5000
  band No.  band energies     occupation 
      1      -9.9409      2.00000
      2      -9.9409      2.00000
      3      -9.8517      2.00000
      4      -9.8517      2.00000
      5      -5.1077      2.00000
      6      -5.1077      2.00000
      7      -4.6191      2.00000
      8      -4.6191      2.00000
      9      -1.6238      2.00000
     10      -1.6238      2.00000
     11      -1.5758      2.00000
     12      -1.5758      2.00000
     13      -0.1973      2.00000
     14      -0.1973      2.00000
     15       0.2308      2.00000
     16       0.2308      2.00000
     17       1.2422      2.00000
     18       1.2422      2.00000
     19       1.4694      2.00000
     20       1.4694      2.00000
     21       4.9720      0.00000
     22       4.9720      0.00000
     23       6.6946      0.00000
     24       6.6946      0.00000
     25       7.0177      0.00000
     26       7.0177      0.00000
     27       7.5148      0.00000
     28       7.5148      0.00000
     29       8.4384      0.00000
     30       8.4384      0.00000
     31       8.5298      0.00000
     32       8.5298      0.00000

 k-point    40 :       0.5000    0.5000    0.5000
  band No.  band energies     occupation 
      1      -9.7527      2.00000
      2      -9.7527      2.00000
      3      -9.6913      2.00000
      4      -9.6913      2.00000
      5      -5.2337      2.00000
      6      -5.2337      2.00000
      7      -4.6026      2.00000
      8      -4.6026      2.00000
      9      -1.7779      2.00000
     10      -1.7779      2.00000
     11      -1.4048      2.00000
     12      -1.4048      2.00000
     13      -1.0468      2.00000
     14      -1.0468      2.00000
     15      -0.5424      2.00000
     16      -0.5424      2.00000
     17       1.2904      2.00000
     18       1.2904      2.00000
     19       1.5365      2.00000
     20       1.5365      2.00000
     21       4.5127      0.00000
     22       4.5127      0.00000
     23       7.2827      0.00000
     24       7.2827      0.00000
     25       7.6346      0.00000
     26       7.6346      0.00000
     27       7.6968      0.00000
     28       7.6968      0.00000
     29       8.1297      0.00000
     30       8.1297      0.00000
     31       9.2776      0.00000
     32       9.2776      0.00000


--------------------------------------------------------------------------------------------------------


 soft charge-density along one line, spin component            1
         0         1         2         3         4         5         6         7         8         9
 total charge-density along one line
 
 pseudopotential strength for first ion, spin component:            1
 14.623  18.248   0.041   0.047  -0.000   0.074   0.084  -0.001
 18.248  22.785   0.052   0.059  -0.000   0.094   0.107  -0.001
  0.041   0.052   3.242  -0.003   0.000   5.520  -0.004   0.000
  0.047   0.059  -0.003   3.240   0.000  -0.004   5.516   0.000
 -0.000  -0.000   0.000   0.000   3.243   0.000   0.000   5.523
  0.074   0.094   5.520  -0.004   0.000   9.457  -0.007   0.000
  0.084   0.107  -0.004   5.516   0.000  -0.007   9.451   0.000
 -0.001  -0.001   0.000   0.000   5.523   0.000   0.000   9.462
  0.000   0.000  -0.000   0.000   0.007  -0.000   0.000   0.013
 -0.005  -0.007   0.012   0.013   0.000   0.022   0.023   0.000
 -0.004  -0.004  -0.003   0.012   0.000  -0.007   0.022   0.000
  0.000   0.000   0.000  -0.000   0.012   0.000  -0.000   0.022
  0.002   0.002  -0.012   0.000  -0.000  -0.022   0.000  -0.000
 total augmentation occupancy for first ion, spin component:            1
  2.713  -0.685   0.358   0.362   0.000  -0.068  -0.064  -0.000   0.001  -0.015  -0.005   0.000   0.008
 -0.685   0.651  -0.446  -0.486   0.002   0.071   0.075  -0.000  -0.001   0.007   0.010  -0.001  -0.005
  0.358  -0.446   1.229   0.039  -0.001  -0.200   0.008  -0.000   0.000   0.043  -0.097   0.000  -0.001
  0.362  -0.486   0.039   1.311  -0.002   0.008  -0.211   0.000  -0.000  -0.010   0.102   0.001  -0.002
  0.000   0.002  -0.001  -0.002   1.234  -0.000   0.000  -0.211   0.146  -0.000   0.000   0.036  -0.000
 -0.068   0.071  -0.200   0.008  -0.000   0.037  -0.003   0.000  -0.000  -0.007   0.016   0.000   0.000
 -0.064   0.075   0.008  -0.211   0.000  -0.003   0.039  -0.000   0.000   0.002  -0.018  -0.000   0.000
 -0.000  -0.000  -0.000   0.000  -0.211   0.000  -0.000   0.040  -0.025   0.000   0.000  -0.006   0.000
  0.001  -0.001   0.000  -0.000   0.146  -0.000   0.000  -0.025   0.031   0.000   0.000   0.002   0.000
 -0.015   0.007   0.043  -0.010  -0.000  -0.007   0.002   0.000   0.000   0.011  -0.007   0.000   0.001
 -0.005   0.010  -0.097   0.102   0.000   0.016  -0.018   0.000   0.000  -0.007   0.030   0.000  -0.002
  0.000  -0.001   0.000   0.001   0.036   0.000  -0.000  -0.006   0.002   0.000   0.000   0.009   0.000
  0.008  -0.005  -0.001  -0.002  -0.000   0.000   0.000   0.000   0.000   0.001  -0.002   0.000   0.008


------------------------ aborting loop because EDIFF is reached ----------------------------------------


    CHARGE:  cpu time      0.0057: real time      0.0058
    FORLOC:  cpu time      0.0003: real time      0.0003
    FORNL :  cpu time      0.0276: real time      0.0277
    STRESS:  cpu time      0.2815: real time      0.2827
    FORCOR:  cpu time      0.0068: real time      0.0068
    FORHAR:  cpu time      0.0016: real time      0.0017
    MIXING:  cpu time      0.0007: real time      0.0007
    OFIELD:  cpu time      0.0000: real time      0.0000

  FORCE on cell =-STRESS in cart. coord.  units (eV):
  Direction    XX          YY          ZZ          XY          YZ          ZX
  --------------------------------------------------------------------------------------
  Alpha Z    83.74936    83.74936    83.74936
  Ewald    -401.15662  -460.75383  -520.03072     0.94417    -0.00000     0.00001
  Hartree    82.81099    57.56305    16.31361     0.32330    -0.00000     0.00000
  E(xc)    -140.88160  -140.94122  -141.35623     0.00798     0.00000     0.00000
  Local    -242.77526  -163.99114   -66.24107    -1.25747     0.00001    -0.00001
  n-local   240.26097   239.90175   241.76378    -0.00858    -0.00000     0.00000
  augment   -11.38866   -11.78981   -12.08287    -0.00373     0.00000     0.00000
  Kinetic   390.56851   396.28400   397.70112     0.13879     0.00000    -0.00000
  Fock        0.00000     0.00000     0.00000     0.00000     0.00000     0.00000
  -------------------------------------------------------------------------------------
  Total       1.18770     0.02216    -0.18303     0.14444     0.00000    -0.00000
  in kB       9.40524     0.17550    -1.44938     1.14382     0.00000    -0.00001
  external pressure =        2.71 kB  Pullay stress =        0.00 kB


 VOLUME and BASIS-vectors are now :
 -----------------------------------------------------------------------------
  energy-cutoff  :      360.00
  volume of cell :      202.32
      direct lattice vectors                 reciprocal lattice vectors
     3.858100176  0.000000000  0.000000000     0.259194929  0.000000000  0.000000000
     0.000000000  4.526575088  0.000000000     0.000000000  0.220917577  0.000000000
     0.000000000  0.000000000 11.585176468     0.000000000  0.000000000  0.086317200

  length of vectors
     3.858100176  4.526575088 11.585176468     0.259194929  0.220917577  0.086317200


 FORCES acting on ions
    electron-ion (+dipol)            ewald-force                    non-local-force                 convergence-correction
 -----------------------------------------------------------------------------------------------
   -.116E+00 0.170E+02 0.302E+02   0.155E+00 -.195E+02 -.332E+02   -.371E-01 0.246E+01 0.312E+01   0.217E-04 0.663E-05 -.155E-02
   -.116E+00 0.170E+02 -.302E+02   0.155E+00 -.195E+02 0.332E+02   -.371E-01 0.246E+01 -.312E+01   0.216E-04 0.329E-05 0.155E-02
   0.116E+00 -.170E+02 -.302E+02   -.155E+00 0.195E+02 0.332E+02   0.370E-01 -.246E+01 -.312E+01   -.213E-04 -.208E-05 0.155E-02
   0.116E+00 -.170E+02 0.302E+02   -.155E+00 0.195E+02 -.332E+02   0.370E-01 -.246E+01 0.312E+01   -.219E-04 -.488E-05 -.155E-02
   -.194E+00 -.186E+02 -.366E+02   0.171E+00 0.201E+02 0.384E+02   0.559E-01 -.140E+01 -.183E+01   -.682E-04 0.320E-03 0.338E-02
   -.194E+00 -.186E+02 0.366E+02   0.171E+00 0.201E+02 -.384E+02   0.559E-01 -.140E+01 0.183E+01   -.680E-04 0.323E-03 -.338E-02
   0.194E+00 0.186E+02 0.366E+02   -.171E+00 -.201E+02 -.384E+02   -.556E-01 0.140E+01 0.183E+01   0.689E-04 -.320E-03 -.338E-02
   0.194E+00 0.186E+02 -.366E+02   -.171E+00 -.201E+02 0.384E+02   -.556E-01 0.140E+01 -.183E+01   0.674E-04 -.321E-03 0.338E-02
 -----------------------------------------------------------------------------------------------
   -.552E-04 0.164E-04 0.505E-05   0.486E-14 0.711E-14 0.142E-13   0.234E-03 0.622E-03 0.968E-06   0.244E-06 0.407E-05 -.443E-05
 
 
 POSITION                                       TOTAL-FORCE (eV/Angst)
 -----------------------------------------------------------------------------------
      2.69787      2.73174      1.52892         0.002510     -0.044896      0.120573
      0.76882      0.46845      4.26367         0.002511     -0.044897     -0.120574
      2.89357      4.09092     10.05626        -0.002685      0.044807     -0.120603
      0.96452      1.82763      7.32150        -0.002685      0.044807      0.120602
      2.69787      2.20314      4.06767         0.032815      0.089062     -0.035236
      0.76882      4.46643      1.72492         0.032815      0.089061      0.035239
      2.89357      0.09295      7.51751        -0.032640     -0.088972      0.035601
      0.96452      2.35624      9.86026        -0.032641     -0.088972     -0.035601
 -----------------------------------------------------------------------------------
    total drift:                                0.000179      0.000642      0.000002


--------------------------------------------------------------------------------------------------------



  FREE ENERGIE OF THE ION-ELECTRON SYSTEM (eV)
  ---------------------------------------------------
  free  energy   TOTEN  =       -33.70941920 eV

  energy  without entropy=      -33.70922300  energy(sigma->0) =      -33.70932110
 


--------------------------------------------------------------------------------------------------------


    POTLOK:  cpu time      0.2248: real time      0.2256


--------------------------------------------------------------------------------------------------------


     LOOP+:  cpu time      7.1099: real time      7.1460
    4ORBIT:  cpu time      0.0000: real time      0.0000

 total amount of memory used by VASP MPI-rank0    37119. kBytes
=======================================================================

   base      :      30000. kBytes
   nonl-proj :       5406. kBytes
   fftplans  :        334. kBytes
   grid      :        503. kBytes
   one-center:         16. kBytes
   wavefun   :        860. kBytes
 
  
  
 General timing and accounting informations for this job:
 ========================================================
  
                  Total CPU time used (sec):        8.739
                            User time (sec):        8.504
                          System time (sec):        0.235
                         Elapsed time (sec):        9.017
  
                   Maximum memory used (kb):      175132.
                   Average memory used (kb):          N/A
  
                          Minor page faults:        18644
                          Major page faults:           67
                 Voluntary context switches:         1601
