 running  256 mpi-ranks, with    1 threads/rank, on    7 nodes
 distrk:  each k-point on  128 cores,    2 groups
 distr:  one band on    4 cores,   32 groups
 vasp.6.4.1 05Apr23 (build May 18 2023 13:19:41) complex                         
 POSCAR found type information on POSCAR C H 
 POSCAR found :  2 types and     365 ions
 Reading from existing POTCAR
 -----------------------------------------------------------------------------
|                                                                             |
|           W    W    AA    RRRRR   N    N  II  N    N   GGGG   !!!           |
|           W    W   A  A   R    R  NN   N  II  NN   N  G    G  !!!           |
|           W    W  A    A  R    R  N N  N  II  N N  N  G       !!!           |
|           W WW W  AAAAAA  RRRRR   N  N N  II  N  N N  G  GGG   !            |
|           WW  WW  A    A  R   R   N   NN  II  N   NN  G    G                |
|           W    W  A    A  R    R  N    N  II  N    N   GGGG   !!!           |
|                                                                             |
|     You use a magnetic or noncollinear calculation, but did not specify     |
|     the initial magnetic moment with the MAGMOM tag. Note that a            |
|     default of 1 will be used for all atoms. This ferromagnetic setup       |
|     may break the symmetry of the crystal, in particular it may rule        |
|     out finding an antiferromagnetic solution. Thence, we recommend         |
|     setting the initial magnetic moment manually or verifying carefully     |
|     that this magnetic setup is desired.                                    |
|                                                                             |
 -----------------------------------------------------------------------------

 scaLAPACK will be used
 Reading from existing POTCAR
 -----------------------------------------------------------------------------
|                                                                             |
|               ----> ADVICE to this user running VASP <----                  |
|                                                                             |
|     You have a (more or less) 'large supercell' and for larger cells it     |
|     might be more efficient to use real-space projection operators.         |
|     Therefore, try LREAL= Auto in the INCAR file.                           |
|     Mind: If you want to do very accurate calculations, keep the            |
|     reciprocal projection scheme (i.e. LREAL=.FALSE.).                      |
|                                                                             |
 -----------------------------------------------------------------------------

 LDA part: xc-table for Pade appr. of Perdew
 POSCAR, INCAR and KPOINTS ok, starting setup
 FFT: planning ... GRIDC
 FFT: planning ... GRID_SOFT
 FFT: planning ... GRID
 WAVECAR not read
 charge-density read from file: 01_AOPT                                 
 magnetization density read from file 1
 WARNING: random wavefunctions but no delay for mixing, default for NELMDL
 entering main loop
       N       E                     dE             d eps       ncg     rms          rms(c)
DAV:   1     0.110954621830E+05    0.11095E+05   -0.41093E+05  8576   0.926E+02
DAV:   2     0.351053675723E+03   -0.10744E+05   -0.99718E+04 11232   0.209E+02
DAV:   3    -0.301479046858E+04   -0.33658E+04   -0.32209E+04  9344   0.114E+02
DAV:   4    -0.330060147227E+04   -0.28581E+03   -0.27852E+03  9280   0.377E+01
DAV:   5    -0.331107279209E+04   -0.10471E+02   -0.10302E+02 10112   0.657E+00    0.117E-01
DAV:   6    -0.331128988613E+04   -0.21709E+00   -0.21442E+00  9600   0.989E-01    0.509E-02
DAV:   7    -0.331129818748E+04   -0.83013E-02   -0.82590E-02  9952   0.185E-01    0.413E-02
DAV:   8    -0.331129841025E+04   -0.22277E-03   -0.25757E-03  9696   0.351E-02    0.340E-02
DAV:   9    -0.331129839112E+04    0.19134E-04   -0.11842E-04  8352   0.821E-03    0.241E-02
DAV:  10    -0.331129836934E+04    0.21777E-04   -0.15146E-05  8800   0.420E-03    0.146E-02
DAV:  11    -0.331129835624E+04    0.13103E-04   -0.50333E-06  8064   0.252E-03    0.851E-03
DAV:  12    -0.331129834523E+04    0.11005E-04   -0.11863E-06  5632   0.147E-03    0.425E-03
DAV:  13    -0.331129833885E+04    0.63819E-05   -0.87070E-07  5664   0.115E-03    0.168E-03
DAV:  14    -0.331129833587E+04    0.29842E-05   -0.30730E-07  5120   0.775E-04    0.481E-04
DAV:  15    -0.331129833538E+04    0.48673E-06   -0.61473E-08  5056   0.454E-04
   1 F= -.33252715E+04 E0= -.33252715E+04  d E =-.332527E+04  mag=     1.0000
 BRION: g(F)=  0.964E-03 g(S)=  0.000E+00
 bond charge predicted
       N       E                     dE             d eps       ncg     rms          rms(c)
DAV:   1    -0.331129879603E+04   -0.46016E-03   -0.10482E-01  8064   0.370E-01    0.550E-02
DAV:   2    -0.331129890179E+04   -0.10576E-03   -0.18111E-03  8704   0.453E-02    0.422E-02
DAV:   3    -0.331129887549E+04    0.26299E-04   -0.13417E-04  8288   0.142E-02    0.146E-02
DAV:   4    -0.331129887610E+04   -0.61444E-06   -0.27170E-05  8192   0.587E-03    0.529E-03
DAV:   5    -0.331129887850E+04   -0.23920E-05   -0.29414E-06  7232   0.251E-03    0.228E-03
DAV:   6    -0.331129888044E+04   -0.19432E-05   -0.39199E-07  5248   0.118E-03    0.104E-03
DAV:   7    -0.331129888140E+04   -0.95798E-06   -0.61437E-08  5120   0.603E-04
   2 F= -.33252720E+04 E0= -.33252720E+04  d E =-.537503E-03  mag=     1.0000
 BRION: g(F)=  0.347E-02 g(S)=  0.000E+00 retain N=  1 mean eig= 0.20
 eig:   0.203
 bond charge predicted
       N       E                     dE             d eps       ncg     rms          rms(c)
DAV:   1    -0.331129926705E+04   -0.38661E-03   -0.17755E-02  7808   0.160E-01    0.249E-02
DAV:   2    -0.331129928826E+04   -0.21212E-04   -0.41620E-04  8384   0.227E-02    0.196E-02
DAV:   3    -0.331129928215E+04    0.61180E-05   -0.39002E-05  8800   0.685E-03    0.913E-03
DAV:   4    -0.331129928233E+04   -0.18458E-06   -0.55986E-06  8128   0.252E-03
   3 F= -.33252724E+04 E0= -.33252724E+04  d E =-.413826E-03  mag=     1.0000
 BRION: g(F)=  0.744E-03 g(S)=  0.000E+00 retain N=  1 mean eig= 0.20
 eig:   0.198
 bond charge predicted
       N       E                     dE             d eps       ncg     rms          rms(c)
DAV:   1    -0.331129992689E+04   -0.64474E-03   -0.77841E-02  7680   0.312E-01    0.460E-02
DAV:   2    -0.331129999565E+04   -0.68762E-04   -0.11267E-03  8544   0.349E-02    0.343E-02
DAV:   3    -0.331129998101E+04    0.14639E-04   -0.68444E-05  8032   0.113E-02    0.856E-03
DAV:   4    -0.331129998637E+04   -0.53612E-05   -0.21297E-05  7840   0.499E-03    0.383E-03
DAV:   5    -0.331129998808E+04   -0.17037E-05   -0.14449E-06  6144   0.198E-03    0.212E-03
DAV:   6    -0.331129998854E+04   -0.46380E-06   -0.43778E-07  4928   0.104E-03
   4 F= -.33252732E+04 E0= -.33252732E+04  d E =-.713215E-03  mag=     1.0000
 BRION: g(F)=  0.731E-03 g(S)=  0.000E+00 retain N=  2 mean eig= 0.49
 eig:   0.195  0.783
 bond charge predicted
       N       E                     dE             d eps       ncg     rms          rms(c)
DAV:   1    -0.331130032763E+04   -0.33955E-03   -0.24433E-02  7648   0.177E-01    0.261E-02
DAV:   2    -0.331130035074E+04   -0.23112E-04   -0.38616E-04  8352   0.207E-02    0.198E-02
DAV:   3    -0.331130034546E+04    0.52828E-05   -0.26334E-05  7936   0.671E-03    0.582E-03
DAV:   4    -0.331130034646E+04   -0.10055E-05   -0.66725E-06  7616   0.291E-03    0.226E-03
DAV:   5    -0.331130034706E+04   -0.59890E-06   -0.48141E-07  4800   0.125E-03
   5 F= -.33252735E+04 E0= -.33252735E+04  d E =-.358670E-03  mag=     1.0000
 BRION: g(F)=  0.828E-03 g(S)=  0.000E+00 retain N=  2 mean eig= 3.70
 eig:   0.137  7.253
 bond charge predicted
       N       E                     dE             d eps       ncg     rms          rms(c)
DAV:   1    -0.331130130905E+04   -0.96258E-03   -0.40741E+00  7584   0.225E+00    0.331E-01
DAV:   2    -0.331130494839E+04   -0.36393E-02   -0.59284E-02  8192   0.253E-01    0.247E-01
DAV:   3    -0.331130411754E+04    0.83084E-03   -0.35499E-03  8000   0.810E-02    0.604E-02
DAV:   4    -0.331130432845E+04   -0.21091E-03   -0.11134E-03  7744   0.351E-02    0.271E-02
DAV:   5    -0.331130440925E+04   -0.80804E-04   -0.77018E-05  8352   0.134E-02    0.152E-02
DAV:   6    -0.331130442665E+04   -0.17393E-04   -0.25077E-05  7808   0.683E-03    0.492E-03
DAV:   7    -0.331130443724E+04   -0.10596E-04   -0.40547E-06  7488   0.345E-03    0.211E-03
DAV:   8    -0.331130443998E+04   -0.27323E-05   -0.11028E-06  5600   0.169E-03    0.879E-04
DAV:   9    -0.331130444151E+04   -0.15351E-05   -0.17002E-07  4960   0.855E-04    0.330E-04
DAV:  10    -0.331130444267E+04   -0.11629E-05    0.65276E-08  4576   0.323E-04    0.208E-04
DAV:  11    -0.331130444392E+04   -0.12487E-05    0.98550E-08  4704   0.186E-04    0.137E-04
DAV:  12    -0.331130444538E+04   -0.14608E-05    0.10299E-07  4896   0.138E-04    0.921E-05
DAV:  13    -0.331130444676E+04   -0.13814E-05    0.10400E-07  4800   0.110E-04    0.662E-05
DAV:  14    -0.331130444757E+04   -0.80420E-06    0.11019E-07  4800   0.838E-05
   6 F= -.33252777E+04 E0= -.33252777E+04  d E =-.415286E-02  mag=     1.0000
 BRION: g(F)=  0.169E-02 g(S)=  0.000E+00 retain N=  3 mean eig= 3.60
 eig:   6.564  3.260  0.990
 bond charge predicted
       N       E                     dE             d eps       ncg     rms          rms(c)
DAV:   1    -0.331130381351E+04    0.63325E-03   -0.49810E+00  7392   0.249E+00    0.367E-01
DAV:   2    -0.331130828826E+04   -0.44747E-02   -0.72763E-02  8192   0.280E-01    0.274E-01
DAV:   3    -0.331130727227E+04    0.10160E-02   -0.43224E-03  7968   0.897E-02    0.671E-02
DAV:   4    -0.331130751963E+04   -0.24736E-03   -0.13648E-03  7680   0.390E-02    0.299E-02
DAV:   5    -0.331130761708E+04   -0.97450E-04   -0.94769E-05  8160   0.150E-02    0.167E-02
DAV:   6    -0.331130764005E+04   -0.22963E-04   -0.30989E-05  8032   0.764E-03    0.543E-03
DAV:   7    -0.331130765472E+04   -0.14676E-04   -0.51728E-06  7744   0.390E-03    0.234E-03
DAV:   8    -0.331130765780E+04   -0.30759E-05   -0.14451E-06  6144   0.191E-03    0.987E-04
DAV:   9    -0.331130765938E+04   -0.15802E-05   -0.21537E-07  4960   0.945E-04    0.362E-04
DAV:  10    -0.331130766040E+04   -0.10253E-05    0.59528E-08  4800   0.345E-04    0.220E-04
DAV:  11    -0.331130766147E+04   -0.10656E-05    0.97386E-08  4544   0.196E-04    0.141E-04
DAV:  12    -0.331130766274E+04   -0.12675E-05    0.10271E-07  4800   0.142E-04    0.939E-05
DAV:  13    -0.331130766396E+04   -0.12282E-05    0.10491E-07  4736   0.115E-04    0.662E-05
DAV:  14    -0.331130766466E+04   -0.69139E-06    0.10908E-07  4864   0.847E-05
   7 F= -.33252810E+04 E0= -.33252810E+04  d E =-.329164E-02  mag=     1.0000
 BRION: g(F)=  0.321E-03 g(S)=  0.000E+00 retain N=  3 mean eig= 2.88
 eig:   0.357  4.147  4.147
 bond charge predicted
       N       E                     dE             d eps       ncg     rms          rms(c)
DAV:   1    -0.331130759229E+04    0.71674E-04   -0.27622E-02  7616   0.190E-01    0.291E-02
DAV:   2    -0.331130761794E+04   -0.25655E-04   -0.45519E-04  8512   0.229E-02    0.220E-02
DAV:   3    -0.331130761175E+04    0.61974E-05   -0.43363E-05  8160   0.831E-03    0.669E-03
DAV:   4    -0.331130761315E+04   -0.14027E-05   -0.91082E-06  7872   0.348E-03    0.291E-03
DAV:   5    -0.331130761343E+04   -0.27684E-06   -0.10767E-06  5056   0.147E-03
   8 F= -.33252809E+04 E0= -.33252809E+04  d E =0.474651E-04  mag=     1.0000
 BRION: g(F)=  0.630E-03 g(S)=  0.000E+00 retain N=  4 mean eig= 2.33
 eig:   4.376  4.376  0.355  0.202
 bond charge predicted
       N       E                     dE             d eps       ncg     rms          rms(c)
DAV:   1    -0.331130800682E+04   -0.39367E-03   -0.33196E-01  7552   0.645E-01    0.945E-02
DAV:   2    -0.331130829818E+04   -0.29136E-03   -0.49061E-03  8320   0.730E-02    0.709E-02
DAV:   3    -0.331130822434E+04    0.73838E-04   -0.29676E-04  7776   0.235E-02    0.176E-02
DAV:   4    -0.331130824676E+04   -0.22421E-04   -0.92787E-05  7584   0.103E-02    0.773E-03
DAV:   5    -0.331130825846E+04   -0.11700E-04   -0.65179E-06  8160   0.400E-03    0.430E-03
DAV:   6    -0.331130826079E+04   -0.23302E-05   -0.18667E-06  6112   0.201E-03    0.143E-03
DAV:   7    -0.331130826186E+04   -0.10667E-05   -0.26848E-07  4864   0.106E-03    0.615E-04
DAV:   8    -0.331130826212E+04   -0.26176E-06   -0.68255E-09  4640   0.523E-04
   9 F= -.33252816E+04 E0= -.33252816E+04  d E =-.669664E-03  mag=     1.0000
 BRION: g(F)=  0.253E-03 g(S)=  0.000E+00 retain N=  1 mean eig= 0.47
 eig:   0.468
 bond charge predicted
       N       E                     dE             d eps       ncg     rms          rms(c)
DAV:   1    -0.331130837867E+04   -0.11681E-03   -0.13824E-02  7616   0.134E-01    0.194E-02
DAV:   2    -0.331130839291E+04   -0.14239E-04   -0.22281E-04  8352   0.158E-02    0.150E-02
DAV:   3    -0.331130838999E+04    0.29225E-05   -0.15187E-05  8000   0.539E-03    0.436E-03
DAV:   4    -0.331130839049E+04   -0.50670E-06   -0.42171E-06  6336   0.223E-03
  10 F= -.33252817E+04 E0= -.33252817E+04  d E =-.131041E-03  mag=     1.0000
 BRION: g(F)=  0.308E-03 g(S)=  0.000E+00 retain N=  2 mean eig= 0.34
 eig:   0.341  0.341
 bond charge predicted
       N       E                     dE             d eps       ncg     rms          rms(c)
DAV:   1    -0.331130847196E+04   -0.81970E-04   -0.44995E-03  7680   0.773E-02    0.112E-02
DAV:   2    -0.331130847682E+04   -0.48670E-05   -0.78653E-05  8576   0.956E-03    0.881E-03
DAV:   3    -0.331130847578E+04    0.10441E-05   -0.60259E-06  7936   0.312E-03    0.310E-03
DAV:   4    -0.331130847587E+04   -0.93540E-07   -0.11261E-06  4832   0.126E-03
  11 F= -.33252818E+04 E0= -.33252818E+04  d E =-.878904E-04  mag=     1.0000
 BRION: g(F)=  0.232E-03 g(S)=  0.000E+00 retain N=  2 mean eig= 2.70
 eig:   0.228  5.179
 bond charge predicted
       N       E                     dE             d eps       ncg     rms          rms(c)
DAV:   1    -0.331130863166E+04   -0.15589E-03   -0.16994E-02  7616   0.147E-01    0.211E-02
DAV:   2    -0.331130864833E+04   -0.16665E-04   -0.26312E-04  8128   0.170E-02    0.162E-02
DAV:   3    -0.331130864471E+04    0.36194E-05   -0.15063E-05  7904   0.544E-03    0.415E-03
DAV:   4    -0.331130864546E+04   -0.74686E-06   -0.49129E-06  6816   0.232E-03
  12 F= -.33252820E+04 E0= -.33252820E+04  d E =-.172715E-03  mag=     1.0000
 BRION: g(F)=  0.228E-03 g(S)=  0.000E+00 retain N=  2 mean eig= 0.15
 eig:   0.146  0.146
 bond charge predicted
       N       E                     dE             d eps       ncg     rms          rms(c)
DAV:   1    -0.331130873411E+04   -0.89403E-04   -0.56101E-03  7680   0.849E-02    0.123E-02
DAV:   2    -0.331130874013E+04   -0.60127E-05   -0.90588E-05  8288   0.101E-02    0.956E-03
DAV:   3    -0.331130873894E+04    0.11888E-05   -0.55239E-06  7616   0.324E-03    0.285E-03
DAV:   4    -0.331130873925E+04   -0.31252E-06   -0.15047E-06  5120   0.144E-03
  13 F= -.33252821E+04 E0= -.33252821E+04  d E =-.970727E-04  mag=     1.0000
 BRION: g(F)=  0.216E-03 g(S)=  0.000E+00 retain N=  2 mean eig= 2.37
 eig:   0.171  4.565
 bond charge predicted
       N       E                     dE             d eps       ncg     rms          rms(c)
DAV:   1    -0.331130893196E+04   -0.19303E-03   -0.29236E-02  7552   0.193E-01    0.276E-02
DAV:   2    -0.331130896041E+04   -0.28447E-04   -0.45087E-04  8096   0.222E-02    0.212E-02
DAV:   3    -0.331130895419E+04    0.62232E-05   -0.26042E-05  7808   0.715E-03    0.524E-03
DAV:   4    -0.331130895563E+04   -0.14467E-05   -0.87155E-06  7616   0.305E-03    0.221E-03
DAV:   5    -0.331130895614E+04   -0.50390E-06   -0.30482E-07  4736   0.114E-03
  14 F= -.33252823E+04 E0= -.33252823E+04  d E =-.220494E-03  mag=     1.0000
 BRION: g(F)=  0.225E-03 g(S)=  0.000E+00 retain N=  2 mean eig= 0.28
 eig:   0.276  0.276
 bond charge predicted
       N       E                     dE             d eps       ncg     rms          rms(c)
DAV:   1    -0.331130896014E+04   -0.45093E-05   -0.45496E-04  7712   0.259E-02    0.405E-03
DAV:   2    -0.331130896080E+04   -0.65501E-06   -0.11350E-05  8480   0.383E-03    0.326E-03
DAV:   3    -0.331130896061E+04    0.18737E-06   -0.81662E-07  4416   0.121E-03
  15 F= -.33252823E+04 E0= -.33252823E+04  d E =-.420783E-05  mag=     1.0000
 BRION: g(F)=  0.213E-03 g(S)=  0.000E+00 retain N=  2 mean eig= 1.39
 eig:   0.316  2.457
 bond charge predicted
       N       E                     dE             d eps       ncg     rms          rms(c)
DAV:   1    -0.331130912995E+04   -0.16915E-03   -0.22197E-02  7552   0.168E-01    0.239E-02
DAV:   2    -0.331130915102E+04   -0.21078E-04   -0.33905E-04  7936   0.193E-02    0.184E-02
DAV:   3    -0.331130914612E+04    0.49003E-05   -0.19717E-05  7904   0.625E-03    0.436E-03
DAV:   4    -0.331130914726E+04   -0.11366E-05   -0.66234E-06  7360   0.269E-03    0.190E-03
DAV:   5    -0.331130914769E+04   -0.43184E-06   -0.20334E-07  4704   0.100E-03
  16 F= -.33252825E+04 E0= -.33252825E+04  d E =-.190777E-03  mag=     1.0000
 BRION: g(F)=  0.199E-03 g(S)=  0.000E+00 retain N=  2 mean eig= 0.24
 eig:   0.242  0.242
 reached required accuracy - stopping structural energy minimisation
 PROFILE, used timers:     315
