 running  256 mpi-ranks, with    1 threads/rank, on    7 nodes
 distrk:  each k-point on  128 cores,    2 groups
 distr:  one band on    4 cores,   32 groups
 vasp.6.4.1 05Apr23 (build May 18 2023 13:19:41) complex                         
 POSCAR found type information on POSCAR S 
 POSCAR found :  1 types and       1 ions
 Reading from existing POTCAR
 -----------------------------------------------------------------------------
|                                                                             |
|           W    W    AA    RRRRR   N    N  II  N    N   GGGG   !!!           |
|           W    W   A  A   R    R  NN   N  II  NN   N  G    G  !!!           |
|           W    W  A    A  R    R  N N  N  II  N N  N  G       !!!           |
|           W WW W  AAAAAA  RRRRR   N  N N  II  N  N N  G  GGG   !            |
|           WW  WW  A    A  R   R   N   NN  II  N   NN  G    G                |
|           W    W  A    A  R    R  N    N  II  N    N   GGGG   !!!           |
|                                                                             |
|     You use a magnetic or noncollinear calculation, but did not specify     |
|     the initial magnetic moment with the MAGMOM tag. Note that a            |
|     default of 1 will be used for all atoms. This ferromagnetic setup       |
|     may break the symmetry of the crystal, in particular it may rule        |
|     out finding an antiferromagnetic solution. Thence, we recommend         |
|     setting the initial magnetic moment manually or verifying carefully     |
|     that this magnetic setup is desired.                                    |
|                                                                             |
 -----------------------------------------------------------------------------

 scaLAPACK will be used
 Reading from existing POTCAR
 LDA part: xc-table for Pade appr. of Perdew
 POSCAR, INCAR and KPOINTS ok, starting setup
 FFT: planning ... GRIDC
 FFT: planning ... GRID_SOFT
 FFT: planning ... GRID
 WAVECAR not read
 WARNING: chargedensity file is incomplete
 WARNING: random wavefunctions but no delay for mixing, default for NELMDL
 entering main loop
       N       E                     dE             d eps       ncg     rms          rms(c)
DAV:   1     0.396861067546E+02    0.39686E+02   -0.26295E+02  7168   0.130E+00
DAV:   2     0.997345665557E+01   -0.29713E+02   -0.26269E+02  8032   0.840E-01
DAV:   3    -0.324354414017E+00   -0.10298E+02   -0.10119E+02  8704   0.481E-01
DAV:   4    -0.654831724523E+00   -0.33048E+00   -0.32867E+00  8288   0.121E-01
DAV:   5    -0.657278814827E+00   -0.24471E-02   -0.24469E-02  8512   0.115E-02    0.278E+00
DAV:   6    -0.866885756031E+00   -0.20961E+00   -0.30477E-02 11168   0.134E-02    0.656E-01
DAV:   7    -0.879128067454E+00   -0.12242E-01   -0.52507E-03  8032   0.596E-03    0.894E-01
DAV:   8    -0.878586276476E+00    0.54179E-03   -0.55737E-05  8320   0.519E-04    0.435E-01
DAV:   9    -0.878561561336E+00    0.24715E-04   -0.15528E-03  8000   0.116E-03    0.273E-01
DAV:  10    -0.878540503593E+00    0.21058E-04   -0.25739E-06  7904   0.137E-04    0.160E-01
DAV:  11    -0.878550681601E+00   -0.10178E-04   -0.77641E-05  7776   0.405E-04    0.261E-02
DAV:  12    -0.878605719705E+00   -0.55038E-04   -0.46071E-05  7968   0.360E-04    0.224E-02
DAV:  13    -0.878636350260E+00   -0.30631E-04   -0.10575E-05  7904   0.135E-04    0.240E-02
DAV:  14    -0.878648760081E+00   -0.12410E-04   -0.70685E-07  8064   0.873E-05    0.466E-03
DAV:  15    -0.878648879157E+00   -0.11908E-06   -0.11919E-08  8416   0.926E-06
   1 F= -.87865037E+00 E0= -.87479382E+00  d E =-.878650E+00  mag=     2.0000
 BRION: g(F)=  0.389E-44 g(S)=  0.000E+00
 reached required accuracy - stopping structural energy minimisation
 PROFILE, used timers:     319
