 vasp.6.4.2 20Jul23 (build Oct 12 2023 10:31:02) complex                         
 executed on              LinuxNV date 2024.11.01  23:12:39
 running  128 mpi-ranks, with    1 threads/rank, on    2 nodes
 distrk:  each k-point on   64 cores,    2 groups
 distr:  one band on NCORE=   8 cores,    8 groups


--------------------------------------------------------------------------------------------------------


 INCAR:
   ENCUT = 520.000000
   SIGMA = 0.050000
   EDIFF = 1.00e-06
   ALGO = N
   GGA = PE
   PREC = Accurate
   SYSTEM = 01_AOPT
   ICHARG = 0
   ISMEAR = 0
   ISPIN = 2
   ISTART = 1
   ISYM = -1
   KPAR = 2
   LORBIT = 11
   NBANDS = 220
   NELM = 100
   NELMIN = 5
   NPAR = 8
   LASPH = .TRUE.
   LCHARG = .FALSE.
   LWAVE = .FALSE.
   LREAL = .FALSE.

 POTCAR:    PAW_PBE Ge 05Jan2001                  
 POTCAR:    PAW_PBE Se 06Sep2000                  
 -----------------------------------------------------------------------------
|                                                                             |
|           W    W    AA    RRRRR   N    N  II  N    N   GGGG   !!!           |
|           W    W   A  A   R    R  NN   N  II  NN   N  G    G  !!!           |
|           W    W  A    A  R    R  N N  N  II  N N  N  G       !!!           |
|           W WW W  AAAAAA  RRRRR   N  N N  II  N  N N  G  GGG   !            |
|           WW  WW  A    A  R   R   N   NN  II  N   NN  G    G                |
|           W    W  A    A  R    R  N    N  II  N    N   GGGG   !!!           |
|                                                                             |
|     You use a magnetic or noncollinear calculation, but did not specify     |
|     the initial magnetic moment with the MAGMOM tag. Note that a            |
|     default of 1 will be used for all atoms. This ferromagnetic setup       |
|     may break the symmetry of the crystal, in particular it may rule        |
|     out finding an antiferromagnetic solution. Thence, we recommend         |
|     setting the initial magnetic moment manually or verifying carefully     |
|     that this magnetic setup is desired.                                    |
|                                                                             |
 -----------------------------------------------------------------------------

 POTCAR:    PAW_PBE Ge 05Jan2001                  
   VRHFIN =Ge: s2p2                                                                                 
   LEXCH  = PE                                                                                      
   EATOM  =   104.9960 eV,    7.7170 Ry                                                             
                                                                                                    
   TITEL  = PAW_PBE Ge 05Jan2001                                                                    
   LULTRA =        F    use ultrasoft PP ?                                                          
   IUNSCR =        1    unscreen: 0-lin 1-nonlin 2-no                                               
   RPACOR =    2.170    partial core radius                                                         
   POMASS =   72.610; ZVAL   =    4.000    mass and valenz                                          
   RCORE  =    2.300    outmost cutoff radius                                                       
   RWIGS  =    2.300; RWIGS  =    1.217    wigner-seitz radius (au A)                               
   ENMAX  =  173.807; ENMIN  =  130.355 eV                                                          
   ICORE  =        3    local potential                                                             
   LCOR   =        T    correct aug charges                                                         
   LPAW   =        T    paw PP                                                                      
   EAUG   =  385.843                                                                                
   DEXC   =    0.000                                                                                
   RMAX   =    2.342    core radius for proj-oper                                                   
   RAUG   =    1.300    factor for augmentation sphere                                              
   RDEP   =    2.318    radius for radial grids                                                     
   RDEPT  =    2.103    core radius for aug-charge                                                  
                                                                                                    
   Atomic configuration                                                                             
   10 entries                                                                                       
     n  l   j            E        occ.                                                              
     1  0  0.50    -10959.8463   2.0000                                                             
     2  0  0.50     -1371.6056   2.0000                                                             
     2  1  1.50     -1198.4791   6.0000                                                             
     3  0  0.50      -168.4733   2.0000                                                             
     3  1  1.50      -115.6019   6.0000                                                             
     3  2  2.50       -29.3106  10.0000                                                             
     4  0  0.50       -11.7309   2.0000                                                             
     4  1  0.50        -3.8952   2.0000                                                             
     4  2  1.50        -4.0817   0.0000                                                             
     4  3  2.50        -4.0817   0.0000                                                             
   Description                                                                                      
     l       E           TYP  RCUT    TYP  RCUT                                                     
     0    -11.7309493     23  2.300                                                                 
     0     -7.4578696     23  2.300                                                                 
     1     -3.8952261     23  2.300                                                                 
     1      6.1178114     23  2.300                                                                 
     2     -4.0817478     23  2.300                                                                 
     3     -1.3605826      7  2.300                                                                 
  local pseudopotential read in
  partial core-charges read in
  partial kinetic energy density read in
  atomic valenz-charges read in
  non local Contribution for L=            0  read in
    real space projection operators read in
  non local Contribution for L=            0  read in
    real space projection operators read in
  non local Contribution for L=            1  read in
    real space projection operators read in
  non local Contribution for L=            1  read in
    real space projection operators read in
  non local Contribution for L=            2  read in
    real space projection operators read in
    PAW grid and wavefunctions read in
 
   number of l-projection  operators is LMAX  =            5
   number of lm-projection operators is LMMAX =           13
 
 POTCAR:    PAW_PBE Se 06Sep2000                  
   VRHFIN =Se: s2p4                                                                                 
   LEXCH  = PE                                                                                      
   EATOM  =   257.1286 eV,   18.8984 Ry                                                             
                                                                                                    
   TITEL  = PAW_PBE Se 06Sep2000                                                                    
   LULTRA =        F    use ultrasoft PP ?                                                          
   IUNSCR =        1    unscreen: 0-lin 1-nonlin 2-no                                               
   RPACOR =    1.900    partial core radius                                                         
   POMASS =   78.960; ZVAL   =    6.000    mass and valenz                                          
   RCORE  =    2.100    outmost cutoff radius                                                       
   RWIGS  =    2.200; RWIGS  =    1.164    wigner-seitz radius (au A)                               
   ENMAX  =  211.555; ENMIN  =  158.666 eV                                                          
   ICORE  =        3    local potential                                                             
   LCOR   =        T    correct aug charges                                                         
   LPAW   =        T    paw PP                                                                      
   EAUG   =  446.842                                                                                
   DEXC   =    0.000                                                                                
   RMAX   =    2.147    core radius for proj-oper                                                   
   RAUG   =    1.300    factor for augmentation sphere                                              
   RDEP   =    2.177    radius for radial grids                                                     
   RDEPT  =    1.928    core radius for aug-charge                                                  
                                                                                                    
   Atomic configuration                                                                             
   10 entries                                                                                       
     n  l   j            E        occ.                                                              
     1  0  0.50    -12503.4787   2.0000                                                             
     2  0  0.50     -1606.9547   2.0000                                                             
     2  1  1.50     -1413.3140   6.0000                                                             
     3  0  0.50      -213.4885   2.0000                                                             
     3  1  1.50      -152.9538   6.0000                                                             
     3  2  2.50       -53.1221  10.0000                                                             
     4  0  0.50       -17.2865   2.0000                                                             
     4  1  0.50        -6.5110   4.0000                                                             
     4  2  2.50        -6.8029   0.0000                                                             
     4  3  2.50        -6.8029   0.0000                                                             
   Description                                                                                      
     l       E           TYP  RCUT    TYP  RCUT                                                     
     0    -17.2865377     23  2.100                                                                 
     0    -15.3094411     23  2.100                                                                 
     1     -6.5110275     23  2.100                                                                 
     1     -0.0695192     23  2.100                                                                 
     2     -6.8029130     23  2.100                                                                 
     3     -1.3605826      7  2.100                                                                 
  local pseudopotential read in
  partial core-charges read in
  partial kinetic energy density read in
  atomic valenz-charges read in
  non local Contribution for L=            0  read in
    real space projection operators read in
  non local Contribution for L=            0  read in
    real space projection operators read in
  non local Contribution for L=            1  read in
    real space projection operators read in
  non local Contribution for L=            1  read in
    real space projection operators read in
  non local Contribution for L=            2  read in
    real space projection operators read in
    PAW grid and wavefunctions read in
 
   number of l-projection  operators is LMAX  =            5
   number of lm-projection operators is LMMAX =           13
 
 -----------------------------------------------------------------------------
|                                                                             |
|               ----> ADVICE to this user running VASP <----                  |
|                                                                             |
|     You have a (more or less) 'large supercell' and for larger cells it     |
|     might be more efficient to use real-space projection operators.         |
|     Therefore, try LREAL= Auto in the INCAR file.                           |
|     Mind: For very accurate calculation, you might also keep the            |
|     reciprocal projection scheme (i.e. LREAL=.FALSE.).                      |
|                                                                             |
 -----------------------------------------------------------------------------

  PAW_PBE Ge 05Jan2001                  :
 energy of atom  1       EATOM= -104.9960
 kinetic energy error for atom=    0.0002 (will be added to EATOM!!)
  PAW_PBE Se 06Sep2000                  :
 energy of atom  2       EATOM= -257.1286
 kinetic energy error for atom=    0.0007 (will be added to EATOM!!)
 
 
 POSCAR: Ge Se
  positions in cartesian coordinates
  No initial velocities read in
 exchange correlation table for  LEXCH =        8
   RHO(1)=    0.500       N(1)  =     2000
   RHO(2)=  100.500       N(2)  =     4000
 


--------------------------------------------------------------------------------------------------------


 ion  position               nearest neighbor table
   1  0.073  0.058  0.122-  54 2.54  45 2.63  55 2.65
   2  0.220  0.902  0.392-  45 2.48  48 2.50  67 2.64
   3  0.574  0.198  0.375-  68 2.59  49 2.74
   4  0.579  0.538  0.365-  69 2.56  72 2.58  50 2.76  56 2.85
   5  0.585  0.868  0.371-  70 2.50  44 2.70  72 2.85
   6  0.900  0.223  0.353-  55 2.37  46 2.54  56 2.79
   7  0.925  0.526  0.354-  71 2.41  47 2.74  46 2.82
   8  0.914  0.870  0.340-  53 2.48  44 2.55  45 2.68
   9  0.059  0.157  0.627-  57 2.57  51 2.66  37 2.74
  10  0.061  0.494  0.629-  58 2.53  43 2.69  38 2.71
  11  0.054  0.805  0.613-  52 2.57  59 2.61  39 2.85
  12  0.385  0.153  0.641-  60 2.52  51 2.55  40 2.75
  13  0.401  0.483  0.625-  61 2.53  41 2.65  38 2.75
  14  0.406  0.828  0.624-  62 2.65  42 2.72  39 2.77
  15  0.731  0.164  0.622-  40 2.58  63 2.72  37 2.79
  16  0.733  0.487  0.635-  64 2.62  43 2.63  41 2.68
  17  0.253  0.517  0.367-  66 2.54  47 2.57
  18  0.249  0.187  0.357-  54 2.61  48 2.65  49 2.70
  19  0.744  0.825  0.633-  65 2.60  52 2.61  42 2.79
  20  0.902  0.656  0.854-  52 2.57  58 2.58  64 2.84
  21  0.893  0.996  0.878-  37 2.65  65 2.77  59 2.82
  22  0.099  0.368  0.128-  66 2.54  46 2.58  54 2.61
  23  0.098  0.716  0.128-  47 2.57  67 2.62  53 2.75
  24  0.410  0.034  0.134-  48 2.60  70 2.66  68 2.71
  25  0.421  0.363  0.138-  49 2.55  69 2.66  66 2.68
  26  0.739  0.050  0.139-  68 2.51  44 2.61  55 2.64
  27  0.733  0.391  0.116-  69 2.57  71 2.59  56 2.60
  28  0.414  0.716  0.141-  70 2.58  50 2.59  67 2.80
  29  0.245  0.334  0.861-  38 2.48  60 2.61  57 2.84
  30  0.253  0.673  0.878-  39 2.58  61 2.66  62 2.85
  31  0.219  0.981  0.869-  51 2.62  62 2.66  59 2.68
  32  0.569  0.328  0.870-  41 2.38  63 2.73  60 2.83
  33  0.559  0.655  0.868-  61 2.55  42 2.55  64 2.69
  34  0.563  0.979  0.843-  40 2.53  65 2.63  62 2.65
  35  0.895  0.295  0.872-  43 2.60  57 2.64  63 2.73
  36  0.751  0.685  0.117-  72 2.57  71 2.64  53 2.80
  37  0.894  0.013  0.640-  21 2.65   9 2.74  15 2.79
  38  0.224  0.351  0.639-  29 2.48  10 2.71  13 2.75
  39  0.242  0.679  0.646-  30 2.58  14 2.77  11 2.85
  40  0.570  0.034  0.624-  34 2.53  15 2.58  12 2.75
  41  0.566  0.354  0.657-  32 2.38  13 2.65  16 2.68
  42  0.570  0.685  0.640-  33 2.55  14 2.72  19 2.79
  43  0.897  0.355  0.647-  35 2.60  16 2.63  10 2.69
  44  0.758  0.999  0.366-   8 2.55  26 2.61   5 2.70
  45  0.065  0.022  0.356-   2 2.48   1 2.63   8 2.68
  46  0.062  0.345  0.356-   6 2.54  22 2.58   7 2.82
  47  0.102  0.656  0.349-  23 2.57  17 2.57   7 2.74
  48  0.381  0.021  0.366-   2 2.50  24 2.60  18 2.65
  49  0.404  0.338  0.366-  25 2.55  18 2.70   3 2.74
  50  0.413  0.684  0.371-  28 2.59   4 2.76
  51  0.226  0.025  0.638-  12 2.55  31 2.62   9 2.66
  52  0.892  0.677  0.624-  20 2.57  11 2.57  19 2.61
  53  0.915  0.838  0.120-   8 2.48  23 2.75  36 2.80
  54  0.221  0.199  0.124-   1 2.54  22 2.61  18 2.61
  55  0.903  0.184  0.143-   6 2.37  26 2.64   1 2.65
  56  0.729  0.367  0.349-  27 2.60   6 2.79   4 2.85
  57  0.074  0.183  0.856-   9 2.57  35 2.64  29 2.84
  58  0.059  0.521  0.855-  10 2.53  20 2.58
  59  0.056  0.843  0.844-  11 2.61  31 2.68  21 2.82
  60  0.393  0.186  0.864-  12 2.52  29 2.61  32 2.83
  61  0.403  0.525  0.848-  13 2.53  33 2.55  30 2.66
  62  0.391  0.855  0.860-  14 2.65  34 2.65  31 2.66  30 2.85
  63  0.718  0.168  0.867-  15 2.72  35 2.73  32 2.73
  64  0.723  0.516  0.869-  16 2.62  33 2.69  20 2.84
  65  0.727  0.849  0.865-  19 2.60  34 2.63  21 2.77
  66  0.254  0.498  0.139-  22 2.54  17 2.54  25 2.68
  67  0.245  0.863  0.159-  23 2.62   2 2.64  28 2.80
  68  0.579  0.170  0.143-  26 2.51   3 2.59  24 2.71
  69  0.570  0.516  0.136-   4 2.56  27 2.57  25 2.66
  70  0.548  0.872  0.149-   5 2.50  28 2.58  24 2.66
  71  0.889  0.526  0.140-   7 2.41  27 2.59  36 2.64
  72  0.722  0.686  0.347-  36 2.57   4 2.58   5 2.85
 

IMPORTANT INFORMATION: All symmetrisations will be switched off!
NOSYMM: (Re-)initialisation of all symmetry stuff for point group C_1.


----------------------------------------------------------------------------------------

                                     Primitive cell                                     

  volume of cell :    1726.5726

  direct lattice vectors                    reciprocal lattice vectors
    12.456397175 -0.000002511  0.000001846     0.080280035  0.000000016 -0.000000015
    -0.000002522 12.509074338 -0.000000721     0.000000016  0.079941966  0.000000006
     0.000002114 -0.000000822 11.080700374    -0.000000013  0.000000005  0.090247003

  length of vectors
    12.456397175 12.509074338 11.080700374     0.080280035  0.079941966  0.090247003

  position of ions in fractional coordinates (direct lattice)
     0.073336996  0.058433953  0.122295492
     0.220345536  0.902070906  0.391623732
     0.574358611  0.198369353  0.374573395
     0.578674863  0.537617643  0.365290151
     0.585303013  0.867691011  0.370965966
     0.899633941  0.222637067  0.352882541
     0.925045288  0.525627243  0.353524016
     0.914250387  0.869707142  0.340292049
     0.059018412  0.157353049  0.627231819
     0.060722984  0.493706845  0.628800429
     0.054097681  0.804792647  0.613179438
     0.384932222  0.152995368  0.640600361
     0.400557996  0.483138571  0.624716249
     0.405789518  0.828203353  0.624045390
     0.731088349  0.164207537  0.621631346
     0.732871047  0.487328056  0.634821856
     0.252947529  0.516913107  0.366779742
     0.249033169  0.187338891  0.357102869
     0.743945131  0.824830724  0.632537701
     0.901658854  0.656068299  0.854258046
     0.892615693  0.995914018  0.878298732
     0.098627053  0.367815314  0.128083080
     0.097819264  0.715896513  0.127550638
     0.410191845  0.033564920  0.134016764
     0.421046587  0.363157872  0.138030031
     0.739337257  0.049807798  0.138574514
     0.732988583  0.391319352  0.116405575
     0.413615084  0.715767503  0.140597122
     0.244560736  0.333620209  0.860727444
     0.253001429  0.673342518  0.878111664
     0.219034200  0.980530130  0.869373685
     0.569010540  0.328483976  0.870347890
     0.559286481  0.655111732  0.867529709
     0.562752762  0.978941451  0.843163200
     0.895223624  0.295405777  0.871866937
     0.751131177  0.684696128  0.117004869
     0.894095599  0.012577387  0.640262407
     0.224253476  0.350917403  0.639261430
     0.242353442  0.678762000  0.645655816
     0.569961886  0.034494341  0.623978686
     0.566185924  0.353653682  0.657265075
     0.569815189  0.685165473  0.640028868
     0.896528125  0.354840721  0.646873392
     0.757681677  0.998679523  0.365600904
     0.064681499  0.021967763  0.356213863
     0.061660865  0.345422204  0.355599051
     0.101608269  0.656136938  0.349275596
     0.380660265  0.020584010  0.365688889
     0.404404453  0.337529606  0.366010349
     0.412775662  0.683723685  0.371090504
     0.225652237  0.025085992  0.638199659
     0.892244092  0.677173777  0.623941962
     0.914709082  0.838329499  0.119728339
     0.220740894  0.198749224  0.123802850
     0.902582777  0.183916459  0.143191248
     0.729265342  0.366868516  0.349057080
     0.074254727  0.182768248  0.856348884
     0.058893428  0.521313571  0.854574581
     0.055880244  0.842566903  0.844388283
     0.392536445  0.185854953  0.864362279
     0.403252444  0.524539332  0.848294956
     0.390893400  0.854642988  0.860440941
     0.717716327  0.167902957  0.866648858
     0.723118284  0.515538049  0.868939855
     0.727285402  0.848808597  0.864908619
     0.254150863  0.498490969  0.138699129
     0.245136525  0.862919481  0.158999501
     0.578547731  0.170318610  0.143109296
     0.569797778  0.515744835  0.136096287
     0.548152817  0.872301943  0.148879933
     0.889061560  0.525979517  0.140246658
     0.721775163  0.686311879  0.346895531

  ion indices of the primitive-cell ions
   primitive index   ion index
                 1           1
                 2           2
                 3           3
                 4           4
                 5           5
                 6           6
                 7           7
                 8           8
                 9           9
                10          10
                11          11
                12          12
                13          13
                14          14
                15          15
                16          16
                17          17
                18          18
                19          19
                20          20
                21          21
                22          22
                23          23
                24          24
                25          25
                26          26
                27          27
                28          28
                29          29
                30          30
                31          31
                32          32
                33          33
                34          34
                35          35
                36          36
                37          37
                38          38
                39          39
                40          40
                41          41
                42          42
                43          43
                44          44
                45          45
                46          46
                47          47
                48          48
                49          49
                50          50
                51          51
                52          52
                53          53
                54          54
                55          55
                56          56
                57          57
                58          58
                59          59
                60          60
                61          61
                62          62
                63          63
                64          64
                65          65
                66          66
                67          67
                68          68
                69          69
                70          70
                71          71
                72          72

----------------------------------------------------------------------------------------

 
 
 KPOINTS: KPOINTS created by Atomic Simulation Env

Automatic generation of k-mesh.
 Grid dimensions read from file:
 generate k-points for:    2    2    2

 Generating k-lattice:

  Cartesian coordinates                     Fractional coordinates (reciprocal lattice)
     0.040140017  0.000000008 -0.000000008     0.500000000 -0.000000000  0.000000000
     0.000000008  0.039970983  0.000000003    -0.000000000  0.500000000  0.000000000
    -0.000000007  0.000000003  0.045123502     0.000000000  0.000000000  0.500000000

  Length of vectors
     0.040140017  0.039970983  0.045123502

  Shift w.r.t. Gamma in fractional coordinates (k-lattice)
     0.000000000  0.000000000  0.000000000

 
 Subroutine IBZKPT returns following result:
 ===========================================
 
 Found      8 irreducible k-points:
 
 Following reciprocal coordinates:
            Coordinates               Weight
  0.000000  0.000000  0.000000      1.000000
  0.500000  0.000000  0.000000      1.000000
  0.000000  0.500000  0.000000      1.000000
  0.500000  0.500000  0.000000      1.000000
  0.000000  0.000000  0.500000      1.000000
  0.500000  0.000000  0.500000      1.000000
  0.000000  0.500000  0.500000      1.000000
  0.500000  0.500000  0.500000      1.000000
 
 Following cartesian coordinates:
            Coordinates               Weight
  0.000000  0.000000  0.000000      1.000000
  0.040140  0.000000 -0.000000      1.000000
  0.000000  0.039971  0.000000      1.000000
  0.040140  0.039971 -0.000000      1.000000
 -0.000000  0.000000  0.045124      1.000000
  0.040140  0.000000  0.045123      1.000000
  0.000000  0.039971  0.045124      1.000000
  0.040140  0.039971  0.045123      1.000000
 
 -----------------------------------------------------------------------------
|                                                                             |
|           W    W    AA    RRRRR   N    N  II  N    N   GGGG   !!!           |
|           W    W   A  A   R    R  NN   N  II  NN   N  G    G  !!!           |
|           W    W  A    A  R    R  N N  N  II  N N  N  G       !!!           |
|           W WW W  AAAAAA  RRRRR   N  N N  II  N  N N  G  GGG   !            |
|           WW  WW  A    A  R   R   N   NN  II  N   NN  G    G                |
|           W    W  A    A  R    R  N    N  II  N    N   GGGG   !!!           |
|                                                                             |
|     The number of bands has been changed from the values supplied in        |
|     the INCAR file. This is a result of running the parallel version.       |
|     The orbitals not found in the WAVECAR file will be initialized with     |
|     random numbers, which is usually adequate. For correlated               |
|     calculations, however, you should redo the groundstate calculation.     |
|     I found NBANDS = 220. Now, NBANDS = 224.                                |
|                                                                             |
 -----------------------------------------------------------------------------



--------------------------------------------------------------------------------------------------------




 Dimension of arrays:
   k-points           NKPTS =      8   k-points in BZ     NKDIM =      8   number of bands    NBANDS=    224
   number of dos      NEDOS =    301   number of ions     NIONS =     72
   non local maximal  LDIM  =      5   non local SUM 2l+1 LMDIM =     13
   total plane-waves  NPLWV = 774144
   max r-space proj   IRMAX =      1   max aug-charges    IRDMAX=  24566
   dimension x,y,z NGX =    96 NGY =   96 NGZ =   84
   dimension x,y,z NGXF=   192 NGYF=  192 NGZF=  168
   support grid    NGXF=   192 NGYF=  192 NGZF=  168
   ions per type =              36  36
   NGX,Y,Z   is equivalent  to a cutoff of  12.81, 12.76, 12.60 a.u.
   NGXF,Y,Z  is equivalent  to a cutoff of  25.62, 25.52, 25.21 a.u.

 SYSTEM =  01_AOPT                                 
 POSCAR =  Ge Se                                   

 Startparameter for this run:
   NWRITE =      2    write-flag & timer
   PREC   = accura    normal or accurate (medium, high low for compatibility)
   ISTART =      0    job   : 0-new  1-cont  2-samecut
   ICHARG =      2    charge: 1-file 2-atom 10-const
   ISPIN  =      2    spin polarized calculation?
   LNONCOLLINEAR =      F non collinear calculations
   LSORBIT =      F    spin-orbit coupling
   INIWAV =      1    electr: 0-lowe 1-rand  2-diag
   LASPH  =      T    aspherical Exc in radial PAW
 Electronic Relaxation 1
   ENCUT  =  520.0 eV  38.22 Ry    6.18 a.u.  23.16 23.26 20.60*2*pi/ulx,y,z
   ENINI  =  520.0     initial cutoff
   ENAUG  =  446.8 eV  augmentation charge cutoff
   NELM   =    100;   NELMIN=  5; NELMDL=  0     # of ELM steps 
   EDIFF  = 0.1E-05   stopping-criterion for ELM
   LREAL  =      F    real-space projection
   NLSPLINE    = F    spline interpolate recip. space projectors
   LCOMPAT=      F    compatible to vasp.4.4
   GGA_COMPAT  = T    GGA compatible to vasp.4.4-vasp.4.6
   LMAXPAW     = -100 max onsite density
   LMAXMIX     =    2 max onsite mixed and CHGCAR
   VOSKOWN=      0    Vosko Wilk Nusair interpolation
   ROPT   =    0.00000   0.00000
 Ionic relaxation
   EDIFFG = 0.1E-04   stopping-criterion for IOM
   NSW    =      0    number of steps for IOM
   NBLOCK =      1;   KBLOCK =      1    inner block; outer block 
   IBRION =     -1    ionic relax: 0-MD 1-quasi-New 2-CG
   NFREE  =      0    steps in history (QN), initial steepest desc. (CG)
   ISIF   =      2    stress and relaxation
   IWAVPR =     10    prediction:  0-non 1-charg 2-wave 3-comb
   ISYM   =     -1    0-nonsym 1-usesym 2-fastsym
   LCORR  =      T    Harris-Foulkes like correction to forces

   POTIM  = 0.5000    time-step for ionic-motion
   TEIN   =    0.0    initial temperature
   TEBEG  =    0.0;   TEEND  =   0.0 temperature during run
   SMASS  =  -3.00    Nose mass-parameter (am)
   estimated Nose-frequenzy (Omega)   =  0.10E-29 period in steps = 0.13E+47 mass=  -0.355E-26a.u.
   SCALEE = 1.0000    scale energy and forces
   NPACO  =    256;   APACO  = 10.0  distance and # of slots for P.C.
   PSTRESS=    0.0 pullay stress

  Mass of Ions in am
   POMASS =  72.61 78.96
  Ionic Valenz
   ZVAL   =   4.00  6.00
  Atomic Wigner-Seitz radii
   RWIGS  =  -1.00 -1.00
  virtual crystal weights 
   VCA    =   1.00  1.00
   NELECT =     360.0000    total number of electrons
   NUPDOWN=      -1.0000    fix difference up-down

 DOS related values:
   EMIN   =  10.00;   EMAX   =-10.00  energy-range for DOS
   EFERMI =   0.00;   METHOD = LEGACY      
   ISMEAR =     0;   SIGMA  =   0.05  broadening in eV -4-tet -1-fermi 0-gaus

 Electronic relaxation 2 (details)
   IALGO  =     38    algorithm
   LDIAG  =      T    sub-space diagonalisation (order eigenvalues)
   LSUBROT=      F    optimize rotation matrix (better conditioning)
   TURBO    =      0    0=normal 1=particle mesh
   IRESTART =      0    0=no restart 2=restart with 2 vectors
   NREBOOT  =      0    no. of reboots
   NMIN     =      0    reboot dimension
   EREF     =   0.00    reference energy to select bands
   IMIX   =      4    mixing-type and parameters
     AMIX     =   0.40;   BMIX     =  1.00
     AMIX_MAG =   1.60;   BMIX_MAG =  1.00
     AMIN     =   0.10
     WC   =   100.;   INIMIX=   1;  MIXPRE=   1;  MAXMIX= -45

 Intra band minimization:
   WEIMIN = 0.0000     energy-eigenvalue tresh-hold
   EBREAK =  0.11E-08  absolut break condition
   DEPER  =   0.30     relativ break condition  

   TIME   =   0.40     timestep for ELM

  volume/ion in A,a.u.               =      23.98       161.83
  Fermi-wavevector in a.u.,A,eV,Ry     =   0.970765  1.834480 12.821919  0.942384
  Thomas-Fermi vector in A             =   2.100927
 
 Write flags
   LWAVE        =      F    write WAVECAR
   LDOWNSAMPLE  =      F    k-point downsampling of WAVECAR
   LCHARG       =      F    write CHGCAR
   LVTOT        =      F    write LOCPOT, total local potential
   LVHAR        =      F    write LOCPOT, Hartree potential only
   LELF         =      F    write electronic localiz. function (ELF)
   LORBIT       =     11    0 simple, 1 ext, 2 COOP (PROOUT), +10 PAW based schemes


 Dipole corrections
   LMONO  =      F    monopole corrections only (constant potential shift)
   LDIPOL =      F    correct potential (dipole corrections)
   IDIPOL =      0    1-x, 2-y, 3-z, 4-all directions 
   EPSILON=  1.0000000 bulk dielectric constant

 Exchange correlation treatment:
   GGA     =    PE    GGA type
   LEXCH   =     8    internal setting for exchange type
   LIBXC   =     F    Libxc                    
   VOSKOWN =     0    Vosko Wilk Nusair interpolation
   LHFCALC =     F    Hartree Fock is set to
   LHFONE  =     F    Hartree Fock one center treatment
   AEXX    =    0.0000 exact exchange contribution

 Linear response parameters
   LEPSILON=     F    determine dielectric tensor
   LRPA    =     F    only Hartree local field effects (RPA)
   LNABLA  =     F    use nabla operator in PAW spheres
   LVEL    =     F    velocity operator in full k-point grid
   CSHIFT  =0.1000    complex shift for real part using Kramers Kronig
   OMEGAMAX=  -1.0    maximum frequency
   DEG_THRESHOLD= 0.2000000E-02 threshold for treating states as degnerate
   RTIME   =   -0.100 relaxation time in fs
  (WPLASMAI=    0.000 imaginary part of plasma frequency in eV, 0.658/RTIME)
   DFIELD  = 0.0000000 0.0000000 0.0000000 field for delta impulse in time
 
  Optional k-point grid parameters
   LKPOINTS_OPT  =     F    use optional k-point grid
   KPOINTS_OPT_MODE=     1    mode for optional k-point grid
 
 Orbital magnetization related:
   ORBITALMAG=     F  switch on orbital magnetization
   LCHIMAG   =     F  perturbation theory with respect to B field
   DQ        =  0.001000  dq finite difference perturbation B field
   LLRAUG    =     F  two centre corrections for induced B field
   LBONE     =     F  B-component reconstruction in AE one-centre
   LVGVCALC  =     T  calculate vGv susceptibility
   LVGVAPPL  =     F  apply vGv susceptibility instead of pGv for G=0

 Random number generation:
   RANDOM_GENERATOR = DEFAULT
   PCG_SEED         = not used


--------------------------------------------------------------------------------------------------------


 Static calculation
 charge density and potential will be updated during run
 spin polarized calculation
 Variant of blocked Davidson
 Davidson routine will perform the subspace rotation
 perform sub-space diagonalisation
    after iterative eigenvector-optimisation
 modified Broyden-mixing scheme, WC =      100.0
 initial mixing is a Kerker type mixing with AMIX =  0.4000 and BMIX =      1.0000
 Hartree-type preconditioning will be used
 using additional bands            44
 reciprocal scheme for non local part
 use partial core corrections
 calculate Harris-corrections to forces 
   (improved forces if not selfconsistent)
 use gradient corrections 
 use of overlap-Matrix (Vanderbilt PP)
 Gauss-broadening in eV      SIGMA  =   0.05


--------------------------------------------------------------------------------------------------------


  energy-cutoff  :      520.00
  volume of cell :     1726.57
      direct lattice vectors                 reciprocal lattice vectors
    12.456397175 -0.000002511  0.000001846     0.080280035  0.000000016 -0.000000015
    -0.000002522 12.509074338 -0.000000721     0.000000016  0.079941966  0.000000006
     0.000002114 -0.000000822 11.080700374    -0.000000013  0.000000005  0.090247003

  length of vectors
    12.456397175 12.509074338 11.080700374     0.080280035  0.079941966  0.090247003


 
 k-points in units of 2pi/SCALE and weight: KPOINTS created by Atomic Simulation Env
   0.00000000  0.00000000  0.00000000       0.125
   0.04014002  0.00000001 -0.00000001       0.125
   0.00000001  0.03997098  0.00000000       0.125
   0.04014003  0.03997099 -0.00000000       0.125
  -0.00000001  0.00000000  0.04512350       0.125
   0.04014001  0.00000001  0.04512349       0.125
   0.00000000  0.03997099  0.04512350       0.125
   0.04014002  0.03997099  0.04512350       0.125
 
 k-points in reciprocal lattice and weights: KPOINTS created by Atomic Simulation Env
   0.00000000  0.00000000  0.00000000       0.125
   0.50000000  0.00000000  0.00000000       0.125
   0.00000000  0.50000000  0.00000000       0.125
   0.50000000  0.50000000  0.00000000       0.125
   0.00000000  0.00000000  0.50000000       0.125
   0.50000000  0.00000000  0.50000000       0.125
   0.00000000  0.50000000  0.50000000       0.125
   0.50000000  0.50000000  0.50000000       0.125
 
 position of ions in fractional coordinates (direct lattice) 
   0.07333700  0.05843395  0.12229549
   0.22034554  0.90207091  0.39162373
   0.57435861  0.19836935  0.37457340
   0.57867486  0.53761764  0.36529015
   0.58530301  0.86769101  0.37096597
   0.89963394  0.22263707  0.35288254
   0.92504529  0.52562724  0.35352402
   0.91425039  0.86970714  0.34029205
   0.05901841  0.15735305  0.62723182
   0.06072298  0.49370684  0.62880043
   0.05409768  0.80479265  0.61317944
   0.38493222  0.15299537  0.64060036
   0.40055800  0.48313857  0.62471625
   0.40578952  0.82820335  0.62404539
   0.73108835  0.16420754  0.62163135
   0.73287105  0.48732806  0.63482186
   0.25294753  0.51691311  0.36677974
   0.24903317  0.18733889  0.35710287
   0.74394513  0.82483072  0.63253770
   0.90165885  0.65606830  0.85425805
   0.89261569  0.99591402  0.87829873
   0.09862705  0.36781531  0.12808308
   0.09781926  0.71589651  0.12755064
   0.41019184  0.03356492  0.13401676
   0.42104659  0.36315787  0.13803003
   0.73933726  0.04980780  0.13857451
   0.73298858  0.39131935  0.11640557
   0.41361508  0.71576750  0.14059712
   0.24456074  0.33362021  0.86072744
   0.25300143  0.67334252  0.87811166
   0.21903420  0.98053013  0.86937369
   0.56901054  0.32848398  0.87034789
   0.55928648  0.65511173  0.86752971
   0.56275276  0.97894145  0.84316320
   0.89522362  0.29540578  0.87186694
   0.75113118  0.68469613  0.11700487
   0.89409560  0.01257739  0.64026241
   0.22425348  0.35091740  0.63926143
   0.24235344  0.67876200  0.64565582
   0.56996189  0.03449434  0.62397869
   0.56618592  0.35365368  0.65726508
   0.56981519  0.68516547  0.64002887
   0.89652812  0.35484072  0.64687339
   0.75768168  0.99867952  0.36560090
   0.06468150  0.02196776  0.35621386
   0.06166087  0.34542220  0.35559905
   0.10160827  0.65613694  0.34927560
   0.38066026  0.02058401  0.36568889
   0.40440445  0.33752961  0.36601035
   0.41277566  0.68372368  0.37109050
   0.22565224  0.02508599  0.63819966
   0.89224409  0.67717378  0.62394196
   0.91470908  0.83832950  0.11972834
   0.22074089  0.19874922  0.12380285
   0.90258278  0.18391646  0.14319125
   0.72926534  0.36686852  0.34905708
   0.07425473  0.18276825  0.85634888
   0.05889343  0.52131357  0.85457458
   0.05588024  0.84256690  0.84438828
   0.39253645  0.18585495  0.86436228
   0.40325244  0.52453933  0.84829496
   0.39089340  0.85464299  0.86044094
   0.71771633  0.16790296  0.86664886
   0.72311828  0.51553805  0.86893986
   0.72728540  0.84880860  0.86490862
   0.25415086  0.49849097  0.13869913
   0.24513652  0.86291948  0.15899950
   0.57854773  0.17031861  0.14310930
   0.56979778  0.51574483  0.13609629
   0.54815282  0.87230194  0.14887993
   0.88906156  0.52597952  0.14024666
   0.72177516  0.68631188  0.34689553
 
 position of ions in cartesian coordinates  (Angst):
   0.91351486  0.73095438  1.35511980
   2.74471006 11.28407114  4.33946499
   7.15443927  2.48141524  4.15053648
   7.20820335  6.72509730  4.04767139
   7.29076539 10.85400959  4.11056318
  11.20619787  2.78498108  3.91018721
  11.52273093  6.57510764  3.91729502
  11.38826446 10.87922872  3.77067530
   0.73515771  1.96834033  6.95016785
   0.75638969  6.17581495  6.96754890
   0.67386146 10.06721040  6.79445715
   4.79486961  1.91382894  7.09830126
   4.98950960  6.04361479  6.92229397
   5.05467463 10.36005578  6.91486014
   9.10672775  2.05408194  6.88811192
   9.12893296  6.09602052  7.03427178
   3.15081436  6.46610354  4.06417652
   3.10205634  2.34343520  3.95695022
   9.26687529 10.31786645  7.00896152
  11.23142095  8.20680415  9.46577864
  11.11877494 12.45795952  9.73216601
   1.22853708  4.60102875  1.41925015
   1.21847407  8.95520235  1.41335007
   5.10951274  0.41986494  1.48500034
   5.24472289  4.54276764  1.52946993
   9.20947869  0.62304748  1.53550400
   9.13039618  4.89504092  1.28985637
   5.15215226  8.95358775  1.55791483
   3.04634664  4.17327868  9.53746312
   3.15148644  8.42289026  9.73009222
   2.72837635 12.26552302  9.63326902
   7.08782229  4.10902833  9.64406500
   6.96669472  8.19483923  9.61283733
   7.00987123 12.24564928  9.34283912
  11.15126212  3.69524986  9.66089774
   9.35638679  8.56491278  1.29649679
  11.13721121  0.15732869  7.09455753
   2.79339083  4.38965079  7.08346452
   3.01885038  8.49068318  7.15431861
   7.09967286  0.43149034  6.91412189
   7.05263724  4.42387823  7.28295816
   7.09784393  8.57078388  7.09196867
  11.16751087  4.43872617  7.16781164
   9.43798215 12.49255419  4.05111476
   0.80569914  0.27479592  3.94709919
   0.76807211  4.32091159  3.94028640
   1.26567203  8.20766519  3.87021795
   4.74165617  0.25748566  4.05208969
   5.03742241  4.22218162  4.05565152
   5.14169665  8.55274906  4.11194296
   2.81081518  0.31380145  7.07169960
  11.11414640  8.47081436  6.91371509
  11.39397776 10.48672363  1.32667494
   2.74963601  2.48616816  1.37182255
  11.24292940  2.30062227  1.58666085
   9.08401856  4.58918341  3.86779800
   0.92494772  2.28626071  9.48894540
   0.73360043  6.52114936  9.46928461
   0.69606618 10.53973118  9.35641306
   4.88959123  2.32487172  9.57774002
   5.02307308  6.56149978  9.39970260
   4.86912310 10.69079098  9.53428836
   8.94016103  2.10030806  9.60307753
   9.00744909  6.44890125  9.62846314
   9.05935551 10.61780729  9.58379399
   3.16580313  6.23565983  1.53688360
   3.05351607 10.79432319  1.76182567
   7.20662019  2.13052658  1.58575218
   7.09762642  6.45148893  1.50804286
   6.82800732 10.91168836  1.64969432
  11.07450288  6.57951452  1.55403246
   8.99071710  8.58512422  3.84384628
 


--------------------------------------------------------------------------------------------------------


 k-point   1 :   0.0000 0.0000 0.0000  plane waves:   46453
 k-point   2 :   0.5000 0.0000 0.0000  plane waves:   46494
 k-point   3 :   0.0000 0.5000 0.0000  plane waves:   46490
 k-point   4 :   0.5000 0.5000 0.0000  plane waves:   46560
 k-point   5 :   0.0000 0.0000 0.5000  plane waves:   46550
 k-point   6 :   0.5000 0.0000 0.5000  plane waves:   46460
 k-point   7 :   0.0000 0.5000 0.5000  plane waves:   46480
 k-point   8 :   0.5000 0.5000 0.5000  plane waves:   46456

 maximum and minimum number of plane-waves per node :      5859     5770

 maximum number of plane-waves:     46560
 maximum index in each direction: 
   IXMAX=   23   IYMAX=   23   IZMAX=   20
   IXMIN=  -23   IYMIN=  -23   IZMIN=  -21


 parallel 3D FFT for wavefunctions:
    minimum data exchange during FFTs selected (reduces bandwidth)
 parallel 3D FFT for charge:
    minimum data exchange during FFTs selected (reduces bandwidth)


 total amount of memory used by VASP MPI-rank0   111325. kBytes
=======================================================================

   base      :      30000. kBytes
   nonl-proj :      16513. kBytes
   fftplans  :       6180. kBytes
   grid      :      15593. kBytes
   one-center:        146. kBytes
   wavefun   :      42893. kBytes
 
     INWAV:  cpu time      0.0000: real time      0.0001
 Broyden mixing: mesh for mixing (old mesh)
   NGX = 47   NGY = 47   NGZ = 41
  (NGX  =192   NGY  =192   NGZ  =168)
  gives a total of  90569 points

 initial charge density was supplied:
 charge density of overlapping atoms calculated
 number of electron     360.0000000 magnetization      72.0000000
 keeping initial charge density in first step


--------------------------------------------------------------------------------------------------------


 Maximum index for augmentation-charges           690 (set IRDMAX)


--------------------------------------------------------------------------------------------------------


 First call to EWALD:  gamma=   0.148
 Maximum number of real-space cells 3x 3x 3
 Maximum number of reciprocal cells 3x 3x 3

    FEWALD:  cpu time      0.0078: real time      0.0078


--------------------------------------- Ionic step        1  -------------------------------------------




--------------------------------------- Iteration      1(   1)  ---------------------------------------


    POTLOK:  cpu time      0.1384: real time      0.1393
    SETDIJ:  cpu time      0.6033: real time      0.6049
     EDDAV:  cpu time      8.6662: real time      8.7083
       DOS:  cpu time      0.0014: real time      0.0015
    --------------------------------------------
      LOOP:  cpu time      9.4094: real time      9.4539

 eigenvalue-minimisations  :  7168
 total energy-change (2. order) : 0.1816730E+04  (-0.1417808E+05)
 number of electron     360.0000000 magnetization      72.0000000
 augmentation part      360.0000000 magnetization      72.0000000

 Free energy of the ion-electron system (eV)
  ---------------------------------------------------
  alpha Z        PSCENC =       794.92754563
  Ewald energy   TEWEN  =    -12851.57099123
  -Hartree energ DENC   =     -1115.63378680
  -exchange      EXHF   =         0.00000000
  -V(xc)+E(xc)   XCENC  =      -294.06512735
  PAW double counting   =     10738.42099860    -9719.93139476
  entropy T*S    EENTRO =        -0.02315897
  eigenvalues    EBANDS =      1228.15459904
  atomic energy  EATOM  =     13036.45147835
  Solvation  Ediel_sol  =         0.00000000
  ---------------------------------------------------
  free energy    TOTEN  =      1816.73016250 eV

  energy without entropy =     1816.75332148  energy(sigma->0) =     1816.74174199


--------------------------------------------------------------------------------------------------------




--------------------------------------- Iteration      1(   2)  ---------------------------------------


     EDDAV:  cpu time      9.7797: real time      9.8276
       DOS:  cpu time      0.0013: real time      0.0013
    --------------------------------------------
      LOOP:  cpu time      9.7810: real time      9.8289

 eigenvalue-minimisations  :  8416
 total energy-change (2. order) :-0.1878268E+04  (-0.1802988E+04)
 number of electron     360.0000000 magnetization      72.0000000
 augmentation part      360.0000000 magnetization      72.0000000

 Free energy of the ion-electron system (eV)
  ---------------------------------------------------
  alpha Z        PSCENC =       794.92754563
  Ewald energy   TEWEN  =    -12851.57099123
  -Hartree energ DENC   =     -1115.63378680
  -exchange      EXHF   =         0.00000000
  -V(xc)+E(xc)   XCENC  =      -294.06512735
  PAW double counting   =     10738.42099860    -9719.93139476
  entropy T*S    EENTRO =        -0.01956558
  eigenvalues    EBANDS =      -650.11691059
  atomic energy  EATOM  =     13036.45147835
  Solvation  Ediel_sol  =         0.00000000
  ---------------------------------------------------
  free energy    TOTEN  =       -61.53775373 eV

  energy without entropy =      -61.51818815  energy(sigma->0) =      -61.52797094


--------------------------------------------------------------------------------------------------------




--------------------------------------- Iteration      1(   3)  ---------------------------------------


     EDDAV:  cpu time      9.9551: real time     10.0039
       DOS:  cpu time      0.0015: real time      0.0015
    --------------------------------------------
      LOOP:  cpu time      9.9566: real time     10.0054

 eigenvalue-minimisations  :  8584
 total energy-change (2. order) :-0.2199184E+03  (-0.2137246E+03)
 number of electron     360.0000000 magnetization      72.0000000
 augmentation part      360.0000000 magnetization      72.0000000

 Free energy of the ion-electron system (eV)
  ---------------------------------------------------
  alpha Z        PSCENC =       794.92754563
  Ewald energy   TEWEN  =    -12851.57099123
  -Hartree energ DENC   =     -1115.63378680
  -exchange      EXHF   =         0.00000000
  -V(xc)+E(xc)   XCENC  =      -294.06512735
  PAW double counting   =     10738.42099860    -9719.93139476
  entropy T*S    EENTRO =        -0.00001705
  eigenvalues    EBANDS =      -870.05482828
  atomic energy  EATOM  =     13036.45147835
  Solvation  Ediel_sol  =         0.00000000
  ---------------------------------------------------
  free energy    TOTEN  =      -281.45612289 eV

  energy without entropy =     -281.45610584  energy(sigma->0) =     -281.45611437


--------------------------------------------------------------------------------------------------------




--------------------------------------- Iteration      1(   4)  ---------------------------------------


     EDDAV:  cpu time     10.0165: real time     10.0646
       DOS:  cpu time      0.0016: real time      0.0016
    --------------------------------------------
      LOOP:  cpu time     10.0181: real time     10.0662

 eigenvalue-minimisations  :  8640
 total energy-change (2. order) :-0.8089954E+01  (-0.7991978E+01)
 number of electron     360.0000000 magnetization      72.0000000
 augmentation part      360.0000000 magnetization      72.0000000

 Free energy of the ion-electron system (eV)
  ---------------------------------------------------
  alpha Z        PSCENC =       794.92754563
  Ewald energy   TEWEN  =    -12851.57099123
  -Hartree energ DENC   =     -1115.63378680
  -exchange      EXHF   =         0.00000000
  -V(xc)+E(xc)   XCENC  =      -294.06512735
  PAW double counting   =     10738.42099860    -9719.93139476
  entropy T*S    EENTRO =        -0.00000126
  eigenvalues    EBANDS =      -878.14479778
  atomic energy  EATOM  =     13036.45147835
  Solvation  Ediel_sol  =         0.00000000
  ---------------------------------------------------
  free energy    TOTEN  =      -289.54607661 eV

  energy without entropy =     -289.54607535  energy(sigma->0) =     -289.54607598


--------------------------------------------------------------------------------------------------------




--------------------------------------- Iteration      1(   5)  ---------------------------------------


     EDDAV:  cpu time     10.3563: real time     10.4071
       DOS:  cpu time      0.0010: real time      0.0010
    CHARGE:  cpu time      0.4253: real time      0.4272
    MIXING:  cpu time      0.0081: real time      0.0084
    --------------------------------------------
      LOOP:  cpu time     10.7907: real time     10.8437

 eigenvalue-minimisations  :  9152
 total energy-change (2. order) :-0.3211100E+00  (-0.3202199E+00)
 number of electron     359.9999995 magnetization      48.7910748
 augmentation part      -66.8691088 magnetization      49.0022515

 Broyden mixing:
  rms(total) = 0.29179E+01    rms(broyden)= 0.29179E+01
  rms(prec ) = 0.30743E+01
  weight for this iteration     100.00

 Free energy of the ion-electron system (eV)
  ---------------------------------------------------
  alpha Z        PSCENC =       794.92754563
  Ewald energy   TEWEN  =    -12851.57099123
  -Hartree energ DENC   =     -1115.63378680
  -exchange      EXHF   =         0.00000000
  -V(xc)+E(xc)   XCENC  =      -294.06512735
  PAW double counting   =     10738.42099860    -9719.93139476
  entropy T*S    EENTRO =        -0.00000111
  eigenvalues    EBANDS =      -878.46590791
  atomic energy  EATOM  =     13036.45147835
  Solvation  Ediel_sol  =         0.00000000
  ---------------------------------------------------
  free energy    TOTEN  =      -289.86718659 eV

  energy without entropy =     -289.86718547  energy(sigma->0) =     -289.86718603


--------------------------------------------------------------------------------------------------------




--------------------------------------- Iteration      1(   6)  ---------------------------------------


    POTLOK:  cpu time      0.1336: real time      0.1353
    SETDIJ:  cpu time      0.6056: real time      0.6080
     EDDAV:  cpu time      9.3398: real time      9.3917
       DOS:  cpu time      0.0013: real time      0.0013
    CHARGE:  cpu time      0.4143: real time      0.4159
    MIXING:  cpu time      0.0086: real time      0.0086
    --------------------------------------------
      LOOP:  cpu time     10.5032: real time     10.5609

 eigenvalue-minimisations  :  7992
 total energy-change (2. order) : 0.3772283E+00  (-0.2683635E+01)
 number of electron     359.9999995 magnetization      27.9158334
 augmentation part      -66.2507858 magnetization      29.0969876

 Broyden mixing:
  rms(total) = 0.17286E+01    rms(broyden)= 0.17286E+01
  rms(prec ) = 0.17650E+01
  weight for this iteration     100.00

 eigenvalues of (default mixing * dielectric matrix)
  average eigenvalue GAMMA=   1.0084
  1.0084

 Free energy of the ion-electron system (eV)
  ---------------------------------------------------
  alpha Z        PSCENC =       794.92754563
  Ewald energy   TEWEN  =    -12851.57099123
  -Hartree energ DENC   =     -1169.23115565
  -exchange      EXHF   =         0.00000000
  -V(xc)+E(xc)   XCENC  =      -287.53017838
  PAW double counting   =     13015.68253749   -12000.68496128
  entropy T*S    EENTRO =        -0.00000099
  eigenvalues    EBANDS =      -827.53423219
  atomic energy  EATOM  =     13036.45147835
  Solvation  Ediel_sol  =         0.00000000
  ---------------------------------------------------
  free energy    TOTEN  =      -289.48995827 eV

  energy without entropy =     -289.48995728  energy(sigma->0) =     -289.48995777


--------------------------------------------------------------------------------------------------------




--------------------------------------- Iteration      1(   7)  ---------------------------------------


    POTLOK:  cpu time      0.1307: real time      0.1316
    SETDIJ:  cpu time      0.6066: real time      0.6088
     EDDAV:  cpu time      9.3921: real time      9.4389
       DOS:  cpu time      0.0013: real time      0.0013
    CHARGE:  cpu time      0.4207: real time      0.4223
    MIXING:  cpu time      0.0076: real time      0.0077
    --------------------------------------------
      LOOP:  cpu time     10.5590: real time     10.6106

 eigenvalue-minimisations  :  8016
 total energy-change (2. order) :-0.7262577E+01  (-0.8594469E+00)
 number of electron     359.9999994 magnetization       9.1935955
 augmentation part      -66.2388230 magnetization       9.8710870

 Broyden mixing:
  rms(total) = 0.90948E+00    rms(broyden)= 0.90948E+00
  rms(prec ) = 0.92543E+00
  weight for this iteration     100.00

 eigenvalues of (default mixing * dielectric matrix)
  average eigenvalue GAMMA=   1.4536
  0.8622  2.0450

 Free energy of the ion-electron system (eV)
  ---------------------------------------------------
  alpha Z        PSCENC =       794.92754563
  Ewald energy   TEWEN  =    -12851.57099123
  -Hartree energ DENC   =     -1186.05911211
  -exchange      EXHF   =         0.00000000
  -V(xc)+E(xc)   XCENC  =      -290.50274413
  PAW double counting   =     15099.83134094   -14086.43049753
  entropy T*S    EENTRO =        -0.00000000
  eigenvalues    EBANDS =      -813.39955469
  atomic energy  EATOM  =     13036.45147835
  Solvation  Ediel_sol  =         0.00000000
  ---------------------------------------------------
  free energy    TOTEN  =      -296.75253478 eV

  energy without entropy =     -296.75253478  energy(sigma->0) =     -296.75253478


--------------------------------------------------------------------------------------------------------




--------------------------------------- Iteration      1(   8)  ---------------------------------------


    POTLOK:  cpu time      0.1297: real time      0.1304
    SETDIJ:  cpu time      0.6086: real time      0.6104
     EDDAV:  cpu time      9.5117: real time      9.5610
       DOS:  cpu time      0.0008: real time      0.0008
    CHARGE:  cpu time      0.4156: real time      0.4175
    MIXING:  cpu time      0.0080: real time      0.0081
    --------------------------------------------
      LOOP:  cpu time     10.6745: real time     10.7282

 eigenvalue-minimisations  :  8168
 total energy-change (2. order) :-0.3225379E+01  (-0.1732688E+00)
 number of electron     359.9999994 magnetization       4.3875078
 augmentation part      -66.2480865 magnetization       4.6958413

 Broyden mixing:
  rms(total) = 0.33077E+00    rms(broyden)= 0.33077E+00
  rms(prec ) = 0.33604E+00
  weight for this iteration     100.00

 eigenvalues of (default mixing * dielectric matrix)
  average eigenvalue GAMMA=   1.3579
  2.4971  0.9250  0.6517

 Free energy of the ion-electron system (eV)
  ---------------------------------------------------
  alpha Z        PSCENC =       794.92754563
  Ewald energy   TEWEN  =    -12851.57099123
  -Hartree energ DENC   =     -1190.71276343
  -exchange      EXHF   =         0.00000000
  -V(xc)+E(xc)   XCENC  =      -290.22124001
  PAW double counting   =     16870.32612560   -15857.84500009
  entropy T*S    EENTRO =        -0.00000000
  eigenvalues    EBANDS =      -811.33306821
  atomic energy  EATOM  =     13036.45147835
  Solvation  Ediel_sol  =         0.00000000
  ---------------------------------------------------
  free energy    TOTEN  =      -299.97791339 eV

  energy without entropy =     -299.97791339  energy(sigma->0) =     -299.97791339


--------------------------------------------------------------------------------------------------------




--------------------------------------- Iteration      1(   9)  ---------------------------------------


    POTLOK:  cpu time      0.1292: real time      0.1299
    SETDIJ:  cpu time      0.6069: real time      0.6085
     EDDAV:  cpu time     10.3043: real time     10.3568
       DOS:  cpu time      0.0008: real time      0.0008
    CHARGE:  cpu time      0.4108: real time      0.4124
    MIXING:  cpu time      0.0075: real time      0.0075
    --------------------------------------------
      LOOP:  cpu time     11.4594: real time     11.5158

 eigenvalue-minimisations  :  9064
 total energy-change (2. order) :-0.3790636E+00  (-0.4236597E-01)
 number of electron     359.9999994 magnetization       2.2917602
 augmentation part      -66.2853646 magnetization       2.4463167

 Broyden mixing:
  rms(total) = 0.14790E+00    rms(broyden)= 0.14790E+00
  rms(prec ) = 0.14968E+00
  weight for this iteration     100.00

 eigenvalues of (default mixing * dielectric matrix)
  average eigenvalue GAMMA=   1.3287
  2.6306  1.2334  0.8317  0.6189

 Free energy of the ion-electron system (eV)
  ---------------------------------------------------
  alpha Z        PSCENC =       794.92754563
  Ewald energy   TEWEN  =    -12851.57099123
  -Hartree energ DENC   =     -1189.70647007
  -exchange      EXHF   =         0.00000000
  -V(xc)+E(xc)   XCENC  =      -290.26544773
  PAW double counting   =     17154.78621183   -16142.64304798
  entropy T*S    EENTRO =        -0.00000000
  eigenvalues    EBANDS =      -812.33625578
  atomic energy  EATOM  =     13036.45147835
  Solvation  Ediel_sol  =         0.00000000
  ---------------------------------------------------
  free energy    TOTEN  =      -300.35697698 eV

  energy without entropy =     -300.35697698  energy(sigma->0) =     -300.35697698


--------------------------------------------------------------------------------------------------------




--------------------------------------- Iteration      1(  10)  ---------------------------------------


    POTLOK:  cpu time      0.1290: real time      0.1297
    SETDIJ:  cpu time      0.6070: real time      0.6093
     EDDAV:  cpu time      9.4983: real time      9.5465
       DOS:  cpu time      0.0010: real time      0.0010
    CHARGE:  cpu time      0.4226: real time      0.4243
    MIXING:  cpu time      0.0080: real time      0.0080
    --------------------------------------------
      LOOP:  cpu time     10.6659: real time     10.7189

 eigenvalue-minimisations  :  8112
 total energy-change (2. order) :-0.1065533E+00  (-0.9776847E-02)
 number of electron     359.9999994 magnetization       0.7333754
 augmentation part      -66.2878933 magnetization       0.8016875

 Broyden mixing:
  rms(total) = 0.73112E-01    rms(broyden)= 0.73112E-01
  rms(prec ) = 0.74183E-01
  weight for this iteration     100.00

 eigenvalues of (default mixing * dielectric matrix)
  average eigenvalue GAMMA=   1.3759
  2.7028  1.7592  0.9697  0.8221  0.6257

 Free energy of the ion-electron system (eV)
  ---------------------------------------------------
  alpha Z        PSCENC =       794.92754563
  Ewald energy   TEWEN  =    -12851.57099123
  -Hartree energ DENC   =     -1189.86450076
  -exchange      EXHF   =         0.00000000
  -V(xc)+E(xc)   XCENC  =      -290.26364035
  PAW double counting   =     17164.56324904   -16152.43102972
  entropy T*S    EENTRO =        -0.00000000
  eigenvalues    EBANDS =      -812.27564124
  atomic energy  EATOM  =     13036.45147835
  Solvation  Ediel_sol  =         0.00000000
  ---------------------------------------------------
  free energy    TOTEN  =      -300.46353028 eV

  energy without entropy =     -300.46353028  energy(sigma->0) =     -300.46353028


--------------------------------------------------------------------------------------------------------




--------------------------------------- Iteration      1(  11)  ---------------------------------------


    POTLOK:  cpu time      0.1297: real time      0.1304
    SETDIJ:  cpu time      0.6041: real time      0.6065
     EDDAV:  cpu time     10.2135: real time     10.2622
       DOS:  cpu time      0.0009: real time      0.0009
    CHARGE:  cpu time      0.4100: real time      0.4116
    MIXING:  cpu time      0.0079: real time      0.0080
    --------------------------------------------
      LOOP:  cpu time     11.3661: real time     11.4195

 eigenvalue-minimisations  :  8952
 total energy-change (2. order) :-0.3178330E-01  (-0.3725322E-02)
 number of electron     359.9999994 magnetization       0.1898793
 augmentation part      -66.2739030 magnetization       0.2080472

 Broyden mixing:
  rms(total) = 0.28633E-01    rms(broyden)= 0.28633E-01
  rms(prec ) = 0.29165E-01
  weight for this iteration     100.00

 eigenvalues of (default mixing * dielectric matrix)
  average eigenvalue GAMMA=   1.4039
  2.9048  2.1740  1.1694  0.8550  0.6962  0.6239

 Free energy of the ion-electron system (eV)
  ---------------------------------------------------
  alpha Z        PSCENC =       794.92754563
  Ewald energy   TEWEN  =    -12851.57099123
  -Hartree energ DENC   =     -1190.95470015
  -exchange      EXHF   =         0.00000000
  -V(xc)+E(xc)   XCENC  =      -290.22202062
  PAW double counting   =     17089.40488163   -16077.24573217
  entropy T*S    EENTRO =        -0.00000000
  eigenvalues    EBANDS =      -811.28577502
  atomic energy  EATOM  =     13036.45147835
  Solvation  Ediel_sol  =         0.00000000
  ---------------------------------------------------
  free energy    TOTEN  =      -300.49531358 eV

  energy without entropy =     -300.49531358  energy(sigma->0) =     -300.49531358


--------------------------------------------------------------------------------------------------------




--------------------------------------- Iteration      1(  12)  ---------------------------------------


    POTLOK:  cpu time      0.1293: real time      0.1310
    SETDIJ:  cpu time      0.6067: real time      0.6087
     EDDAV:  cpu time      9.8938: real time      9.9413
       DOS:  cpu time      0.0008: real time      0.0008
    CHARGE:  cpu time      0.4197: real time      0.4216
    MIXING:  cpu time      0.0076: real time      0.0076
    --------------------------------------------
      LOOP:  cpu time     11.0579: real time     11.1110

 eigenvalue-minimisations  :  8544
 total energy-change (2. order) :-0.3194732E-02  (-0.4366062E-03)
 number of electron     359.9999994 magnetization       0.0672147
 augmentation part      -66.2733721 magnetization       0.0718499

 Broyden mixing:
  rms(total) = 0.11247E-01    rms(broyden)= 0.11247E-01
  rms(prec ) = 0.11881E-01
  weight for this iteration     100.00

 eigenvalues of (default mixing * dielectric matrix)
  average eigenvalue GAMMA=   1.3635
  2.9945  2.3236  1.2011  0.8809  0.8809  0.6087  0.6549

 Free energy of the ion-electron system (eV)
  ---------------------------------------------------
  alpha Z        PSCENC =       794.92754563
  Ewald energy   TEWEN  =    -12851.57099123
  -Hartree energ DENC   =     -1191.05439073
  -exchange      EXHF   =         0.00000000
  -V(xc)+E(xc)   XCENC  =      -290.22445337
  PAW double counting   =     17053.99807029   -16041.81677808
  entropy T*S    EENTRO =        -0.00000000
  eigenvalues    EBANDS =      -811.20898917
  atomic energy  EATOM  =     13036.45147835
  Solvation  Ediel_sol  =         0.00000000
  ---------------------------------------------------
  free energy    TOTEN  =      -300.49850832 eV

  energy without entropy =     -300.49850832  energy(sigma->0) =     -300.49850832


--------------------------------------------------------------------------------------------------------




--------------------------------------- Iteration      1(  13)  ---------------------------------------


    POTLOK:  cpu time      0.1321: real time      0.1328
    SETDIJ:  cpu time      0.6029: real time      0.6048
     EDDAV:  cpu time     11.0422: real time     11.1019
       DOS:  cpu time      0.0008: real time      0.0008
    CHARGE:  cpu time      0.4172: real time      0.4191
    MIXING:  cpu time      0.0077: real time      0.0077
    --------------------------------------------
      LOOP:  cpu time     12.2028: real time     12.2671

 eigenvalue-minimisations  :  9824
 total energy-change (2. order) :-0.1252343E-03  (-0.6675394E-04)
 number of electron     359.9999994 magnetization       0.0173104
 augmentation part      -66.2746765 magnetization       0.0182954

 Broyden mixing:
  rms(total) = 0.47668E-02    rms(broyden)= 0.47668E-02
  rms(prec ) = 0.49618E-02
  weight for this iteration     100.00

 eigenvalues of (default mixing * dielectric matrix)
  average eigenvalue GAMMA=   1.3545
  3.0487  2.4358  1.1440  1.1440  0.9378  0.8692  0.6489  0.6075

 Free energy of the ion-electron system (eV)
  ---------------------------------------------------
  alpha Z        PSCENC =       794.92754563
  Ewald energy   TEWEN  =    -12851.57099123
  -Hartree energ DENC   =     -1190.95810631
  -exchange      EXHF   =         0.00000000
  -V(xc)+E(xc)   XCENC  =      -290.23461574
  PAW double counting   =     17040.08553437   -16027.89317735
  entropy T*S    EENTRO =        -0.00000000
  eigenvalues    EBANDS =      -811.30630126
  atomic energy  EATOM  =     13036.45147835
  Solvation  Ediel_sol  =         0.00000000
  ---------------------------------------------------
  free energy    TOTEN  =      -300.49863355 eV

  energy without entropy =     -300.49863355  energy(sigma->0) =     -300.49863355


--------------------------------------------------------------------------------------------------------




--------------------------------------- Iteration      1(  14)  ---------------------------------------


    POTLOK:  cpu time      0.1285: real time      0.1292
    SETDIJ:  cpu time      0.6048: real time      0.6071
     EDDAV:  cpu time      9.6144: real time      9.6717
       DOS:  cpu time      0.0006: real time      0.0006
    CHARGE:  cpu time      0.4173: real time      0.4192
    MIXING:  cpu time      0.0078: real time      0.0079
    --------------------------------------------
      LOOP:  cpu time     10.7735: real time     10.8358

 eigenvalue-minimisations  :  8280
 total energy-change (2. order) :-0.2061701E-04  (-0.9931402E-05)
 number of electron     359.9999994 magnetization       0.0054177
 augmentation part      -66.2743046 magnetization       0.0058074

 Broyden mixing:
  rms(total) = 0.16945E-02    rms(broyden)= 0.16945E-02
  rms(prec ) = 0.17977E-02
  weight for this iteration     100.00

 eigenvalues of (default mixing * dielectric matrix)
  average eigenvalue GAMMA=   1.3340
  3.0787  2.4607  1.4646  1.1976  0.8782  0.8782  0.7941  0.6109  0.6432

 Free energy of the ion-electron system (eV)
  ---------------------------------------------------
  alpha Z        PSCENC =       794.92754563
  Ewald energy   TEWEN  =    -12851.57099123
  -Hartree energ DENC   =     -1190.96716761
  -exchange      EXHF   =         0.00000000
  -V(xc)+E(xc)   XCENC  =      -290.23487441
  PAW double counting   =     17035.36822735   -16023.17295644
  entropy T*S    EENTRO =        -0.00000000
  eigenvalues    EBANDS =      -811.29991581
  atomic energy  EATOM  =     13036.45147835
  Solvation  Ediel_sol  =         0.00000000
  ---------------------------------------------------
  free energy    TOTEN  =      -300.49865417 eV

  energy without entropy =     -300.49865417  energy(sigma->0) =     -300.49865417


--------------------------------------------------------------------------------------------------------




--------------------------------------- Iteration      1(  15)  ---------------------------------------


    POTLOK:  cpu time      0.1295: real time      0.1301
    SETDIJ:  cpu time      0.6052: real time      0.6068
     EDDAV:  cpu time      9.8818: real time      9.9549
       DOS:  cpu time      0.0008: real time      0.0008
    CHARGE:  cpu time      0.4210: real time      0.4230
    MIXING:  cpu time      0.0091: real time      0.0091
    --------------------------------------------
      LOOP:  cpu time     11.0475: real time     11.1248

 eigenvalue-minimisations  :  8560
 total energy-change (2. order) :-0.3462188E-05  (-0.1653932E-05)
 number of electron     359.9999994 magnetization       0.0019236
 augmentation part      -66.2744257 magnetization       0.0021359

 Broyden mixing:
  rms(total) = 0.76895E-03    rms(broyden)= 0.76895E-03
  rms(prec ) = 0.81815E-03
  weight for this iteration     100.00

 eigenvalues of (default mixing * dielectric matrix)
  average eigenvalue GAMMA=   1.2990
  3.0905  2.4301  1.6435  1.0937  0.9796  0.9796  0.8287  0.7061  0.6192  0.6192

 Free energy of the ion-electron system (eV)
  ---------------------------------------------------
  alpha Z        PSCENC =       794.92754563
  Ewald energy   TEWEN  =    -12851.57099123
  -Hartree energ DENC   =     -1190.95568264
  -exchange      EXHF   =         0.00000000
  -V(xc)+E(xc)   XCENC  =      -290.23519163
  PAW double counting   =     17034.89283864   -16022.69683208
  entropy T*S    EENTRO =        -0.00000000
  eigenvalues    EBANDS =      -811.31182266
  atomic energy  EATOM  =     13036.45147835
  Solvation  Ediel_sol  =         0.00000000
  ---------------------------------------------------
  free energy    TOTEN  =      -300.49865763 eV

  energy without entropy =     -300.49865763  energy(sigma->0) =     -300.49865763


--------------------------------------------------------------------------------------------------------




--------------------------------------- Iteration      1(  16)  ---------------------------------------


    POTLOK:  cpu time      0.1289: real time      0.1295
    SETDIJ:  cpu time      0.6066: real time      0.6087
     EDDAV:  cpu time      6.7345: real time      6.7691
       DOS:  cpu time      0.0008: real time      0.0008
    --------------------------------------------
      LOOP:  cpu time      7.4707: real time      7.5081

 eigenvalue-minimisations  :  4912
 total energy-change (2. order) :-0.4602266E-06  (-0.1473164E-06)
 number of electron     359.9999994 magnetization       0.0019236
 augmentation part      -66.2744257 magnetization       0.0021359

 Free energy of the ion-electron system (eV)
  ---------------------------------------------------
  alpha Z        PSCENC =       794.92754563
  Ewald energy   TEWEN  =    -12851.57099123
  -Hartree energ DENC   =     -1190.94839000
  -exchange      EXHF   =         0.00000000
  -V(xc)+E(xc)   XCENC  =      -290.23554742
  PAW double counting   =     17034.81187060   -16022.61557100
  entropy T*S    EENTRO =        -0.00000000
  eigenvalues    EBANDS =      -811.31905302
  atomic energy  EATOM  =     13036.45147835
  Solvation  Ediel_sol  =         0.00000000
  ---------------------------------------------------
  free energy    TOTEN  =      -300.49865809 eV

  energy without entropy =     -300.49865809  energy(sigma->0) =     -300.49865809


--------------------------------------------------------------------------------------------------------




 average (electrostatic) potential at core
  the test charge radii are     1.1631  1.0808
  (the norm of the test charge is              1.0000)
       1 -33.5367       2 -33.2947       3 -33.7904       4 -33.3168       5 -33.5358
       6 -33.2656       7 -33.4206       8 -33.3503       9 -33.5354      10 -33.4399
      11 -33.5722      12 -33.3593      13 -33.5416      14 -33.6859      15 -33.6641
      16 -33.5581      17 -33.4728      18 -33.5961      19 -33.5229      20 -33.4582
      21 -33.6263      22 -33.4106      23 -33.4020      24 -33.5907      25 -33.5299
      26 -33.4051      27 -33.3962      28 -33.4463      29 -33.4622      30 -33.5519
      31 -33.6003      32 -33.4642      33 -33.3610      34 -33.4368      35 -33.4369
      36 -33.6106      37 -54.7717      38 -54.8743      39 -54.6741      40 -54.8690
      41 -54.9601      42 -54.7564      43 -54.8016      44 -54.9020      45 -54.9825
      46 -54.8576      47 -54.6775      48 -54.9897      49 -54.9807      50 -54.5516
      51 -54.9507      52 -55.1150      53 -54.8094      54 -55.0688      55 -54.9818
      56 -54.7337      57 -54.8337      58 -54.5143      59 -54.7658      60 -54.7996
      61 -54.9852      62 -55.0261      63 -54.8550      64 -54.8097      65 -54.8342
      66 -54.9206      67 -54.7247      68 -55.0213      69 -55.0002      70 -54.8567
      71 -54.9706      72 -54.7228
 
 
 
 E-fermi :   3.5120     XC(G=0):  -9.3635     alpha+bet : -8.7992

 Fermi energy:         3.5119858211

 spin component 1

 k-point     1 :       0.0000    0.0000    0.0000
  band No.  band energies     occupation 
      1     -10.9354      1.00000
      2     -10.5925      1.00000
      3     -10.5076      1.00000
      4     -10.3690      1.00000
      5     -10.3364      1.00000
      6     -10.2727      1.00000
      7     -10.1312      1.00000
      8     -10.1127      1.00000
      9     -10.0712      1.00000
     10      -9.9843      1.00000
     11      -9.9274      1.00000
     12      -9.8972      1.00000
     13      -9.8256      1.00000
     14      -9.7776      1.00000
     15      -9.7023      1.00000
     16      -9.6903      1.00000
     17      -9.6120      1.00000
     18      -9.5926      1.00000
     19      -9.5521      1.00000
     20      -9.5240      1.00000
     21      -9.4580      1.00000
     22      -9.4189      1.00000
     23      -9.3955      1.00000
     24      -9.3285      1.00000
     25      -9.2800      1.00000
     26      -9.2716      1.00000
     27      -9.2400      1.00000
     28      -9.2108      1.00000
     29      -9.1746      1.00000
     30      -9.1220      1.00000
     31      -9.0831      1.00000
     32      -9.0534      1.00000
     33      -9.0161      1.00000
     34      -8.9881      1.00000
     35      -8.9444      1.00000
     36      -8.8639      1.00000
     37      -5.3763      1.00000
     38      -5.3587      1.00000
     39      -5.2993      1.00000
     40      -5.2838      1.00000
     41      -5.1429      1.00000
     42      -5.0317      1.00000
     43      -4.9983      1.00000
     44      -4.9626      1.00000
     45      -4.8433      1.00000
     46      -4.7150      1.00000
     47      -4.5960      1.00000
     48      -4.5690      1.00000
     49      -4.5346      1.00000
     50      -4.4701      1.00000
     51      -4.4277      1.00000
     52      -4.3980      1.00000
     53      -4.3845      1.00000
     54      -4.3582      1.00000
     55      -4.3391      1.00000
     56      -4.2841      1.00000
     57      -4.2738      1.00000
     58      -4.2354      1.00000
     59      -4.1832      1.00000
     60      -4.1543      1.00000
     61      -4.1169      1.00000
     62      -4.0794      1.00000
     63      -4.0059      1.00000
     64      -3.9760      1.00000
     65      -3.8994      1.00000
     66      -3.8732      1.00000
     67      -3.7733      1.00000
     68      -3.6502      1.00000
     69      -3.5584      1.00000
     70      -3.4576      1.00000
     71      -2.4984      1.00000
     72      -2.4246      1.00000
     73      -1.8436      1.00000
     74      -1.6515      1.00000
     75      -1.5904      1.00000
     76      -1.5768      1.00000
     77      -1.5121      1.00000
     78      -1.4631      1.00000
     79      -1.3879      1.00000
     80      -1.2750      1.00000
     81      -1.2369      1.00000
     82      -1.1996      1.00000
     83      -1.1066      1.00000
     84      -1.0835      1.00000
     85      -1.0202      1.00000
     86      -0.8514      1.00000
     87      -0.8095      1.00000
     88      -0.7416      1.00000
     89      -0.7275      1.00000
     90      -0.6620      1.00000
     91      -0.5647      1.00000
     92      -0.5026      1.00000
     93      -0.4346      1.00000
     94      -0.3504      1.00000
     95      -0.1643      1.00000
     96      -0.1373      1.00000
     97      -0.0892      1.00000
     98      -0.0597      1.00000
     99      -0.0150      1.00000
    100       0.0483      1.00000
    101       0.0815      1.00000
    102       0.1184      1.00000
    103       0.1442      1.00000
    104       0.1774      1.00000
    105       0.2285      1.00000
    106       0.2971      1.00000
    107       0.3345      1.00000
    108       0.3451      1.00000
    109       0.3999      1.00000
    110       0.4252      1.00000
    111       0.4453      1.00000
    112       0.4876      1.00000
    113       0.5675      1.00000
    114       0.6074      1.00000
    115       0.6098      1.00000
    116       0.6443      1.00000
    117       0.6646      1.00000
    118       0.7095      1.00000
    119       0.7247      1.00000
    120       0.7544      1.00000
    121       0.7668      1.00000
    122       0.7930      1.00000
    123       0.8497      1.00000
    124       0.9164      1.00000
    125       0.9333      1.00000
    126       0.9658      1.00000
    127       1.0040      1.00000
    128       1.0470      1.00000
    129       1.0870      1.00000
    130       1.1069      1.00000
    131       1.1968      1.00000
    132       1.2299      1.00000
    133       1.2576      1.00000
    134       1.2682      1.00000
    135       1.3095      1.00000
    136       1.3189      1.00000
    137       1.3594      1.00000
    138       1.4052      1.00000
    139       1.4760      1.00000
    140       1.5109      1.00000
    141       1.5655      1.00000
    142       1.5894      1.00000
    143       1.6368      1.00000
    144       1.6594      1.00000
    145       1.7130      1.00000
    146       1.7446      1.00000
    147       1.7787      1.00000
[...]
   -.143E+00 -.125E+02 -.204E+02   -.157E+00 0.152E+02 0.234E+02   0.291E+00 -.218E+01 -.281E+01   -.263E-05 0.128E-03 0.293E-03
   0.726E+01 -.192E+02 0.212E+02   -.896E+01 0.196E+02 -.237E+02   0.204E+01 -.831E-01 0.275E+01   0.122E-03 -.619E-04 0.169E-03
   -.435E+01 0.575E+01 0.234E+02   0.438E+01 -.634E+01 -.248E+02   -.509E-01 0.101E+01 0.182E+01   0.997E-04 0.216E-04 -.151E-03
   0.626E+01 0.293E+01 0.303E+02   -.627E+01 -.375E+01 -.325E+02   0.213E+00 0.933E+00 0.180E+01   0.742E-04 0.153E-03 0.491E-04
   0.108E+02 0.112E+01 0.282E+02   -.109E+02 -.189E+01 -.296E+02   -.109E+00 0.119E+01 0.153E+01   -.195E-03 -.601E-04 -.226E-03
   0.181E+01 0.124E+02 0.271E+02   -.233E+01 -.134E+02 -.294E+02   0.746E-02 0.343E+00 0.209E+01   -.190E-03 -.765E-04 0.486E-04
   -.288E+01 0.124E+02 0.398E+02   0.279E+01 -.135E+02 -.421E+02   0.188E+00 0.878E+00 0.989E+00   -.225E-04 0.116E-03 -.700E-04
   -.523E+01 0.880E+00 0.268E+02   0.538E+01 -.166E+01 -.287E+02   -.268E+00 0.105E+01 0.184E+01   0.830E-04 -.125E-03 -.139E-03
   -.418E+00 0.950E+01 0.233E+02   0.528E+00 -.104E+02 -.250E+02   -.231E+00 0.626E+00 0.159E+01   0.769E-04 0.134E-03 0.133E-03
   0.313E+01 -.883E+01 -.232E+02   -.327E+01 0.998E+01 0.254E+02   -.382E+00 -.804E+00 -.240E+01   0.252E-03 0.308E-04 -.579E-03
   0.186E+02 -.262E+01 -.249E+02   -.197E+02 0.395E+01 0.266E+02   0.549E+00 -.790E+00 -.189E+01   -.221E-04 -.255E-03 -.348E-03
   -.593E+01 -.614E+01 -.330E+02   0.687E+01 0.623E+01 0.351E+02   -.850E+00 0.558E+00 -.209E+01   -.522E-03 -.931E-04 -.307E-03
   0.107E+02 -.201E+02 -.235E+02   -.110E+02 0.214E+02 0.253E+02   -.514E+00 -.886E+00 -.182E+01   -.128E-03 0.230E-03 -.110E-03
   -.280E+02 0.366E+01 -.259E+02   0.296E+02 -.355E+01 0.276E+02   -.923E+00 0.666E+00 -.181E+01   -.346E-03 -.445E-03 -.944E-04
   -.642E+01 -.605E+01 -.308E+02   0.638E+01 0.681E+01 0.327E+02   0.471E+00 -.124E+01 -.197E+01   -.503E-04 0.280E-03 -.648E-04
   0.134E+02 -.839E+01 -.228E+02   -.137E+02 0.879E+01 0.244E+02   0.107E-01 -.918E+00 -.214E+01   -.947E-04 -.809E-04 -.183E-03
   0.614E+01 0.206E+02 0.134E+02   -.627E+01 -.218E+02 -.147E+02   -.232E-01 0.775E+00 0.157E+01   0.141E-03 -.130E-03 -.210E-03
   0.608E+00 0.987E+01 0.358E+02   -.941E+00 -.110E+02 -.378E+02   0.242E+00 0.933E+00 0.213E+01   0.116E-03 -.227E-03 -.179E-03
   0.197E+01 -.313E+01 0.219E+02   -.204E+01 0.388E+01 -.240E+02   0.616E-01 -.995E+00 0.212E+01   0.212E-03 0.410E-04 0.353E-03
   -.191E+02 0.426E+01 0.254E+02   0.205E+02 -.454E+01 -.274E+02   -.947E+00 0.830E-01 0.236E+01   -.360E-03 -.180E-03 -.122E-03
   0.639E+01 -.882E+01 0.335E+02   -.663E+01 0.997E+01 -.358E+02   0.948E-01 -.113E+01 0.106E+01   -.456E-04 0.285E-03 0.238E-03
   -.243E+01 0.722E+01 -.358E+02   0.251E+01 -.694E+01 0.376E+02   0.107E-01 -.115E+01 -.158E+01   0.443E-03 0.568E-05 -.387E-03
   0.435E+01 0.365E+01 -.190E+02   -.394E+01 -.424E+01 0.205E+02   -.703E+00 0.613E+00 -.159E+01   -.188E-03 0.223E-03 0.516E-03
   -.760E+01 0.613E+01 -.378E+02   0.806E+01 -.706E+01 0.398E+02   -.242E+00 0.113E+01 -.193E+01   -.257E-03 0.396E-04 0.201E-03
   -.295E+01 0.694E+01 -.228E+02   0.265E+01 -.764E+01 0.243E+02   0.386E+00 0.985E+00 -.156E+01   0.612E-04 -.189E-03 0.229E-03
   -.886E+01 0.162E+02 -.301E+02   0.915E+01 -.171E+02 0.323E+02   -.891E-01 0.101E+01 -.212E+01   -.861E-04 -.219E-04 -.587E-04
   0.121E+02 0.784E+01 -.305E+02   -.124E+02 -.888E+01 0.324E+02   -.137E+00 0.660E+00 -.151E+01   -.142E-03 0.145E-03 0.154E-04
   -.245E+01 0.191E+01 -.234E+02   0.271E+01 -.224E+01 0.251E+02   -.331E+00 0.912E-01 -.194E+01   -.454E-04 -.584E-04 0.224E-03
   -.219E+01 0.747E+01 -.193E+02   0.207E+01 -.803E+01 0.206E+02   0.488E+00 0.950E+00 -.200E+01   0.249E-03 0.234E-03 0.457E-03
   -.171E+02 0.361E+01 -.143E+02   0.176E+02 -.409E+01 0.157E+02   -.298E+00 0.730E+00 -.189E+01   0.386E-03 -.703E-04 0.191E-03
   -.188E+00 0.849E+01 -.313E+02   0.153E+00 -.955E+01 0.331E+02   0.270E+00 0.123E+01 -.224E+01   -.101E-03 -.656E-04 0.240E-03
   0.301E+01 -.290E+02 0.349E+02   -.279E+01 0.307E+02 -.367E+02   0.149E+00 -.149E+01 0.182E+01   -.390E-03 0.212E-03 0.460E-04
   0.844E+01 0.567E+01 0.274E+02   -.841E+01 -.502E+01 -.285E+02   -.337E+00 -.112E+01 0.875E+00   -.360E-03 -.110E-03 0.403E-03
   0.317E+01 -.952E+01 0.223E+02   -.357E+01 0.109E+02 -.240E+02   -.840E-02 -.940E+00 0.214E+01   0.296E-03 -.603E-04 -.195E-03
   0.164E+02 -.164E+02 0.236E+02   -.171E+02 0.177E+02 -.254E+02   0.213E+00 -.109E+01 0.176E+01   0.844E-04 0.358E-04 0.319E-03
   -.248E+02 0.490E+01 0.326E+02   0.265E+02 -.499E+01 -.346E+02   -.133E+01 -.643E-01 0.158E+01   0.245E-03 -.155E-03 0.241E-04
   -.336E+02 -.283E+01 0.322E+02   0.352E+02 0.272E+01 -.348E+02   -.150E+01 0.227E+00 0.142E+01   0.339E-03 -.375E-03 -.111E-03
   -.214E+02 -.128E+02 -.276E+02   0.228E+02 0.130E+02 0.295E+02   -.131E+01 0.169E+00 -.179E+01   0.628E-04 -.123E-03 0.143E-03
 -----------------------------------------------------------------------------------------------
   -.801E+01 0.396E+01 0.201E+01   -.355E-14 -.835E-13 0.153E-12   0.801E+01 -.397E+01 -.201E+01   0.196E-03 -.554E-03 -.626E-03
 
 
 POSITION                                       TOTAL-FORCE (eV/Angst)
 -----------------------------------------------------------------------------------
      0.91351      0.73095      1.35512        -0.239520     -0.428870      0.046376
      2.74471     11.28407      4.33946         0.133068     -1.146135     -0.058586
      7.15444      2.48142      4.15054         0.103299      0.679806     -0.407557
      7.20820      6.72510      4.04767        -0.297007      0.416352      0.178016
      7.29077     10.85401      4.11056         0.338123     -0.397541      0.169989
     11.20620      2.78498      3.91019        -0.357780      0.091566      1.353890
     11.52273      6.57511      3.91730         0.410996      0.035182      1.119120
     11.38826     10.87923      3.77068         0.176679     -0.300841      0.463455
      0.73516      1.96834      6.95017        -0.095815     -0.100788      0.112192
      0.75639      6.17581      6.96755         0.152115     -0.150801      0.331555
      0.67386     10.06721      6.79446         0.648267      0.222273      0.156899
      4.79487      1.91383      7.09830         0.350437      0.503801     -0.285446
      4.98951      6.04361      6.92229        -0.231314      0.248750     -0.274076
      5.05467     10.36006      6.91486        -0.172952     -0.614631      0.152872
      9.10673      2.05408      6.88811         0.348025     -0.284226      0.627741
      9.12893      6.09602      7.03427        -0.075776     -0.040844      0.298302
      3.15081      6.46610      4.06418         0.241936      0.636674     -0.025279
      3.10206      2.34344      3.95695         0.016414      0.304214     -0.011314
      9.26688     10.31787      7.00896        -0.452786      0.067225      0.249224
     11.23142      8.20680      9.46578         0.052154     -0.172585      0.146522
     11.11877     12.45796      9.73217         0.015484     -0.489248     -0.581153
      1.22854      4.60103      1.41925        -0.363594     -0.110583     -0.088899
      1.21847      8.95520      1.41335        -0.026061      0.046994     -0.118253
      5.10951      0.41986      1.48500         0.159824     -0.173212      0.065395
      5.24472      4.54277      1.52947        -0.107651      0.115969     -0.052427
      9.20948      0.62305      1.53550         0.480085     -0.665957     -0.093361
      9.13040      4.89504      1.28986         0.090423     -0.448731      0.133496
      5.15215      8.95359      1.55791        -0.390044      0.290838      0.484878
      3.04635      4.17328      9.53746        -0.304797     -0.218424      0.283629
      3.15149      8.42289      9.73009        -0.418346     -0.319917     -0.493839
      2.72838     12.26552      9.63327        -0.213295      0.043715     -0.195221
      7.08782      4.10903      9.64407        -0.014776     -0.408614      1.071590
      6.96669      8.19484      9.61284         0.551618      0.165707     -0.006686
      7.00987     12.24565      9.34284         0.426948      0.539919      0.434405
     11.15126      3.69525      9.66090        -0.009602      0.501412      0.181975
      9.35639      8.56491      1.29650         0.339391      0.319011      0.275071
     11.13721      0.15733      7.09456        -0.020795      0.424484      0.419078
      2.79339      4.38965      7.08346         0.207308      0.113269     -0.400326
      3.01885      8.49068      7.15432        -0.227409      0.425710      0.087991
      7.09967      0.43149      6.91412        -0.512032     -0.657822     -0.142690
      7.05264      4.42388      7.28296         0.103190     -0.204215     -1.328127
      7.09784      8.57078      7.09197        -0.121019      0.273366     -0.003947
     11.16751      4.43873      7.16781        -0.121174     -0.283252     -0.110049
      9.43798     12.49255      4.05111        -0.521101      0.346104     -0.291865
      0.80570      0.27480      3.94710        -0.496795      0.543673     -0.271144
      0.76807      4.32091      3.94029         0.091921      0.649929      0.001435
      1.26567      8.20767      3.87022        -0.779577      0.329878      0.070299
      4.74166      0.25749      4.05209         0.656942      0.772714     -0.171523
      5.03742      4.22218      4.05565         0.429481     -0.474212     -0.112821
      5.14170      8.55275      4.11194        -0.292304     -0.524371     -0.533790
      2.81082      0.31380      7.07170        -0.154552     -0.457543      0.265328
     11.11415      8.47081      6.91372        -0.090520     -0.160487      0.088911
     11.39398     10.48672      1.32667        -0.005984     -0.246584      0.023912
      2.74964      2.48617      1.37182         0.477949     -0.197320      0.389752
     11.24293      2.30062      1.58666        -0.137940      0.025342     -1.263599
      9.08402      4.58918      3.86780         0.090850     -0.863336      0.183265
      0.92495      2.28626      9.48895        -0.290352      0.026898     -0.027978
      0.73360      6.52115      9.46928         0.212670      0.198399      0.048816
      0.69607     10.53973      9.35641         0.092213      0.279032     -0.010322
      4.88959      2.32487      9.57774         0.206998      0.075270      0.056356
      5.02307      6.56150      9.39970        -0.373817     -0.387915      0.418423
      4.86912     10.69079      9.53429        -0.070003     -0.247676     -0.278170
      8.94016      2.10031      9.60308         0.370719      0.387615     -0.653936
      9.00745      6.44890      9.62846         0.166117      0.252393     -0.420434
      9.05936     10.61781      9.58379         0.234751      0.165577     -0.411372
      3.16580      6.23566      1.53688         0.370471      0.157453     -0.001879
      3.05352     10.79432      1.76183        -0.308070     -0.466389     -0.199034
      7.20662      2.13053      1.58575        -0.408904      0.413008      0.478688
      7.09763      6.45149      1.50804        -0.490745      0.174853     -0.025873
      6.82801     10.91169      1.64969         0.309640     -0.156541     -0.427710
     11.07450      6.57951      1.55403         0.123389      0.115638     -1.169963
      8.99072      8.58512      3.84385         0.014315      0.419597      0.079799
 -----------------------------------------------------------------------------------
    total drift:                                0.000882     -0.001170     -0.000381


--------------------------------------------------------------------------------------------------------



  FREE ENERGIE OF THE ION-ELECTRON SYSTEM (eV)
  ---------------------------------------------------
  free  energy   TOTEN  =      -300.49865809 eV

  energy  without entropy=     -300.49865809  energy(sigma->0) =     -300.49865809
 


--------------------------------------------------------------------------------------------------------


    POTLOK:  cpu time      0.7334: real time      0.7360


--------------------------------------------------------------------------------------------------------


     LOOP+:  cpu time    182.0856: real time    183.0257
    4ORBIT:  cpu time      0.0000: real time      0.0000



 total charge

# of ion       s       p       d       tot
------------------------------------------
    1        1.325   0.766   0.057   2.149
    2        1.314   0.819   0.067   2.200
    3        1.330   0.713   0.044   2.087
    4        1.319   0.776   0.061   2.156
    5        1.331   0.737   0.052   2.120
    6        1.311   0.836   0.066   2.214
    7        1.327   0.771   0.057   2.155
    8        1.307   0.819   0.059   2.185
    9        1.331   0.736   0.053   2.119
   10        1.319   0.761   0.055   2.134
   11        1.326   0.737   0.049   2.112
   12        1.320   0.791   0.058   2.170
   13        1.332   0.744   0.055   2.131
   14        1.336   0.701   0.046   2.083
   15        1.332   0.715   0.051   2.097
   16        1.329   0.741   0.054   2.125
   17        1.322   0.760   0.058   2.140
   18        1.334   0.743   0.055   2.132
   19        1.328   0.745   0.052   2.125
   20        1.323   0.758   0.054   2.135
   21        1.335   0.698   0.047   2.080
   22        1.321   0.792   0.060   2.173
   23        1.324   0.758   0.049   2.130
   24        1.337   0.736   0.056   2.128
   25        1.324   0.766   0.055   2.145
   26        1.318   0.795   0.059   2.171
   27        1.319   0.786   0.062   2.167
   28        1.315   0.764   0.051   2.131
   29        1.318   0.778   0.057   2.153
   30        1.326   0.729   0.050   2.105
   31        1.330   0.734   0.051   2.115
   32        1.318   0.788   0.062   2.168
   33        1.316   0.788   0.059   2.163
   34        1.322   0.783   0.056   2.161
   35        1.334   0.737   0.048   2.119
   36        1.331   0.731   0.052   2.115
   37        1.479   2.267   0.026   3.772
   38        1.478   2.295   0.032   3.805
   39        1.478   2.268   0.025   3.771
   40        1.478   2.300   0.033   3.811
   41        1.473   2.339   0.037   3.849
   42        1.477   2.284   0.028   3.788
   43        1.475   2.299   0.029   3.803
   44        1.480   2.293   0.032   3.805
   45        1.475   2.314   0.036   3.825
   46        1.477   2.301   0.033   3.811
   47        1.476   2.299   0.029   3.804
   48        1.478   2.315   0.036   3.829
   49        1.480   2.286   0.032   3.798
   50        1.478   2.268   0.025   3.772
   51        1.475   2.310   0.032   3.817
   52        1.480   2.302   0.037   3.818
   53        1.480   2.282   0.029   3.791
   54        1.479   2.307   0.037   3.823
   55        1.473   2.341   0.039   3.853
   56        1.478   2.281   0.029   3.787
   57        1.477   2.291   0.030   3.798
   58        1.476   2.289   0.026   3.792
   59        1.476   2.282   0.027   3.786
   60        1.478   2.291   0.030   3.799
   61        1.474   2.322   0.036   3.831
   62        1.480   2.291   0.033   3.804
   63        1.480   2.266   0.028   3.774
   64        1.477   2.281   0.029   3.786
   65        1.481   2.275   0.030   3.786
   66        1.478   2.310   0.034   3.822
   67        1.473   2.296   0.028   3.798
   68        1.480   2.302   0.034   3.816
   69        1.476   2.313   0.036   3.825
   70        1.473   2.323   0.033   3.829
   71        1.475   2.337   0.038   3.849
   72        1.474   2.297   0.028   3.799
--------------------------------------------------
tot        100.860 110.049   3.114 214.023



 magnetization (x)

# of ion       s       p       d       tot
------------------------------------------
    1       -0.000   0.000   0.000   0.000
    2       -0.000   0.000   0.000   0.000
    3       -0.000   0.000   0.000   0.000
    4       -0.000   0.000  -0.000   0.000
    5       -0.000   0.000   0.000   0.000
    6       -0.000   0.000   0.000   0.000
    7       -0.000  -0.000  -0.000  -0.000
    8       -0.000  -0.000  -0.000  -0.000
    9       -0.000   0.000   0.000   0.000
   10       -0.000  -0.000  -0.000  -0.000
   11       -0.000   0.000  -0.000  -0.000
   12       -0.000   0.000   0.000   0.000
   13       -0.000   0.000   0.000   0.000
   14       -0.000   0.000   0.000   0.000
   15       -0.000   0.000   0.000   0.000
   16       -0.000   0.000  -0.000  -0.000
   17       -0.000   0.000  -0.000   0.000
   18       -0.000   0.000   0.000   0.000
   19       -0.000   0.000  -0.000   0.000
   20       -0.000   0.000  -0.000  -0.000
   21       -0.000   0.000   0.000   0.000
   22       -0.000   0.000  -0.000   0.000
   23       -0.000  -0.000  -0.000  -0.000
   24       -0.000   0.000   0.000   0.000
   25       -0.000   0.000   0.000   0.000
   26       -0.000   0.000   0.000   0.000
   27       -0.000   0.000   0.000   0.000
   28       -0.000  -0.000  -0.000  -0.000
   29       -0.000   0.000   0.000   0.000
   30       -0.000  -0.000  -0.000  -0.000
   31       -0.000   0.000   0.000   0.000
   32       -0.000   0.000   0.000   0.000
   33       -0.000   0.000  -0.000  -0.000
   34       -0.000   0.000   0.000   0.000
   35       -0.000   0.000   0.000   0.000
   36       -0.000   0.000  -0.000   0.000
   37       -0.000  -0.000   0.000  -0.000
   38       -0.000  -0.000   0.000  -0.000
   39       -0.000  -0.000  -0.000  -0.000
   40       -0.000  -0.000   0.000  -0.000
   41       -0.000  -0.000   0.000  -0.000
   42       -0.000  -0.000  -0.000  -0.000
   43       -0.000  -0.000   0.000  -0.000
   44       -0.000  -0.000   0.000  -0.000
   45       -0.000  -0.000   0.000  -0.000
   46       -0.000  -0.000   0.000  -0.000
   47       -0.000  -0.000  -0.000  -0.000
   48       -0.000  -0.000   0.000  -0.000
   49       -0.000  -0.000   0.000  -0.000
   50       -0.000  -0.000  -0.000  -0.000
   51       -0.000  -0.000   0.000  -0.000
   52       -0.000  -0.000  -0.000  -0.000
   53       -0.000  -0.000  -0.000  -0.000
   54       -0.000  -0.000   0.000  -0.000
   55       -0.000  -0.000   0.000  -0.000
   56       -0.000  -0.000   0.000  -0.000
   57       -0.000  -0.000   0.000  -0.000
   58       -0.000  -0.000  -0.000  -0.000
   59       -0.000  -0.000  -0.000  -0.000
   60       -0.000  -0.000   0.000  -0.000
   61       -0.000  -0.000  -0.000  -0.000
   62       -0.000  -0.000   0.000  -0.000
   63       -0.000  -0.000   0.000  -0.000
   64       -0.000  -0.000   0.000  -0.000
   65       -0.000  -0.000   0.000  -0.000
   66       -0.000  -0.000  -0.000  -0.000
   67       -0.000  -0.000   0.000  -0.000
   68       -0.000  -0.000   0.000  -0.000
   69       -0.000  -0.000   0.000  -0.000
   70       -0.000  -0.000   0.000  -0.000
   71        0.000  -0.000  -0.000  -0.000
   72       -0.000  -0.000  -0.000  -0.000
--------------------------------------------------
tot         -0.000  -0.000   0.000  -0.000
 

 total amount of memory used by VASP MPI-rank0   111325. kBytes
=======================================================================

   base      :      30000. kBytes
   nonl-proj :      16513. kBytes
   fftplans  :       6180. kBytes
   grid      :      15593. kBytes
   one-center:        146. kBytes
   wavefun   :      42893. kBytes
 
  
  
 General timing and accounting informations for this job:
 ========================================================
  
                  Total CPU time used (sec):      193.542
                            User time (sec):      187.680
                          System time (sec):        5.862
                         Elapsed time (sec):      196.546
  
                   Maximum memory used (kb):      329680.
                   Average memory used (kb):          N/A
  
                          Minor page faults:        93366
                          Major page faults:           87
                 Voluntary context switches:         6260
