 vasp.6.4.2 20Jul23 (build Oct 12 2023 10:31:02) complex                         
 executed on              LinuxNV date 2025.05.28  16:16:41
 running  128 mpi-ranks, with    1 threads/rank, on    2 nodes
 distrk:  each k-point on   64 cores,    2 groups
 distr:  one band on NCORE=   4 cores,   16 groups


--------------------------------------------------------------------------------------------------------


 INCAR:
   ENCUT = 360.000000
   SIGMA = 0.050000
   EDIFF = 1.00e-06
   ALGO = Normal
   GGA = PE
   PREC = Normal
   SYSTEM = ./
   ICHARG = 2
   ISMEAR = 0
   ISPIN = 1
   ISTART = 0
   ISYM = 0
   KPAR = 2
   LMAXMIX = 4
   NELM = 100
   NPAR = 16
   LASPH = .TRUE.
   LCHARG = .FALSE.
   LWAVE = .FALSE.

 POTCAR:    PAW_PBE Ge 05Jan2001                  
 POTCAR:    PAW_PBE Se 06Sep2000                  
 POTCAR:    PAW_PBE Ge 05Jan2001                  
   VRHFIN =Ge: s2p2                                                                                 
   LEXCH  = PE                                                                                      
   EATOM  =   104.9960 eV,    7.7170 Ry                                                             
                                                                                                    
   TITEL  = PAW_PBE Ge 05Jan2001                                                                    
   LULTRA =        F    use ultrasoft PP ?                                                          
   IUNSCR =        1    unscreen: 0-lin 1-nonlin 2-no                                               
   RPACOR =    2.170    partial core radius                                                         
   POMASS =   72.610; ZVAL   =    4.000    mass and valenz                                          
   RCORE  =    2.300    outmost cutoff radius                                                       
   RWIGS  =    2.300; RWIGS  =    1.217    wigner-seitz radius (au A)                               
   ENMAX  =  173.807; ENMIN  =  130.355 eV                                                          
   ICORE  =        3    local potential                                                             
   LCOR   =        T    correct aug charges                                                         
   LPAW   =        T    paw PP                                                                      
   EAUG   =  385.843                                                                                
   DEXC   =    0.000                                                                                
   RMAX   =    2.342    core radius for proj-oper                                                   
   RAUG   =    1.300    factor for augmentation sphere                                              
   RDEP   =    2.318    radius for radial grids                                                     
   RDEPT  =    2.103    core radius for aug-charge                                                  
                                                                                                    
   Atomic configuration                                                                             
   10 entries                                                                                       
     n  l   j            E        occ.                                                              
     1  0  0.50    -10959.8463   2.0000                                                             
     2  0  0.50     -1371.6056   2.0000                                                             
     2  1  1.50     -1198.4791   6.0000                                                             
     3  0  0.50      -168.4733   2.0000                                                             
     3  1  1.50      -115.6019   6.0000                                                             
     3  2  2.50       -29.3106  10.0000                                                             
     4  0  0.50       -11.7309   2.0000                                                             
     4  1  0.50        -3.8952   2.0000                                                             
     4  2  1.50        -4.0817   0.0000                                                             
     4  3  2.50        -4.0817   0.0000                                                             
   Description                                                                                      
     l       E           TYP  RCUT    TYP  RCUT                                                     
     0    -11.7309493     23  2.300                                                                 
     0     -7.4578696     23  2.300                                                                 
     1     -3.8952261     23  2.300                                                                 
     1      6.1178114     23  2.300                                                                 
     2     -4.0817478     23  2.300                                                                 
     3     -1.3605826      7  2.300                                                                 
  local pseudopotential read in
  partial core-charges read in
  partial kinetic energy density read in
  atomic valenz-charges read in
  non local Contribution for L=            0  read in
    real space projection operators read in
  non local Contribution for L=            0  read in
    real space projection operators read in
  non local Contribution for L=            1  read in
    real space projection operators read in
  non local Contribution for L=            1  read in
    real space projection operators read in
  non local Contribution for L=            2  read in
    real space projection operators read in
    PAW grid and wavefunctions read in
 
   number of l-projection  operators is LMAX  =            5
   number of lm-projection operators is LMMAX =           13
 
 POTCAR:    PAW_PBE Se 06Sep2000                  
   VRHFIN =Se: s2p4                                                                                 
   LEXCH  = PE                                                                                      
   EATOM  =   257.1286 eV,   18.8984 Ry                                                             
                                                                                                    
   TITEL  = PAW_PBE Se 06Sep2000                                                                    
   LULTRA =        F    use ultrasoft PP ?                                                          
   IUNSCR =        1    unscreen: 0-lin 1-nonlin 2-no                                               
   RPACOR =    1.900    partial core radius                                                         
   POMASS =   78.960; ZVAL   =    6.000    mass and valenz                                          
   RCORE  =    2.100    outmost cutoff radius                                                       
   RWIGS  =    2.200; RWIGS  =    1.164    wigner-seitz radius (au A)                               
   ENMAX  =  211.555; ENMIN  =  158.666 eV                                                          
   ICORE  =        3    local potential                                                             
   LCOR   =        T    correct aug charges                                                         
   LPAW   =        T    paw PP                                                                      
   EAUG   =  446.842                                                                                
   DEXC   =    0.000                                                                                
   RMAX   =    2.147    core radius for proj-oper                                                   
   RAUG   =    1.300    factor for augmentation sphere                                              
   RDEP   =    2.177    radius for radial grids                                                     
   RDEPT  =    1.928    core radius for aug-charge                                                  
                                                                                                    
   Atomic configuration                                                                             
   10 entries                                                                                       
     n  l   j            E        occ.                                                              
     1  0  0.50    -12503.4787   2.0000                                                             
     2  0  0.50     -1606.9547   2.0000                                                             
     2  1  1.50     -1413.3140   6.0000                                                             
     3  0  0.50      -213.4885   2.0000                                                             
     3  1  1.50      -152.9538   6.0000                                                             
     3  2  2.50       -53.1221  10.0000                                                             
     4  0  0.50       -17.2865   2.0000                                                             
     4  1  0.50        -6.5110   4.0000                                                             
     4  2  2.50        -6.8029   0.0000                                                             
     4  3  2.50        -6.8029   0.0000                                                             
   Description                                                                                      
     l       E           TYP  RCUT    TYP  RCUT                                                     
     0    -17.2865377     23  2.100                                                                 
     0    -15.3094411     23  2.100                                                                 
     1     -6.5110275     23  2.100                                                                 
     1     -0.0695192     23  2.100                                                                 
     2     -6.8029130     23  2.100                                                                 
     3     -1.3605826      7  2.100                                                                 
  local pseudopotential read in
  partial core-charges read in
  partial kinetic energy density read in
  atomic valenz-charges read in
  non local Contribution for L=            0  read in
    real space projection operators read in
  non local Contribution for L=            0  read in
    real space projection operators read in
  non local Contribution for L=            1  read in
    real space projection operators read in
  non local Contribution for L=            1  read in
    real space projection operators read in
  non local Contribution for L=            2  read in
    real space projection operators read in
    PAW grid and wavefunctions read in
 
   number of l-projection  operators is LMAX  =            5
   number of lm-projection operators is LMMAX =           13
 
  PAW_PBE Ge 05Jan2001                  :
 energy of atom  1       EATOM= -104.9960
 kinetic energy error for atom=    0.0005 (will be added to EATOM!!)
  PAW_PBE Se 06Sep2000                  :
 energy of atom  2       EATOM= -257.1286
 kinetic energy error for atom=    0.0030 (will be added to EATOM!!)
 
 
 POSCAR: Ge Se
  positions in cartesian coordinates
  No initial velocities read in
 exchange correlation table for  LEXCH =        8
   RHO(1)=    0.500       N(1)  =     2000
   RHO(2)=  100.500       N(2)  =     4000
 


--------------------------------------------------------------------------------------------------------


 ion  position               nearest neighbor table
   1  0.111  0.250  0.126-   5 2.59   6 2.62   6 2.62
   2  0.611  0.750  0.374-   6 2.59   5 2.62   5 2.62
   3  0.889  0.750  0.874-   7 2.59   8 2.62   8 2.62
   4  0.389  0.250  0.626-   8 2.59   7 2.62   7 2.62
   5  0.985  0.250  0.352-   1 2.59   2 2.62   2 2.62
   6  0.485  0.750  0.148-   2 2.59   1 2.62   1 2.62
   7  0.015  0.750  0.648-   3 2.59   4 2.62   4 2.62
   8  0.515  0.250  0.852-   4 2.59   3 2.62   3 2.62
 

IMPORTANT INFORMATION: All symmetrisations will be switched off!
NOSYMM: (Re-)initialisation of all symmetry stuff for point group C_1.


----------------------------------------------------------------------------------------

                                     Primitive cell                                     

  volume of cell :     200.2536

  direct lattice vectors                    reciprocal lattice vectors
     4.550000000  0.000000000  0.000000000     0.219780220  0.000000000  0.000000000
     0.000000000  3.950000000  0.000000000     0.000000000  0.253164557  0.000000000
     0.000000000  0.000000000 11.142221000     0.000000000  0.000000000  0.089748713

  length of vectors
     4.550000000  3.950000000 11.142221000     0.219780220  0.253164557  0.089748713

  position of ions in fractional coordinates (direct lattice)
     0.111345292  0.250000000  0.125811104
     0.611345292  0.750000000  0.374188896
     0.888654708  0.750000000  0.874188896
     0.388654708  0.250000000  0.625811104
     0.984959641  0.250000000  0.352140002
     0.484959641  0.750000000  0.147859998
     0.015040359  0.750000000  0.647859998
     0.515040359  0.250000000  0.852140002

  ion indices of the primitive-cell ions
   primitive index   ion index
                 1           1
                 2           2
                 3           3
                 4           4
                 5           5
                 6           6
                 7           7
                 8           8

----------------------------------------------------------------------------------------

 
 
 KPOINTS: KPOINTS created by Atomic Simulation Env

Automatic generation of k-mesh.
 Grid dimensions read from file:
 generate k-points for:    6    6    2

 Generating k-lattice:

  Cartesian coordinates                     Fractional coordinates (reciprocal lattice)
     0.036630037  0.000000000  0.000000000     0.166666667  0.000000000  0.000000000
     0.000000000  0.042194093  0.000000000     0.000000000  0.166666667  0.000000000
     0.000000000  0.000000000  0.044874357     0.000000000  0.000000000  0.500000000

  Length of vectors
     0.036630037  0.042194093  0.044874357

  Shift w.r.t. Gamma in fractional coordinates (k-lattice)
     0.000000000  0.000000000  0.000000000

 
 Subroutine IBZKPT returns following result:
 ===========================================
 
 Found     40 irreducible k-points:
 
 Following reciprocal coordinates:
            Coordinates               Weight
  0.000000  0.000000  0.000000      1.000000
  0.166667  0.000000  0.000000      2.000000
  0.333333  0.000000  0.000000      2.000000
  0.500000  0.000000  0.000000      1.000000
  0.000000  0.166667  0.000000      2.000000
  0.166667  0.166667  0.000000      2.000000
 -0.166667  0.166667  0.000000      2.000000
  0.333333  0.166667  0.000000      2.000000
 -0.333333  0.166667  0.000000      2.000000
  0.500000  0.166667  0.000000      2.000000
  0.000000  0.333333  0.000000      2.000000
  0.166667  0.333333  0.000000      2.000000
 -0.166667  0.333333  0.000000      2.000000
  0.333333  0.333333  0.000000      2.000000
 -0.333333  0.333333  0.000000      2.000000
  0.500000  0.333333  0.000000      2.000000
  0.000000  0.500000  0.000000      1.000000
  0.166667  0.500000  0.000000      2.000000
  0.333333  0.500000  0.000000      2.000000
  0.500000  0.500000  0.000000      1.000000
  0.000000  0.000000  0.500000      1.000000
  0.166667  0.000000  0.500000      2.000000
  0.333333  0.000000  0.500000      2.000000
  0.500000  0.000000  0.500000      1.000000
  0.000000  0.166667  0.500000      2.000000
  0.166667  0.166667  0.500000      2.000000
 -0.166667  0.166667  0.500000      2.000000
  0.333333  0.166667  0.500000      2.000000
 -0.333333  0.166667  0.500000      2.000000
  0.500000  0.166667  0.500000      2.000000
  0.000000  0.333333  0.500000      2.000000
  0.166667  0.333333  0.500000      2.000000
 -0.166667  0.333333  0.500000      2.000000
  0.333333  0.333333  0.500000      2.000000
 -0.333333  0.333333  0.500000      2.000000
  0.500000  0.333333  0.500000      2.000000
  0.000000  0.500000  0.500000      1.000000
  0.166667  0.500000  0.500000      2.000000
  0.333333  0.500000  0.500000      2.000000
  0.500000  0.500000  0.500000      1.000000
 
 Following cartesian coordinates:
            Coordinates               Weight
  0.000000  0.000000  0.000000      1.000000
  0.036630  0.000000  0.000000      2.000000
  0.073260  0.000000  0.000000      2.000000
  0.109890  0.000000  0.000000      1.000000
  0.000000  0.042194  0.000000      2.000000
  0.036630  0.042194  0.000000      2.000000
 -0.036630  0.042194  0.000000      2.000000
  0.073260  0.042194  0.000000      2.000000
 -0.073260  0.042194  0.000000      2.000000
  0.109890  0.042194  0.000000      2.000000
  0.000000  0.084388  0.000000      2.000000
  0.036630  0.084388  0.000000      2.000000
 -0.036630  0.084388  0.000000      2.000000
  0.073260  0.084388  0.000000      2.000000
 -0.073260  0.084388  0.000000      2.000000
  0.109890  0.084388  0.000000      2.000000
  0.000000  0.126582  0.000000      1.000000
  0.036630  0.126582  0.000000      2.000000
  0.073260  0.126582  0.000000      2.000000
  0.109890  0.126582  0.000000      1.000000
  0.000000  0.000000  0.044874      1.000000
  0.036630  0.000000  0.044874      2.000000
  0.073260  0.000000  0.044874      2.000000
  0.109890  0.000000  0.044874      1.000000
  0.000000  0.042194  0.044874      2.000000
  0.036630  0.042194  0.044874      2.000000
 -0.036630  0.042194  0.044874      2.000000
  0.073260  0.042194  0.044874      2.000000
 -0.073260  0.042194  0.044874      2.000000
  0.109890  0.042194  0.044874      2.000000
  0.000000  0.084388  0.044874      2.000000
  0.036630  0.084388  0.044874      2.000000
 -0.036630  0.084388  0.044874      2.000000
  0.073260  0.084388  0.044874      2.000000
 -0.073260  0.084388  0.044874      2.000000
  0.109890  0.084388  0.044874      2.000000
  0.000000  0.126582  0.044874      1.000000
  0.036630  0.126582  0.044874      2.000000
  0.073260  0.126582  0.044874      2.000000
  0.109890  0.126582  0.044874      1.000000
 


--------------------------------------------------------------------------------------------------------




 Dimension of arrays:
   k-points           NKPTS =     40   k-points in BZ     NKDIM =     40   number of bands    NBANDS=     32
   number of dos      NEDOS =    301   number of ions     NIONS =      8
   non local maximal  LDIM  =      5   non local SUM 2l+1 LMDIM =     13
   total plane-waves  NPLWV =  23328
   max r-space proj   IRMAX =      1   max aug-charges    IRDMAX=   6530
   dimension x,y,z NGX =    24 NGY =   18 NGZ =   54
   dimension x,y,z NGXF=    48 NGYF=   36 NGZF=  108
   support grid    NGXF=    48 NGYF=   36 NGZF=  108
   ions per type =               4   4
   NGX,Y,Z   is equivalent  to a cutoff of   8.77,  7.58,  8.06 a.u.
   NGXF,Y,Z  is equivalent  to a cutoff of  17.54, 15.15, 16.11 a.u.

 SYSTEM =  ./                                      
 POSCAR =  Ge Se                                   

 Startparameter for this run:
   NWRITE =      2    write-flag & timer
   PREC   = normal    normal or accurate (medium, high low for compatibility)
   ISTART =      0    job   : 0-new  1-cont  2-samecut
   ICHARG =      2    charge: 1-file 2-atom 10-const
   ISPIN  =      1    spin polarized calculation?
   LNONCOLLINEAR =      F non collinear calculations
   LSORBIT =      F    spin-orbit coupling
   INIWAV =      1    electr: 0-lowe 1-rand  2-diag
   LASPH  =      T    aspherical Exc in radial PAW
 Electronic Relaxation 1
   ENCUT  =  360.0 eV  26.46 Ry    5.14 a.u.   7.04  6.11 17.24*2*pi/ulx,y,z
   ENINI  =  360.0     initial cutoff
   ENAUG  =  446.8 eV  augmentation charge cutoff
   NELM   =    100;   NELMIN=  2; NELMDL= -5     # of ELM steps 
   EDIFF  = 0.1E-05   stopping-criterion for ELM
   LREAL  =      F    real-space projection
   NLSPLINE    = F    spline interpolate recip. space projectors
   LCOMPAT=      F    compatible to vasp.4.4
   GGA_COMPAT  = T    GGA compatible to vasp.4.4-vasp.4.6
   LMAXPAW     = -100 max onsite density
   LMAXMIX     =    4 max onsite mixed and CHGCAR
   VOSKOWN=      0    Vosko Wilk Nusair interpolation
   ROPT   =    0.00000   0.00000
 Ionic relaxation
   EDIFFG = 0.1E-04   stopping-criterion for IOM
   NSW    =      0    number of steps for IOM
   NBLOCK =      1;   KBLOCK =      1    inner block; outer block 
   IBRION =     -1    ionic relax: 0-MD 1-quasi-New 2-CG
   NFREE  =      0    steps in history (QN), initial steepest desc. (CG)
   ISIF   =      2    stress and relaxation
   IWAVPR =     10    prediction:  0-non 1-charg 2-wave 3-comb
   ISYM   =      0    0-nonsym 1-usesym 2-fastsym
   LCORR  =      T    Harris-Foulkes like correction to forces

   POTIM  = 0.5000    time-step for ionic-motion
   TEIN   =    0.0    initial temperature
   TEBEG  =    0.0;   TEEND  =   0.0 temperature during run
   SMASS  =  -3.00    Nose mass-parameter (am)
   estimated Nose-frequenzy (Omega)   =  0.10E-29 period in steps = 0.13E+47 mass=  -0.473E-27a.u.
   SCALEE = 1.0000    scale energy and forces
   NPACO  =    256;   APACO  = 10.0  distance and # of slots for P.C.
   PSTRESS=    0.0 pullay stress

  Mass of Ions in am
   POMASS =  72.61 78.96
  Ionic Valenz
   ZVAL   =   4.00  6.00
  Atomic Wigner-Seitz radii
   RWIGS  =  -1.00 -1.00
  virtual crystal weights 
   VCA    =   1.00  1.00
   NELECT =      40.0000    total number of electrons
   NUPDOWN=      -1.0000    fix difference up-down

 DOS related values:
   EMIN   =  10.00;   EMAX   =-10.00  energy-range for DOS
   EFERMI =   0.00;   METHOD = LEGACY      
   ISMEAR =     0;   SIGMA  =   0.05  broadening in eV -4-tet -1-fermi 0-gaus

 Electronic relaxation 2 (details)
   IALGO  =     38    algorithm
   LDIAG  =      T    sub-space diagonalisation (order eigenvalues)
   LSUBROT=      F    optimize rotation matrix (better conditioning)
   TURBO    =      0    0=normal 1=particle mesh
   IRESTART =      0    0=no restart 2=restart with 2 vectors
   NREBOOT  =      0    no. of reboots
   NMIN     =      0    reboot dimension
   EREF     =   0.00    reference energy to select bands
   IMIX   =      4    mixing-type and parameters
     AMIX     =   0.40;   BMIX     =  1.00
     AMIX_MAG =   1.60;   BMIX_MAG =  1.00
     AMIN     =   0.10
     WC   =   100.;   INIMIX=   1;  MIXPRE=   1;  MAXMIX= -45

 Intra band minimization:
   WEIMIN = 0.0000     energy-eigenvalue tresh-hold
   EBREAK =  0.78E-08  absolut break condition
   DEPER  =   0.30     relativ break condition  

   TIME   =   0.40     timestep for ELM

  volume/ion in A,a.u.               =      25.03       168.92
  Fermi-wavevector in a.u.,A,eV,Ry     =   0.956977  1.808424 12.460278  0.915805
  Thomas-Fermi vector in A             =   2.085953
 
 Write flags
   LWAVE        =      F    write WAVECAR
   LDOWNSAMPLE  =      F    k-point downsampling of WAVECAR
   LCHARG       =      F    write CHGCAR
   LVTOT        =      F    write LOCPOT, total local potential
   LVHAR        =      F    write LOCPOT, Hartree potential only
   LELF         =      F    write electronic localiz. function (ELF)
   LORBIT       =      0    0 simple, 1 ext, 2 COOP (PROOUT), +10 PAW based schemes


 Dipole corrections
   LMONO  =      F    monopole corrections only (constant potential shift)
   LDIPOL =      F    correct potential (dipole corrections)
   IDIPOL =      0    1-x, 2-y, 3-z, 4-all directions 
   EPSILON=  1.0000000 bulk dielectric constant

 Exchange correlation treatment:
   GGA     =    PE    GGA type
   LEXCH   =     8    internal setting for exchange type
   LIBXC   =     F    Libxc                    
   VOSKOWN =     0    Vosko Wilk Nusair interpolation
   LHFCALC =     F    Hartree Fock is set to
   LHFONE  =     F    Hartree Fock one center treatment
   AEXX    =    0.0000 exact exchange contribution

 Linear response parameters
   LEPSILON=     F    determine dielectric tensor
   LRPA    =     F    only Hartree local field effects (RPA)
   LNABLA  =     F    use nabla operator in PAW spheres
   LVEL    =     F    velocity operator in full k-point grid
   CSHIFT  =0.1000    complex shift for real part using Kramers Kronig
   OMEGAMAX=  -1.0    maximum frequency
   DEG_THRESHOLD= 0.2000000E-02 threshold for treating states as degnerate
   RTIME   =   -0.100 relaxation time in fs
  (WPLASMAI=    0.000 imaginary part of plasma frequency in eV, 0.658/RTIME)
   DFIELD  = 0.0000000 0.0000000 0.0000000 field for delta impulse in time
 
  Optional k-point grid parameters
   LKPOINTS_OPT  =     F    use optional k-point grid
   KPOINTS_OPT_MODE=     1    mode for optional k-point grid
 
 Orbital magnetization related:
   ORBITALMAG=     F  switch on orbital magnetization
   LCHIMAG   =     F  perturbation theory with respect to B field
   DQ        =  0.001000  dq finite difference perturbation B field
   LLRAUG    =     F  two centre corrections for induced B field
   LBONE     =     F  B-component reconstruction in AE one-centre
   LVGVCALC  =     T  calculate vGv susceptibility
   LVGVAPPL  =     F  apply vGv susceptibility instead of pGv for G=0

 Random number generation:
   RANDOM_GENERATOR = DEFAULT
   PCG_SEED         = not used


--------------------------------------------------------------------------------------------------------


 Static calculation
 charge density and potential will be updated during run
 non-spin polarized calculation
 Variant of blocked Davidson
 Davidson routine will perform the subspace rotation
 perform sub-space diagonalisation
    after iterative eigenvector-optimisation
 modified Broyden-mixing scheme, WC =      100.0
 initial mixing is a Kerker type mixing with AMIX =  0.4000 and BMIX =      1.0000
 Hartree-type preconditioning will be used
 using additional bands            12
 reciprocal scheme for non local part
 use partial core corrections
 calculate Harris-corrections to forces 
   (improved forces if not selfconsistent)
 use gradient corrections 
 use of overlap-Matrix (Vanderbilt PP)
 Gauss-broadening in eV      SIGMA  =   0.05


--------------------------------------------------------------------------------------------------------


  energy-cutoff  :      360.00
  volume of cell :      200.25
      direct lattice vectors                 reciprocal lattice vectors
     4.550000000  0.000000000  0.000000000     0.219780220  0.000000000  0.000000000
     0.000000000  3.950000000  0.000000000     0.000000000  0.253164557  0.000000000
     0.000000000  0.000000000 11.142221000     0.000000000  0.000000000  0.089748713

  length of vectors
     4.550000000  3.950000000 11.142221000     0.219780220  0.253164557  0.089748713


 
 k-points in units of 2pi/SCALE and weight: KPOINTS created by Atomic Simulation Env
   0.00000000  0.00000000  0.00000000       0.014
   0.03663004  0.00000000  0.00000000       0.028
   0.07326007  0.00000000  0.00000000       0.028
   0.10989011  0.00000000  0.00000000       0.014
   0.00000000  0.04219409  0.00000000       0.028
   0.03663004  0.04219409  0.00000000       0.028
  -0.03663004  0.04219409  0.00000000       0.028
   0.07326007  0.04219409  0.00000000       0.028
  -0.07326007  0.04219409  0.00000000       0.028
   0.10989011  0.04219409  0.00000000       0.028
   0.00000000  0.08438819  0.00000000       0.028
   0.03663004  0.08438819  0.00000000       0.028
  -0.03663004  0.08438819  0.00000000       0.028
   0.07326007  0.08438819  0.00000000       0.028
  -0.07326007  0.08438819  0.00000000       0.028
   0.10989011  0.08438819  0.00000000       0.028
   0.00000000  0.12658228  0.00000000       0.014
   0.03663004  0.12658228  0.00000000       0.028
   0.07326007  0.12658228  0.00000000       0.028
   0.10989011  0.12658228  0.00000000       0.014
   0.00000000  0.00000000  0.04487436       0.014
   0.03663004  0.00000000  0.04487436       0.028
   0.07326007  0.00000000  0.04487436       0.028
   0.10989011  0.00000000  0.04487436       0.014
   0.00000000  0.04219409  0.04487436       0.028
   0.03663004  0.04219409  0.04487436       0.028
  -0.03663004  0.04219409  0.04487436       0.028
   0.07326007  0.04219409  0.04487436       0.028
  -0.07326007  0.04219409  0.04487436       0.028
   0.10989011  0.04219409  0.04487436       0.028
   0.00000000  0.08438819  0.04487436       0.028
   0.03663004  0.08438819  0.04487436       0.028
  -0.03663004  0.08438819  0.04487436       0.028
   0.07326007  0.08438819  0.04487436       0.028
  -0.07326007  0.08438819  0.04487436       0.028
   0.10989011  0.08438819  0.04487436       0.028
   0.00000000  0.12658228  0.04487436       0.014
   0.03663004  0.12658228  0.04487436       0.028
   0.07326007  0.12658228  0.04487436       0.028
   0.10989011  0.12658228  0.04487436       0.014
 
 k-points in reciprocal lattice and weights: KPOINTS created by Atomic Simulation Env
   0.00000000  0.00000000  0.00000000       0.014
   0.16666667  0.00000000  0.00000000       0.028
   0.33333333  0.00000000  0.00000000       0.028
   0.50000000  0.00000000  0.00000000       0.014
   0.00000000  0.16666667  0.00000000       0.028
   0.16666667  0.16666667  0.00000000       0.028
  -0.16666667  0.16666667  0.00000000       0.028
   0.33333333  0.16666667  0.00000000       0.028
  -0.33333333  0.16666667  0.00000000       0.028
   0.50000000  0.16666667  0.00000000       0.028
   0.00000000  0.33333333  0.00000000       0.028
   0.16666667  0.33333333  0.00000000       0.028
  -0.16666667  0.33333333  0.00000000       0.028
   0.33333333  0.33333333  0.00000000       0.028
  -0.33333333  0.33333333  0.00000000       0.028
   0.50000000  0.33333333  0.00000000       0.028
   0.00000000  0.50000000  0.00000000       0.014
   0.16666667  0.50000000  0.00000000       0.028
   0.33333333  0.50000000  0.00000000       0.028
   0.50000000  0.50000000  0.00000000       0.014
   0.00000000  0.00000000  0.50000000       0.014
   0.16666667  0.00000000  0.50000000       0.028
   0.33333333  0.00000000  0.50000000       0.028
   0.50000000  0.00000000  0.50000000       0.014
   0.00000000  0.16666667  0.50000000       0.028
   0.16666667  0.16666667  0.50000000       0.028
  -0.16666667  0.16666667  0.50000000       0.028
   0.33333333  0.16666667  0.50000000       0.028
  -0.33333333  0.16666667  0.50000000       0.028
   0.50000000  0.16666667  0.50000000       0.028
   0.00000000  0.33333333  0.50000000       0.028
   0.16666667  0.33333333  0.50000000       0.028
  -0.16666667  0.33333333  0.50000000       0.028
   0.33333333  0.33333333  0.50000000       0.028
  -0.33333333  0.33333333  0.50000000       0.028
   0.50000000  0.33333333  0.50000000       0.028
   0.00000000  0.50000000  0.50000000       0.014
   0.16666667  0.50000000  0.50000000       0.028
   0.33333333  0.50000000  0.50000000       0.028
   0.50000000  0.50000000  0.50000000       0.014
 
 position of ions in fractional coordinates (direct lattice) 
   0.11134529  0.25000000  0.12581110
   0.61134529  0.75000000  0.37418890
   0.88865471  0.75000000  0.87418890
   0.38865471  0.25000000  0.62581110
   0.98495964  0.25000000  0.35214000
   0.48495964  0.75000000  0.14786000
   0.01504036  0.75000000  0.64786000
   0.51504036  0.25000000  0.85214000
 
 position of ions in cartesian coordinates  (Angst):
   0.50662108  0.98750000  1.40181513
   2.78162108  2.96250000  4.16929537
   4.04337892  2.96250000  9.74040587
   1.76837892  0.98750000  6.97292563
   4.48156637  0.98750000  3.92362172
   2.20656637  2.96250000  1.64748878
   0.06843363  2.96250000  7.21859928
   2.34343363  0.98750000  9.49473222
 


--------------------------------------------------------------------------------------------------------


 k-point   1 :   0.0000 0.0000 0.0000  plane waves:    3113
 k-point   2 :   0.1667 0.0000 0.0000  plane waves:    3122
 k-point   3 :   0.3333 0.0000 0.0000  plane waves:    3078
 k-point   4 :   0.5000 0.0000 0.0000  plane waves:    3070
 k-point   5 :   0.0000 0.1667 0.0000  plane waves:    3100
 k-point   6 :   0.1667 0.1667 0.0000  plane waves:    3106
 k-point   7 :  -0.1667 0.1667 0.0000  plane waves:    3106
 k-point   8 :   0.3333 0.1667 0.0000  plane waves:    3104
 k-point   9 :  -0.3333 0.1667 0.0000  plane waves:    3104
 k-point  10 :   0.5000 0.1667 0.0000  plane waves:    3102
 k-point  11 :   0.0000 0.3333 0.0000  plane waves:    3096
 k-point  12 :   0.1667 0.3333 0.0000  plane waves:    3105
 k-point  13 :  -0.1667 0.3333 0.0000  plane waves:    3105
 k-point  14 :   0.3333 0.3333 0.0000  plane waves:    3128
 k-point  15 :  -0.3333 0.3333 0.0000  plane waves:    3128
 k-point  16 :   0.5000 0.3333 0.0000  plane waves:    3126
 k-point  17 :   0.0000 0.5000 0.0000  plane waves:    3112
 k-point  18 :   0.1667 0.5000 0.0000  plane waves:    3092
 k-point  19 :   0.3333 0.5000 0.0000  plane waves:    3130
 k-point  20 :   0.5000 0.5000 0.0000  plane waves:    3136
 k-point  21 :   0.0000 0.0000 0.5000  plane waves:    3118
 k-point  22 :   0.1667 0.0000 0.5000  plane waves:    3088
 k-point  23 :   0.3333 0.0000 0.5000  plane waves:    3104
 k-point  24 :   0.5000 0.0000 0.5000  plane waves:    3120
 k-point  25 :   0.0000 0.1667 0.5000  plane waves:    3092
 k-point  26 :   0.1667 0.1667 0.5000  plane waves:    3094
 k-point  27 :  -0.1667 0.1667 0.5000  plane waves:    3094
 k-point  28 :   0.3333 0.1667 0.5000  plane waves:    3104
 k-point  29 :  -0.3333 0.1667 0.5000  plane waves:    3104
 k-point  30 :   0.5000 0.1667 0.5000  plane waves:    3112
 k-point  31 :   0.0000 0.3333 0.5000  plane waves:    3102
 k-point  32 :   0.1667 0.3333 0.5000  plane waves:    3110
 k-point  33 :  -0.1667 0.3333 0.5000  plane waves:    3110
 k-point  34 :   0.3333 0.3333 0.5000  plane waves:    3112
 k-point  35 :  -0.3333 0.3333 0.5000  plane waves:    3112
 k-point  36 :   0.5000 0.3333 0.5000  plane waves:    3120
 k-point  37 :   0.0000 0.5000 0.5000  plane waves:    3112
 k-point  38 :   0.1667 0.5000 0.5000  plane waves:    3104
 k-point  39 :   0.3333 0.5000 0.5000  plane waves:    3132
 k-point  40 :   0.5000 0.5000 0.5000  plane waves:    3128

 maximum and minimum number of plane-waves per node :       813      728

 maximum number of plane-waves:      3136
 maximum index in each direction: 
   IXMAX=    7   IYMAX=    6   IZMAX=   17
   IXMIN=   -7   IYMIN=   -6   IZMIN=  -17


 parallel 3D FFT for wavefunctions:
    minimum data exchange during FFTs selected (reduces bandwidth)
 parallel 3D FFT for charge:
    minimum data exchange during FFTs selected (reduces bandwidth)


 total amount of memory used by VASP MPI-rank0    38614. kBytes
=======================================================================

   base      :      30000. kBytes
   nonl-proj :       6758. kBytes
   fftplans  :        321. kBytes
   grid      :        455. kBytes
   one-center:         16. kBytes
   wavefun   :       1064. kBytes
 
     INWAV:  cpu time      0.0000: real time      0.0001
 Broyden mixing: mesh for mixing (old mesh)
   NGX = 15   NGY = 13   NGZ = 35
  (NGX  = 48   NGY  = 36   NGZ  =108)
  gives a total of   6825 points

 initial charge density was supplied:
 charge density of overlapping atoms calculated
 number of electron      40.0000000 magnetization 
 keeping initial charge density in first step


--------------------------------------------------------------------------------------------------------


 Maximum index for augmentation-charges           325 (set IRDMAX)


--------------------------------------------------------------------------------------------------------


 First call to EWALD:  gamma=   0.303
 Maximum number of real-space cells 3x 4x 2
 Maximum number of reciprocal cells 2x 2x 5

    FEWALD:  cpu time      0.0007: real time      0.0007


--------------------------------------- Ionic step        1  -------------------------------------------




--------------------------------------- Iteration      1(   1)  ---------------------------------------


    POTLOK:  cpu time      0.0057: real time      0.0060
    SETDIJ:  cpu time      0.1395: real time      0.1399
     EDDAV:  cpu time      0.2603: real time      0.2632
       DOS:  cpu time      0.0014: real time      0.0015
    --------------------------------------------
      LOOP:  cpu time      0.4069: real time      0.4106

 eigenvalue-minimisations  :  2560
 total energy-change (2. order) : 0.1293756E+03  (-0.1276369E+04)
 number of electron      40.0000000 magnetization 
 augmentation part       40.0000000 magnetization 

 Free energy of the ion-electron system (eV)
  ---------------------------------------------------
  alpha Z        PSCENC =        84.61494944
  Ewald energy   TEWEN  =     -1400.21571576
  -Hartree energ DENC   =      -134.50975666
  -exchange      EXHF   =         0.00000000
  -V(xc)+E(xc)   XCENC  =       -33.82529264
  PAW double counting   =      1193.78262552    -1080.73714043
  entropy T*S    EENTRO =        -0.00507003
  eigenvalues    EBANDS =        51.78637009
  atomic energy  EATOM  =      1448.48460880
  Solvation  Ediel_sol  =         0.00000000
  ---------------------------------------------------
  free energy    TOTEN  =       129.37557832 eV

  energy without entropy =      129.38064836  energy(sigma->0) =      129.37811334


--------------------------------------------------------------------------------------------------------




--------------------------------------- Iteration      1(   2)  ---------------------------------------


     EDDAV:  cpu time      0.3290: real time      0.3319
       DOS:  cpu time      0.0008: real time      0.0008
    --------------------------------------------
      LOOP:  cpu time      0.3298: real time      0.3327

 eigenvalue-minimisations  :  3760
 total energy-change (2. order) :-0.1549654E+03  (-0.1501981E+03)
 number of electron      40.0000000 magnetization 
 augmentation part       40.0000000 magnetization 

 Free energy of the ion-electron system (eV)
  ---------------------------------------------------
  alpha Z        PSCENC =        84.61494944
  Ewald energy   TEWEN  =     -1400.21571576
  -Hartree energ DENC   =      -134.50975666
  -exchange      EXHF   =         0.00000000
  -V(xc)+E(xc)   XCENC  =       -33.82529264
  PAW double counting   =      1193.78262552    -1080.73714043
  entropy T*S    EENTRO =        -0.00000000
  eigenvalues    EBANDS =      -103.18405547
  atomic energy  EATOM  =      1448.48460880
  Solvation  Ediel_sol  =         0.00000000
  ---------------------------------------------------
  free energy    TOTEN  =       -25.58977721 eV

  energy without entropy =      -25.58977721  energy(sigma->0) =      -25.58977721


--------------------------------------------------------------------------------------------------------




--------------------------------------- Iteration      1(   3)  ---------------------------------------


     EDDAV:  cpu time      0.2955: real time      0.2984
       DOS:  cpu time      0.0006: real time      0.0006
    --------------------------------------------
      LOOP:  cpu time      0.2961: real time      0.2990

 eigenvalue-minimisations  :  3104
 total energy-change (2. order) :-0.8584149E+01  (-0.8566926E+01)
 number of electron      40.0000000 magnetization 
 augmentation part       40.0000000 magnetization 

 Free energy of the ion-electron system (eV)
  ---------------------------------------------------
  alpha Z        PSCENC =        84.61494944
  Ewald energy   TEWEN  =     -1400.21571576
  -Hartree energ DENC   =      -134.50975666
  -exchange      EXHF   =         0.00000000
  -V(xc)+E(xc)   XCENC  =       -33.82529264
  PAW double counting   =      1193.78262552    -1080.73714043
  entropy T*S    EENTRO =        -0.00000000
  eigenvalues    EBANDS =      -111.76820457
  atomic energy  EATOM  =      1448.48460880
  Solvation  Ediel_sol  =         0.00000000
  ---------------------------------------------------
  free energy    TOTEN  =       -34.17392630 eV

  energy without entropy =      -34.17392630  energy(sigma->0) =      -34.17392630


--------------------------------------------------------------------------------------------------------




--------------------------------------- Iteration      1(   4)  ---------------------------------------


     EDDAV:  cpu time      0.3071: real time      0.3104
       DOS:  cpu time      0.0006: real time      0.0006
    --------------------------------------------
      LOOP:  cpu time      0.3077: real time      0.3110

 eigenvalue-minimisations  :  3264
 total energy-change (2. order) :-0.5871415E-01  (-0.5870646E-01)
 number of electron      40.0000000 magnetization 
 augmentation part       40.0000000 magnetization 

 Free energy of the ion-electron system (eV)
  ---------------------------------------------------
  alpha Z        PSCENC =        84.61494944
  Ewald energy   TEWEN  =     -1400.21571576
  -Hartree energ DENC   =      -134.50975666
  -exchange      EXHF   =         0.00000000
  -V(xc)+E(xc)   XCENC  =       -33.82529264
  PAW double counting   =      1193.78262552    -1080.73714043
  entropy T*S    EENTRO =        -0.00000000
  eigenvalues    EBANDS =      -111.82691872
  atomic energy  EATOM  =      1448.48460880
  Solvation  Ediel_sol  =         0.00000000
  ---------------------------------------------------
  free energy    TOTEN  =       -34.23264045 eV

  energy without entropy =      -34.23264045  energy(sigma->0) =      -34.23264045


--------------------------------------------------------------------------------------------------------




--------------------------------------- Iteration      1(   5)  ---------------------------------------


     EDDAV:  cpu time      0.2900: real time      0.2929
       DOS:  cpu time      0.0006: real time      0.0005
    CHARGE:  cpu time      0.0042: real time      0.0042
    MIXING:  cpu time      0.0006: real time      0.0006
    --------------------------------------------
      LOOP:  cpu time      0.2953: real time      0.2983

 eigenvalue-minimisations  :  3120
 total energy-change (2. order) :-0.3562028E-03  (-0.3561989E-03)
 number of electron      40.0000052 magnetization 
 augmentation part       -7.4016143 magnetization 

 Broyden mixing:
  rms(total) = 0.63238E+00    rms(broyden)= 0.63237E+00
  rms(prec ) = 0.72246E+00
  weight for this iteration     100.00

 Free energy of the ion-electron system (eV)
  ---------------------------------------------------
  alpha Z        PSCENC =        84.61494944
  Ewald energy   TEWEN  =     -1400.21571576
  -Hartree energ DENC   =      -134.50975666
  -exchange      EXHF   =         0.00000000
  -V(xc)+E(xc)   XCENC  =       -33.82529264
  PAW double counting   =      1193.78262552    -1080.73714043
  entropy T*S    EENTRO =        -0.00000000
  eigenvalues    EBANDS =      -111.82727492
  atomic energy  EATOM  =      1448.48460880
  Solvation  Ediel_sol  =         0.00000000
  ---------------------------------------------------
  free energy    TOTEN  =       -34.23299665 eV

  energy without entropy =      -34.23299665  energy(sigma->0) =      -34.23299665


--------------------------------------------------------------------------------------------------------




--------------------------------------- Iteration      1(   6)  ---------------------------------------


    POTLOK:  cpu time      0.0054: real time      0.0056
    SETDIJ:  cpu time      0.1375: real time      0.1384
     EDDAV:  cpu time      0.2934: real time      0.2960
       DOS:  cpu time      0.0009: real time      0.0009
    CHARGE:  cpu time      0.0052: real time      0.0052
    MIXING:  cpu time      0.0006: real time      0.0006
    --------------------------------------------
      LOOP:  cpu time      0.4429: real time      0.4467

 eigenvalue-minimisations  :  3024
 total energy-change (2. order) : 0.4093507E+00  (-0.8426158E-01)
 number of electron      40.0000052 magnetization 
 augmentation part       -7.3428358 magnetization 

 Broyden mixing:
  rms(total) = 0.39678E+00    rms(broyden)= 0.39678E+00
  rms(prec ) = 0.41956E+00
  weight for this iteration     100.00

 eigenvalues of (default mixing * dielectric matrix)
  average eigenvalue GAMMA=   2.1321
  2.1321

 Free energy of the ion-electron system (eV)
  ---------------------------------------------------
  alpha Z        PSCENC =        84.61494944
  Ewald energy   TEWEN  =     -1400.21571576
  -Hartree energ DENC   =      -140.54616589
  -exchange      EXHF   =         0.00000000
  -V(xc)+E(xc)   XCENC  =       -33.21122225
  PAW double counting   =      1447.67188358    -1334.93421657
  entropy T*S    EENTRO =        -0.00000000
  eigenvalues    EBANDS =      -105.68776731
  atomic energy  EATOM  =      1448.48460880
  Solvation  Ediel_sol  =         0.00000000
  ---------------------------------------------------
  free energy    TOTEN  =       -33.82364596 eV

  energy without entropy =      -33.82364596  energy(sigma->0) =      -33.82364596


--------------------------------------------------------------------------------------------------------




--------------------------------------- Iteration      1(   7)  ---------------------------------------


    POTLOK:  cpu time      0.0074: real time      0.0076
    SETDIJ:  cpu time      0.1429: real time      0.1438
     EDDAV:  cpu time      0.2816: real time      0.2843
       DOS:  cpu time      0.0006: real time      0.0006
    CHARGE:  cpu time      0.0041: real time      0.0041
    MIXING:  cpu time      0.0005: real time      0.0005
    --------------------------------------------
      LOOP:  cpu time      0.4371: real time      0.4409

 eigenvalue-minimisations  :  3008
 total energy-change (2. order) : 0.1158000E-01  (-0.2385936E-01)
 number of electron      40.0000053 magnetization 
 augmentation part       -7.3322279 magnetization 

 Broyden mixing:
  rms(total) = 0.13595E+00    rms(broyden)= 0.13595E+00
  rms(prec ) = 0.14499E+00
  weight for this iteration     100.00

 eigenvalues of (default mixing * dielectric matrix)
  average eigenvalue GAMMA=   1.7884
  1.1895  2.3873

 Free energy of the ion-electron system (eV)
  ---------------------------------------------------
  alpha Z        PSCENC =        84.61494944
  Ewald energy   TEWEN  =     -1400.21571576
  -Hartree energ DENC   =      -143.01215937
  -exchange      EXHF   =         0.00000000
  -V(xc)+E(xc)   XCENC  =       -32.75729488
  PAW double counting   =      1749.65615048    -1637.13282829
  entropy T*S    EENTRO =        -0.00000000
  eigenvalues    EBANDS =      -103.44977637
  atomic energy  EATOM  =      1448.48460880
  Solvation  Ediel_sol  =         0.00000000
  ---------------------------------------------------
  free energy    TOTEN  =       -33.81206596 eV

  energy without entropy =      -33.81206596  energy(sigma->0) =      -33.81206596


--------------------------------------------------------------------------------------------------------




--------------------------------------- Iteration      1(   8)  ---------------------------------------


    POTLOK:  cpu time      0.0051: real time      0.0053
    SETDIJ:  cpu time      0.1377: real time      0.1383
     EDDAV:  cpu time      0.2825: real time      0.2854
       DOS:  cpu time      0.0006: real time      0.0006
    CHARGE:  cpu time      0.0040: real time      0.0040
    MIXING:  cpu time      0.0005: real time      0.0005
    --------------------------------------------
      LOOP:  cpu time      0.4303: real time      0.4341

 eigenvalue-minimisations  :  3072
 total energy-change (2. order) : 0.1138840E-02  (-0.2341091E-02)
 number of electron      40.0000053 magnetization 
 augmentation part       -7.3413231 magnetization 

 Broyden mixing:
  rms(total) = 0.17850E-01    rms(broyden)= 0.17850E-01
  rms(prec ) = 0.22172E-01
  weight for this iteration     100.00

 eigenvalues of (default mixing * dielectric matrix)
  average eigenvalue GAMMA=   1.6785
  2.4899  1.2729  1.2729

 Free energy of the ion-electron system (eV)
  ---------------------------------------------------
  alpha Z        PSCENC =        84.61494944
  Ewald energy   TEWEN  =     -1400.21571576
  -Hartree energ DENC   =      -143.13246075
  -exchange      EXHF   =         0.00000000
  -V(xc)+E(xc)   XCENC  =       -32.60660126
  PAW double counting   =      1893.02383628    -1780.56156004
  entropy T*S    EENTRO =        -0.00000000
  eigenvalues    EBANDS =      -103.41798383
  atomic energy  EATOM  =      1448.48460880
  Solvation  Ediel_sol  =         0.00000000
  ---------------------------------------------------
  free energy    TOTEN  =       -33.81092712 eV

  energy without entropy =      -33.81092712  energy(sigma->0) =      -33.81092712


--------------------------------------------------------------------------------------------------------




--------------------------------------- Iteration      1(   9)  ---------------------------------------


    POTLOK:  cpu time      0.0051: real time      0.0053
    SETDIJ:  cpu time      0.1373: real time      0.1379
     EDDAV:  cpu time      0.3023: real time      0.3054
       DOS:  cpu time      0.0006: real time      0.0006
    CHARGE:  cpu time      0.0040: real time      0.0040
    MIXING:  cpu time      0.0005: real time      0.0005
    --------------------------------------------
      LOOP:  cpu time      0.4497: real time      0.4536

 eigenvalue-minimisations  :  3216
 total energy-change (2. order) :-0.1941704E-03  (-0.3755869E-03)
 number of electron      40.0000053 magnetization 
 augmentation part       -7.3389734 magnetization 

 Broyden mixing:
  rms(total) = 0.66377E-02    rms(broyden)= 0.66377E-02
  rms(prec ) = 0.75280E-02
  weight for this iteration     100.00

 eigenvalues of (default mixing * dielectric matrix)
  average eigenvalue GAMMA=   1.7418
  2.3234  2.3234  1.1602  1.1602

 Free energy of the ion-electron system (eV)
  ---------------------------------------------------
  alpha Z        PSCENC =        84.61494944
  Ewald energy   TEWEN  =     -1400.21571576
  -Hartree energ DENC   =      -143.51541021
  -exchange      EXHF   =         0.00000000
  -V(xc)+E(xc)   XCENC  =       -32.56683075
  PAW double counting   =      1905.54273674    -1793.08990493
  entropy T*S    EENTRO =        -0.00000000
  eigenvalues    EBANDS =      -103.06555461
  atomic energy  EATOM  =      1448.48460880
  Solvation  Ediel_sol  =         0.00000000
  ---------------------------------------------------
  free energy    TOTEN  =       -33.81112129 eV

  energy without entropy =      -33.81112129  energy(sigma->0) =      -33.81112129


--------------------------------------------------------------------------------------------------------




--------------------------------------- Iteration      1(  10)  ---------------------------------------


    POTLOK:  cpu time      0.0049: real time      0.0051
    SETDIJ:  cpu time      0.1375: real time      0.1379
     EDDAV:  cpu time      0.2329: real time      0.2340
       DOS:  cpu time      0.0003: real time      0.0003
    CHARGE:  cpu time      0.0030: real time      0.0030
    MIXING:  cpu time      0.0003: real time      0.0003
    --------------------------------------------
      LOOP:  cpu time      0.3789: real time      0.3807

 eigenvalue-minimisations  :  2960
 total energy-change (2. order) :-0.9260342E-04  (-0.3132915E-04)
 number of electron      40.0000053 magnetization 
 augmentation part       -7.3388342 magnetization 

 Broyden mixing:
  rms(total) = 0.23741E-02    rms(broyden)= 0.23741E-02
  rms(prec ) = 0.28991E-02
  weight for this iteration     100.00

 eigenvalues of (default mixing * dielectric matrix)
  average eigenvalue GAMMA=   1.7480
  2.7172  2.4418  1.1725  1.2043  1.2043

 Free energy of the ion-electron system (eV)
  ---------------------------------------------------
  alpha Z        PSCENC =        84.61494944
  Ewald energy   TEWEN  =     -1400.21571576
  -Hartree energ DENC   =      -143.54825835
  -exchange      EXHF   =         0.00000000
  -V(xc)+E(xc)   XCENC  =       -32.56376384
  PAW double counting   =      1899.41719781    -1786.95967150
  entropy T*S    EENTRO =        -0.00000000
  eigenvalues    EBANDS =      -103.04056049
  atomic energy  EATOM  =      1448.48460880
  Solvation  Ediel_sol  =         0.00000000
  ---------------------------------------------------
  free energy    TOTEN  =       -33.81121390 eV

  energy without entropy =      -33.81121390  energy(sigma->0) =      -33.81121390


--------------------------------------------------------------------------------------------------------




--------------------------------------- Iteration      1(  11)  ---------------------------------------


    POTLOK:  cpu time      0.0034: real time      0.0036
    SETDIJ:  cpu time      0.1371: real time      0.1374
     EDDAV:  cpu time      0.1846: real time      0.1855
       DOS:  cpu time      0.0003: real time      0.0003
    CHARGE:  cpu time      0.0030: real time      0.0030
    MIXING:  cpu time      0.0003: real time      0.0003
    --------------------------------------------
      LOOP:  cpu time      0.3287: real time      0.3300

 eigenvalue-minimisations  :  2864
 total energy-change (2. order) :-0.2401527E-04  (-0.3956658E-05)
 number of electron      40.0000053 magnetization 
 augmentation part       -7.3391161 magnetization 

 Broyden mixing:
  rms(total) = 0.12814E-02    rms(broyden)= 0.12814E-02
  rms(prec ) = 0.14172E-02
  weight for this iteration     100.00

 eigenvalues of (default mixing * dielectric matrix)
  average eigenvalue GAMMA=   1.7328
  2.5841  2.5841  1.9723  0.9613  1.1475  1.1475

 Free energy of the ion-electron system (eV)
  ---------------------------------------------------
  alpha Z        PSCENC =        84.61494944
  Ewald energy   TEWEN  =     -1400.21571576
  -Hartree energ DENC   =      -143.56978951
  -exchange      EXHF   =         0.00000000
  -V(xc)+E(xc)   XCENC  =       -32.55779573
  PAW double counting   =      1900.98319217    -1788.52603771
  entropy T*S    EENTRO =        -0.00000000
  eigenvalues    EBANDS =      -103.02464961
  atomic energy  EATOM  =      1448.48460880
  Solvation  Ediel_sol  =         0.00000000
  ---------------------------------------------------
  free energy    TOTEN  =       -33.81123791 eV

  energy without entropy =      -33.81123791  energy(sigma->0) =      -33.81123791


--------------------------------------------------------------------------------------------------------




--------------------------------------- Iteration      1(  12)  ---------------------------------------


    POTLOK:  cpu time      0.0034: real time      0.0035
    SETDIJ:  cpu time      0.1368: real time      0.1373
     EDDAV:  cpu time      0.2039: real time      0.2049
       DOS:  cpu time      0.0003: real time      0.0003
    --------------------------------------------
      LOOP:  cpu time      0.3444: real time      0.3460

 eigenvalue-minimisations  :  3328
 total energy-change (2. order) :-0.1139927E-06  (-0.5723880E-06)
 number of electron      40.0000053 magnetization 
 augmentation part       -7.3391161 magnetization 

 Free energy of the ion-electron system (eV)
  ---------------------------------------------------
  alpha Z        PSCENC =        84.61494944
  Ewald energy   TEWEN  =     -1400.21571576
  -Hartree energ DENC   =      -143.58209638
  -exchange      EXHF   =         0.00000000
  -V(xc)+E(xc)   XCENC  =       -32.55684886
  PAW double counting   =      1900.04681832    -1787.58930234
  entropy T*S    EENTRO =        -0.00000000
  eigenvalues    EBANDS =      -103.01365124
  atomic energy  EATOM  =      1448.48460880
  Solvation  Ediel_sol  =         0.00000000
  ---------------------------------------------------
  free energy    TOTEN  =       -33.81123803 eV

  energy without entropy =      -33.81123803  energy(sigma->0) =      -33.81123803


--------------------------------------------------------------------------------------------------------




 average (electrostatic) potential at core
  the test charge radii are     1.1631  1.0808
  (the norm of the test charge is              1.0000)
       1 -33.7765       2 -33.7765       3 -33.7765       4 -33.7765       5 -55.2172
       6 -55.2172       7 -55.2172       8 -55.2172
 
 
 
 E-fermi :   3.1067     XC(G=0):  -9.1476     alpha+bet : -8.4296

 Fermi energy:         3.1066673966

 k-point     1 :       0.0000    0.0000    0.0000
  band No.  band energies     occupation 
      1     -11.0999      2.00000
      2     -10.8092      2.00000
      3      -9.8427      2.00000
      4      -9.4149      2.00000
      5      -4.9959      2.00000
      6      -4.4693      2.00000
      7      -2.8793      2.00000
      8      -2.5738      2.00000
      9      -1.9676      2.00000
     10      -0.4898      2.00000
     11      -0.3787      2.00000
     12      -0.2340      2.00000
     13      -0.1889      2.00000
     14       0.1292      2.00000
     15       1.0030      2.00000
     16       1.3731      2.00000
     17       1.5462      2.00000
     18       2.0984      2.00000
     19       2.2539      2.00000
     20       2.8371      2.00000
     21       3.9094      0.00000
     22       5.3789      0.00000
     23       5.3922      0.00000
     24       5.4503      0.00000
     25       5.7862      0.00000
     26       6.1825      0.00000
     27       6.3320      0.00000
     28       6.9153      0.00000
     29       7.7654      0.00000
     30       8.0643      0.00000
     31       8.4071      0.00000
     32       8.6119      0.00000

 k-point     2 :       0.1667    0.0000    0.0000
  band No.  band energies     occupation 
      1     -10.9892      2.00000
      2     -10.7054      2.00000
      3      -9.8628      2.00000
      4      -9.4763      2.00000
      5      -5.2491      2.00000
      6      -4.5399      2.00000
      7      -3.5373      2.00000
      8      -2.9708      2.00000
      9      -1.7607      2.00000
     10      -0.2273      2.00000
     11      -0.0959      2.00000
     12       0.1833      2.00000
     13       0.2418      2.00000
     14       0.2542      2.00000
     15       1.0383      2.00000
     16       1.5216      2.00000
     17       1.6932      2.00000
     18       1.8419      2.00000
     19       2.4150      2.00000
     20       2.7144      2.00000
     21       4.0256      0.00000
     22       4.8170      0.00000
     23       5.3622      0.00000
     24       5.3877      0.00000
     25       5.7191      0.00000
     26       5.8718      0.00000
     27       6.5916      0.00000
     28       6.5937      0.00000
     29       7.1414      0.00000
     30       7.7279      0.00000
     31       8.0826      0.00000
     32       8.2657      0.00000

 k-point     3 :       0.3333    0.0000    0.0000
  band No.  band energies     occupation 
      1     -10.6869      2.00000
      2     -10.4209      2.00000
      3      -9.9880      2.00000
      4      -9.6875      2.00000
      5      -5.5086      2.00000
      6      -4.6092      2.00000
      7      -4.5587      2.00000
      8      -3.7238      2.00000
      9      -1.2671      2.00000
     10       0.1283      2.00000
     11       0.2821      2.00000
     12       0.5901      2.00000
     13       0.9672      2.00000
     14       0.9912      2.00000
     15       1.0345      2.00000
     16       1.3631      2.00000
     17       1.4789      2.00000
     18       2.3451      2.00000
     19       2.3905      2.00000
     20       2.8536      2.00000
     21       3.9675      0.00000
     22       4.5140      0.00000
     23       4.5505      0.00000
     24       5.0040      0.00000
     25       5.2878      0.00000
     26       5.7173      0.00000
     27       6.0702      0.00000
     28       6.1626      0.00000
     29       6.6151      0.00000
     30       7.0789      0.00000
     31       7.5298      0.00000
     32       8.6333      0.00000

 k-point     4 :       0.5000    0.0000    0.0000
  band No.  band energies     occupation 
      1     -10.2954      2.00000
      2     -10.2954      2.00000
      3     -10.0390      2.00000
      4     -10.0390      2.00000
      5      -5.2910      2.00000
      6      -5.2910      2.00000
      7      -4.3495      2.00000
      8      -4.3495      2.00000
      9      -0.5320      2.00000
     10      -0.5320      2.00000
     11       0.7575      2.00000
     12       0.7575      2.00000
     13       1.0121      2.00000
     14       1.0121      2.00000
     15       1.5690      2.00000
     16       1.5690      2.00000
     17       1.9296      2.00000
     18       1.9296      2.00000
     19       2.4769      2.00000
     20       2.4769      2.00000
     21       4.1631      0.00000
     22       4.1631      0.00000
     23       4.8864      0.00000
     24       4.8864      0.00000
     25       5.3330      0.00000
     26       5.3330      0.00000
     27       5.5157      0.00000
     28       5.5157      0.00000
     29       6.3157      0.00000
     30       6.3157      0.00000
     31       8.4401      0.00000
     32       8.4401      0.00000

 k-point     5 :       0.0000    0.1667    0.0000
  band No.  band energies     occupation 
      1     -10.9234      2.00000
      2     -10.6475      2.00000
      3      -9.7474      2.00000
      4      -9.3778      2.00000
      5      -5.1810      2.00000
      6      -4.7096      2.00000
      7      -3.2102      2.00000
      8      -3.1978      2.00000
      9      -1.7777      2.00000
     10      -0.5246      2.00000
     11      -0.3224      2.00000
     12      -0.2189      2.00000
     13      -0.1007      2.00000
     14       0.0880      2.00000
     15       1.0623      2.00000
     16       1.1219      2.00000
     17       1.5005      2.00000
     18       2.2563      2.00000
     19       2.2974      2.00000
     20       2.6242      2.00000
     21       4.0751      0.00000
     22       5.0478      0.00000
     23       5.4583      0.00000
     24       5.9101      0.00000
     25       5.9639      0.00000
     26       6.0903      0.00000
     27       6.4077      0.00000
     28       6.5995      0.00000
     29       6.8414      0.00000
     30       7.7393      0.00000
     31       7.8932      0.00000
     32       8.2061      0.00000

 k-point     6 :       0.1667    0.1667    0.0000
  band No.  band energies     occupation 
      1     -10.8181      2.00000
      2     -10.5497      2.00000
      3      -9.7677      2.00000
      4      -9.4314      2.00000
      5      -5.3205      2.00000
      6      -4.6858      2.00000
      7      -3.6887      2.00000
      8      -3.3578      2.00000
      9      -1.6057      2.00000
     10      -0.9970      2.00000
     11      -0.7027      2.00000
     12      -0.0460      2.00000
     13       0.5765      2.00000
     14       0.6781      2.00000
     15       0.8528      2.00000
     16       1.0529      2.00000
     17       1.8912      2.00000
     18       1.9119      2.00000
     19       2.4165      2.00000
     20       2.5859      2.00000
     21       4.1741      0.00000
     22       4.8341      0.00000
     23       5.1858      0.00000
     24       5.2807      0.00000
     25       5.9608      0.00000
     26       6.1017      0.00000
     27       6.7171      0.00000
     28       6.7275      0.00000
     29       7.1471      0.00000
     30       7.4633      0.00000
     31       7.5510      0.00000
     32       8.4104      0.00000

 k-point     7 :      -0.1667    0.1667    0.0000
  band No.  band energies     occupation 
      1     -10.8181      2.00000
      2     -10.5497      2.00000
      3      -9.7677      2.00000
      4      -9.4314      2.00000
      5      -5.3205      2.00000
      6      -4.6858      2.00000
      7      -3.6887      2.00000
      8      -3.3578      2.00000
      9      -1.6057      2.00000
     10      -0.9970      2.00000
     11      -0.7027      2.00000
     12      -0.0460      2.00000
     13       0.5765      2.00000
     14       0.6781      2.00000
     15       0.8528      2.00000
     16       1.0529      2.00000
     17       1.8912      2.00000
     18       1.9119      2.00000
     19       2.4165      2.00000
     20       2.5859      2.00000
     21       4.1741      0.00000
     22       4.8341      0.00000
     23       5.1858      0.00000
     24       5.2807      0.00000
     25       5.9608      0.00000
     26       6.1017      0.00000
     27       6.7171      0.00000
     28       6.7275      0.00000
     29       7.1471      0.00000
     30       7.4633      0.00000
     31       7.5510      0.00000
     32       8.4104      0.00000

 k-point     8 :       0.3333    0.1667    0.0000
  band No.  band energies     occupation 
      1     -10.5327      2.00000
      2     -10.2838      2.00000
      3      -9.8852      2.00000
      4      -9.6170      2.00000
      5      -5.4449      2.00000
      6      -4.6134      2.00000
      7      -4.5254      2.00000
      8      -3.8442      2.00000
      9      -1.1313      2.00000
     10      -1.0429      2.00000
     11      -0.7125      2.00000
     12      -0.0158      2.00000
     13       0.1712      2.00000
     14       0.6581      2.00000
     15       1.0530      2.00000
     16       1.5201      2.00000
     17       1.9142      2.00000
     18       2.0062      2.00000
     19       2.4063      2.00000
     20       2.4421      2.00000
     21       4.2876      0.00000
     22       4.7618      0.00000
     23       5.1697      0.00000
     24       5.3103      0.00000
     25       5.6015      0.00000
     26       6.0841      0.00000
     27       6.2953      0.00000
     28       7.0866      0.00000
     29       7.0929      0.00000
     30       7.5047      0.00000
     31       7.6622      0.00000
     32       8.4161      0.00000

 k-point     9 :      -0.3333    0.1667    0.0000
  band No.  band energies     occupation 
      1     -10.5327      2.00000
      2     -10.2838      2.00000
      3      -9.8852      2.00000
      4      -9.6170      2.00000
      5      -5.4449      2.00000
      6      -4.6134      2.00000
      7      -4.5254      2.00000
      8      -3.8442      2.00000
      9      -1.1313      2.00000
     10      -1.0429      2.00000
     11      -0.7125      2.00000
     12      -0.0158      2.00000
     13       0.1712      2.00000
     14       0.6581      2.00000
     15       1.0530      2.00000
     16       1.5201      2.00000
     17       1.9142      2.00000
     18       2.0062      2.00000
     19       2.4063      2.00000
     20       2.4421      2.00000
     21       4.2876      0.00000
     22       4.7618      0.00000
     23       5.1697      0.00000
     24       5.3103      0.00000
     25       5.6015      0.00000
     26       6.0841      0.00000
     27       6.2953      0.00000
     28       7.0866      0.00000
     29       7.0929      0.00000
     30       7.5047      0.00000
     31       7.6622      0.00000
     32       8.4161      0.00000

 k-point    10 :       0.5000    0.1667    0.0000
  band No.  band energies     occupation 
      1     -10.1684      2.00000
      2     -10.1684      2.00000
      3      -9.9327      2.00000
      4      -9.9327      2.00000
      5      -5.1937      2.00000
      6      -5.1937      2.00000
      7      -4.3400      2.00000
      8      -4.3400      2.00000
      9      -0.7263      2.00000
     10      -0.7263      2.00000
     11      -0.3778      2.00000
     12      -0.3778      2.00000
     13      -0.0534      2.00000
     14      -0.0534      2.00000
     15       1.3593      2.00000
     16       1.3593      2.00000
     17       2.0476      2.00000
     18       2.0476      2.00000
     19       2.4833      2.00000
     20       2.4833      2.00000
     21       4.4839      0.00000
     22       4.4839      0.00000
     23       5.1945      0.00000
     24       5.1945      0.00000
     25       6.0362      0.00000
     26       6.0362      0.00000
     27       6.6344      0.00000
     28       6.6344      0.00000
     29       7.1139      0.00000
     30       7.1139      0.00000
     31       8.1604      0.00000
     32       8.1604      0.00000

 k-point    11 :       0.0000    0.3333    0.0000
  band No.  band energies     occupation 
      1     -10.4399      2.00000
      2     -10.2209      2.00000
      3      -9.6007      2.00000
      4      -9.4239      2.00000
      5      -5.5276      2.00000
      6      -5.0877      2.00000
      7      -4.4428      2.00000
      8      -4.0596      2.00000
      9      -1.2147      2.00000
     10      -0.4735      2.00000
     11      -0.2229      2.00000
     12       0.1619      2.00000
     13       0.3631      2.00000
     14       0.3953      2.00000
     15       0.8805      2.00000
     16       1.2710      2.00000
     17       1.5407      2.00000
     18       1.9168      2.00000
     19       2.0975      2.00000
     20       2.2093      2.00000
     21       3.9930      0.00000
     22       4.3604      0.00000
     23       4.6071      0.00000
     24       5.1177      0.00000
     25       5.1325      0.00000
     26       5.6608      0.00000
     27       5.6841      0.00000
     28       6.4497      0.00000
     29       6.7847      0.00000
     30       6.9056      0.00000
     31       7.2563      0.00000
     32       8.0459      0.00000

 k-point    12 :       0.1667    0.3333    0.0000
  band No.  band energies     occupation 
      1     -10.3546      2.00000
      2     -10.1451      2.00000
      3      -9.6112      2.00000
      4      -9.4430      2.00000
      5      -5.4783      2.00000
      6      -4.9902      2.00000
      7      -4.4452      2.00000
      8      -4.1638      2.00000
      9      -1.2230      2.00000
     10      -1.1105      2.00000
     11      -0.9029      2.00000
     12      -0.2375      2.00000
     13       0.4592      2.00000
     14       0.7363      2.00000
     15       0.7398      2.00000
     16       1.0879      2.00000
     17       1.2469      2.00000
     18       1.9809      2.00000
     19       1.9944      2.00000
     20       2.0707      2.00000
     21       4.0320      0.00000
     22       4.6979      0.00000
     23       4.8260      0.00000
     24       5.1143      0.00000
     25       5.7596      0.00000
     26       6.0928      0.00000
     27       6.4591      0.00000
     28       6.9115      0.00000
     29       7.1029      0.00000
     30       7.1320      0.00000
     31       7.8947      0.00000
     32       8.0735      0.00000

 k-point    13 :      -0.1667    0.3333    0.0000
  band No.  band energies     occupation 
      1     -10.3546      2.00000
      2     -10.1451      2.00000
      3      -9.6112      2.00000
      4      -9.4430      2.00000
      5      -5.4783      2.00000
      6      -4.9902      2.00000
      7      -4.4452      2.00000
      8      -4.1638      2.00000
      9      -1.2230      2.00000
     10      -1.1105      2.00000
     11      -0.9029      2.00000
     12      -0.2375      2.00000
     13       0.4592      2.00000
     14       0.7363      2.00000
     15       0.7398      2.00000
     16       1.0879      2.00000
     17       1.2469      2.00000
     18       1.9809      2.00000
     19       1.9944      2.00000
     20       2.0707      2.00000
     21       4.0320      0.00000
     22       4.6979      0.00000
     23       4.8260      0.00000
     24       5.1143      0.00000
     25       5.7596      0.00000
     26       6.0928      0.00000
     27       6.4591      0.00000
     28       6.9115      0.00000
     29       7.1029      0.00000
     30       7.1320      0.00000
     31       7.8947      0.00000
     32       8.0735      0.00000

 k-point    14 :       0.3333    0.3333    0.0000
  band No.  band energies     occupation 
      1     -10.1314      2.00000
      2      -9.9474      2.00000
      3      -9.6810      2.00000
      4      -9.5277      2.00000
      5      -5.3224      2.00000
      6      -4.7522      2.00000
      7      -4.6307      2.00000
      8      -4.3403      2.00000
      9      -1.7766      2.00000
     10      -1.3508      2.00000
     11      -1.0891      2.00000
     12      -0.7586      2.00000
     13      -0.3290      2.00000
     14       0.2237      2.00000
     15       0.3477      2.00000
     16       0.8569      2.00000
     17       1.0835      2.00000
     18       1.6035      2.00000
     19       1.9308      2.00000
     20       2.1239      2.00000
     21       4.1555      0.00000
     22       5.6013      0.00000
     23       6.1130      0.00000
     24       6.2222      0.00000
     25       6.3028      0.00000
     26       6.6378      0.00000
     27       7.1086      0.00000
     28       7.4684      0.00000
     29       7.5988      0.00000
     30       8.0195      0.00000
     31       8.0986      0.00000
     32       8.9858      0.00000

 k-point    15 :      -0.3333    0.3333    0.0000
  band No.  band energies     occupation 
      1     -10.1314      2.00000
      2      -9.9474      2.00000
      3      -9.6810      2.00000
      4      -9.5277      2.00000
      5      -5.3224      2.00000
      6      -4.7522      2.00000
      7      -4.6307      2.00000
      8      -4.3403      2.00000
      9      -1.7766      2.00000
     10      -1.3508      2.00000
     11      -1.0891      2.00000
     12      -0.7586      2.00000
     13      -0.3290      2.00000
     14       0.2237      2.00000
     15       0.3477      2.00000
     16       0.8569      2.00000
     17       1.0835      2.00000
     18       1.6035      2.00000
     19       1.9308      2.00000
     20       2.1239      2.00000
     21       4.1555      0.00000
     22       5.6013      0.00000
     23       6.1130      0.00000
     24       6.2222      0.00000
     25       6.3028      0.00000
     26       6.6378      0.00000
     27       7.1086      0.00000
     28       7.4684      0.00000
     29       7.5988      0.00000
     30       8.0195      0.00000
     31       8.0986      0.00000
     32       8.9858      0.00000

 k-point    16 :       0.5000    0.3333    0.0000
  band No.  band energies     occupation 
      1      -9.8670      2.00000
      2      -9.8670      2.00000
      3      -9.7097      2.00000
      4      -9.7097      2.00000
      5      -5.0243      2.00000
      6      -5.0243      2.00000
      7      -4.5037      2.00000
      8      -4.5037      2.00000
      9      -1.6836      2.00000
     10      -1.6836      2.00000
     11      -1.1213      2.00000
     12      -1.1213      2.00000
     13      -0.3232      2.00000
     14      -0.3232      2.00000
     15       0.5415      2.00000
     16       0.5415      2.00000
     17       1.0523      2.00000
     18       1.0523      2.00000
     19       1.9891      2.00000
     20       1.9891      2.00000
     21       5.1151      0.00000
     22       5.1151      0.00000
     23       6.6486      0.00000
     24       6.6486      0.00000
     25       7.2533      0.00000
     26       7.2533      0.00000
     27       7.4956      0.00000
     28       7.4956      0.00000
     29       7.9245      0.00000
     30       7.9245      0.00000
     31       8.6888      0.00000
     32       8.6888      0.00000

 k-point    17 :       0.0000    0.5000    0.0000
  band No.  band energies     occupation 
      1      -9.8262      2.00000
      2      -9.8262      2.00000
      3      -9.7522      2.00000
      4      -9.7522      2.00000
      5      -5.3739      2.00000
      6      -5.3739      2.00000
      7      -4.8877      2.00000
      8      -4.8877      2.00000
      9      -0.5141      2.00000
     10      -0.5141      2.00000
     11       0.1983      2.00000
     12       0.1983      2.00000
     13       0.5943      2.00000
     14       0.5943      2.00000
     15       1.1168      2.00000
     16       1.1168      2.00000
     17       1.5521      2.00000
     18       1.5521      2.00000
     19       1.7881      2.00000
     20       1.7881      2.00000
     21       4.1009      0.00000
     22       4.1009      0.00000
     23       4.4494      0.00000
     24       4.4494      0.00000
     25       5.0721      0.00000
     26       5.0721      0.00000
     27       5.5016      0.00000
     28       5.5016      0.00000
     29       6.4412      0.00000
     30       6.4412      0.00000
     31       7.5145      0.00000
     32       7.5145      0.00000

 k-point    18 :       0.1667    0.5000    0.0000
  band No.  band energies     occupation 
      1      -9.7855      2.00000
      2      -9.7855      2.00000
      3      -9.7204      2.00000
      4      -9.7204      2.00000
      5      -5.2776      2.00000
      6      -5.2776      2.00000
      7      -4.8537      2.00000
      8      -4.8537      2.00000
      9      -0.7845      2.00000
     10      -0.7845      2.00000
     11      -0.3771      2.00000
     12      -0.3771      2.00000
     13       0.1213      2.00000
     14       0.1213      2.00000
     15       0.7035      2.00000
     16       0.7035      2.00000
     17       1.3987      2.00000
     18       1.3987      2.00000
     19       2.0806      2.00000
     20       2.0806      2.00000
     21       4.0688      0.00000
     22       4.0688      0.00000
     23       5.1351      0.00000
     24       5.1351      0.00000
     25       6.0359      0.00000
     26       6.0359      0.00000
     27       6.3455      0.00000
     28       6.3455      0.00000
     29       7.0462      0.00000
     30       7.0462      0.00000
     31       7.2477      0.00000
     32       7.2477      0.00000

 k-point    19 :       0.3333    0.5000    0.0000
  band No.  band energies     occupation 
      1      -9.6978      2.00000
      2      -9.6978      2.00000
      3      -9.6574      2.00000
      4      -9.6574      2.00000
      5      -5.0517      2.00000
      6      -5.0517      2.00000
      7      -4.8009      2.00000
      8      -4.8009      2.00000
      9      -1.4328      2.00000
     10      -1.4328      2.00000
     11      -1.0518      2.00000
     12      -1.0518      2.00000
     13      -0.4226      2.00000
     14      -0.4226      2.00000
     15       0.1850      2.00000
     16       0.1850      2.00000
     17       1.0319      2.00000
     18       1.0319      2.00000
     19       1.8512      2.00000
     20       1.8512      2.00000
     21       5.0774      0.00000
     22       5.0774      0.00000
     23       6.4036      0.00000
     24       6.4036      0.00000
     25       6.9342      0.00000
     26       6.9342      0.00000
     27       7.2346      0.00000
     28       7.2346      0.00000
     29       7.6823      0.00000
     30       7.6823      0.00000
     31       8.7235      0.00000
     32       8.7235      0.00000

 k-point    20 :       0.5000    0.5000    0.0000
  band No.  band energies     occupation 
      1      -9.6465      2.00000
      2      -9.6465      2.00000
      3      -9.6303      2.00000
      4      -9.6303      2.00000
      5      -4.9010      2.00000
      6      -4.9010      2.00000
      7      -4.8010      2.00000
      8      -4.8010      2.00000
      9      -1.6804      2.00000
     10      -1.6804      2.00000
     11      -1.3929      2.00000
     12      -1.3929      2.00000
     13      -0.5517      2.00000
     14      -0.5517      2.00000
     15      -0.2163      2.00000
     16      -0.2163      2.00000
     17       1.1267      2.00000
     18       1.1267      2.00000
[...]
     32       7.2391      0.00000

 k-point    32 :       0.1667    0.3333    0.5000
  band No.  band energies     occupation 
      1     -10.2640      2.00000
      2     -10.2640      2.00000
      3      -9.5123      2.00000
      4      -9.5123      2.00000
      5      -5.2623      2.00000
      6      -5.2623      2.00000
      7      -4.3028      2.00000
      8      -4.3028      2.00000
      9      -1.1371      2.00000
     10      -1.1371      2.00000
     11      -0.3910      2.00000
     12      -0.3910      2.00000
     13       0.3467      2.00000
     14       0.3467      2.00000
     15       0.9749      2.00000
     16       0.9749      2.00000
     17       1.3279      2.00000
     18       1.3279      2.00000
     19       2.1641      2.00000
     20       2.1641      2.00000
     21       4.7525      0.00000
     22       4.7525      0.00000
     23       5.0335      0.00000
     24       5.0335      0.00000
     25       5.9991      0.00000
     26       5.9991      0.00000
     27       6.3307      0.00000
     28       6.3307      0.00000
     29       7.0586      0.00000
     30       7.0586      0.00000
     31       7.7536      0.00000
     32       7.7536      0.00000

 k-point    33 :      -0.1667    0.3333    0.5000
  band No.  band energies     occupation 
      1     -10.2640      2.00000
      2     -10.2640      2.00000
      3      -9.5123      2.00000
      4      -9.5123      2.00000
      5      -5.2623      2.00000
      6      -5.2623      2.00000
      7      -4.3028      2.00000
      8      -4.3028      2.00000
      9      -1.1371      2.00000
     10      -1.1371      2.00000
     11      -0.3910      2.00000
     12      -0.3910      2.00000
     13       0.3467      2.00000
     14       0.3467      2.00000
     15       0.9749      2.00000
     16       0.9749      2.00000
     17       1.3279      2.00000
     18       1.3279      2.00000
     19       2.1641      2.00000
     20       2.1641      2.00000
     21       4.7525      0.00000
     22       4.7525      0.00000
     23       5.0335      0.00000
     24       5.0335      0.00000
     25       5.9991      0.00000
     26       5.9991      0.00000
     27       6.3307      0.00000
     28       6.3307      0.00000
     29       7.0586      0.00000
     30       7.0586      0.00000
     31       7.7536      0.00000
     32       7.7536      0.00000

 k-point    34 :       0.3333    0.3333    0.5000
  band No.  band energies     occupation 
      1     -10.0557      2.00000
      2     -10.0557      2.00000
      3      -9.5882      2.00000
      4      -9.5882      2.00000
      5      -5.0972      2.00000
      6      -5.0972      2.00000
      7      -4.4420      2.00000
      8      -4.4420      2.00000
      9      -1.5853      2.00000
     10      -1.5853      2.00000
     11      -0.8134      2.00000
     12      -0.8134      2.00000
     13      -0.1455      2.00000
     14      -0.1455      2.00000
     15       0.5494      2.00000
     16       0.5494      2.00000
     17       1.3137      2.00000
     18       1.3137      2.00000
     19       2.0621      2.00000
     20       2.0621      2.00000
     21       5.2770      0.00000
     22       5.2770      0.00000
     23       5.9119      0.00000
     24       5.9119      0.00000
     25       6.1896      0.00000
     26       6.1896      0.00000
     27       7.2872      0.00000
     28       7.2872      0.00000
     29       7.3910      0.00000
     30       7.3910      0.00000
     31       8.8361      0.00000
     32       8.8361      0.00000

 k-point    35 :      -0.3333    0.3333    0.5000
  band No.  band energies     occupation 
      1     -10.0557      2.00000
      2     -10.0557      2.00000
      3      -9.5882      2.00000
      4      -9.5882      2.00000
      5      -5.0972      2.00000
      6      -5.0972      2.00000
      7      -4.4420      2.00000
      8      -4.4420      2.00000
      9      -1.5853      2.00000
     10      -1.5853      2.00000
     11      -0.8134      2.00000
     12      -0.8134      2.00000
     13      -0.1455      2.00000
     14      -0.1455      2.00000
     15       0.5494      2.00000
     16       0.5494      2.00000
     17       1.3137      2.00000
     18       1.3137      2.00000
     19       2.0621      2.00000
     20       2.0621      2.00000
     21       5.2770      0.00000
     22       5.2770      0.00000
     23       5.9119      0.00000
     24       5.9119      0.00000
     25       6.1896      0.00000
     26       6.1896      0.00000
     27       7.2872      0.00000
     28       7.2872      0.00000
     29       7.3910      0.00000
     30       7.3910      0.00000
     31       8.8361      0.00000
     32       8.8361      0.00000

 k-point    36 :       0.5000    0.3333    0.5000
  band No.  band energies     occupation 
      1      -9.8638      2.00000
      2      -9.8638      2.00000
      3      -9.7134      2.00000
      4      -9.7134      2.00000
      5      -4.9838      2.00000
      6      -4.9838      2.00000
      7      -4.5569      2.00000
      8      -4.5569      2.00000
      9      -1.4464      2.00000
     10      -1.4464      2.00000
     11      -1.4264      2.00000
     12      -1.4264      2.00000
     13       0.0357      2.00000
     14       0.0357      2.00000
     15       0.0686      2.00000
     16       0.0686      2.00000
     17       1.4754      2.00000
     18       1.4754      2.00000
     19       1.7446      2.00000
     20       1.7446      2.00000
     21       5.5934      0.00000
     22       5.5934      0.00000
     23       6.1515      0.00000
     24       6.1515      0.00000
     25       6.9675      0.00000
     26       6.9675      0.00000
     27       6.9741      0.00000
     28       6.9741      0.00000
     29       8.4114      0.00000
     30       8.4114      0.00000
     31       8.6430      0.00000
     32       8.6430      0.00000

 k-point    37 :       0.0000    0.5000    0.5000
  band No.  band energies     occupation 
      1      -9.7900      2.00000
      2      -9.7900      2.00000
      3      -9.7900      2.00000
      4      -9.7900      2.00000
      5      -5.1463      2.00000
      6      -5.1463      2.00000
      7      -5.1463      2.00000
      8      -5.1463      2.00000
      9      -0.0683      2.00000
     10      -0.0683      2.00000
     11      -0.0683      2.00000
     12      -0.0683      2.00000
     13       0.8266      2.00000
     14       0.8266      2.00000
     15       0.8266      2.00000
     16       0.8266      2.00000
     17       1.4923      2.00000
     18       1.4923      2.00000
     19       1.4923      2.00000
     20       1.4923      2.00000
     21       4.5550      0.00000
     22       4.5550      0.00000
     23       4.5550      0.00000
     24       4.5550      0.00000
     25       5.2519      0.00000
     26       5.2519      0.00000
     27       5.2519      0.00000
     28       5.2519      0.00000
     29       6.7530      0.00000
     30       6.7530      0.00000
     31       6.7530      0.00000
     32       6.7530      0.00000

 k-point    38 :       0.1667    0.5000    0.5000
  band No.  band energies     occupation 
      1      -9.7535      2.00000
      2      -9.7535      2.00000
      3      -9.7535      2.00000
      4      -9.7535      2.00000
      5      -5.0774      2.00000
      6      -5.0774      2.00000
      7      -5.0774      2.00000
      8      -5.0774      2.00000
      9      -0.5479      2.00000
     10      -0.5479      2.00000
     11      -0.5479      2.00000
     12      -0.5479      2.00000
     13       0.4204      2.00000
     14       0.4204      2.00000
     15       0.4204      2.00000
     16       0.4204      2.00000
     17       1.5835      2.00000
     18       1.5835      2.00000
     19       1.5835      2.00000
     20       1.5835      2.00000
     21       4.8763      0.00000
     22       4.8763      0.00000
     23       4.8763      0.00000
     24       4.8763      0.00000
     25       6.1936      0.00000
     26       6.1936      0.00000
     27       6.1936      0.00000
     28       6.1936      0.00000
     29       6.8386      0.00000
     30       6.8386      0.00000
     31       6.8386      0.00000
     32       6.8386      0.00000

 k-point    39 :       0.3333    0.5000    0.5000
  band No.  band energies     occupation 
      1      -9.6778      2.00000
      2      -9.6778      2.00000
      3      -9.6778      2.00000
      4      -9.6778      2.00000
      5      -4.9316      2.00000
      6      -4.9316      2.00000
      7      -4.9316      2.00000
      8      -4.9316      2.00000
      9      -1.1873      2.00000
     10      -1.1873      2.00000
     11      -1.1873      2.00000
     12      -1.1873      2.00000
     13      -0.3078      2.00000
     14      -0.3078      2.00000
     15      -0.3078      2.00000
     16      -0.3078      2.00000
     17       1.6103      2.00000
     18       1.6103      2.00000
     19       1.6103      2.00000
     20       1.6103      2.00000
     21       5.6702      0.00000
     22       5.6702      0.00000
     23       5.6702      0.00000
     24       5.6702      0.00000
     25       6.7204      0.00000
     26       6.7204      0.00000
     27       6.7204      0.00000
     28       6.7204      0.00000
     29       8.3647      0.00000
     30       8.3647      0.00000
     31       8.3647      0.00000
     32       8.3647      0.00000

 k-point    40 :       0.5000    0.5000    0.5000
  band No.  band energies     occupation 
      1      -9.6384      2.00000
      2      -9.6384      2.00000
      3      -9.6384      2.00000
      4      -9.6384      2.00000
      5      -4.8549      2.00000
      6      -4.8549      2.00000
      7      -4.8549      2.00000
      8      -4.8549      2.00000
      9      -1.3859      2.00000
     10      -1.3859      2.00000
     11      -1.3859      2.00000
     12      -1.3859      2.00000
     13      -0.7100      2.00000
     14      -0.7100      2.00000
     15      -0.7100      2.00000
     16      -0.7100      2.00000
     17       1.6601      2.00000
     18       1.6601      2.00000
     19       1.6601      2.00000
     20       1.6601      2.00000
     21       5.5896      0.00000
     22       5.5896      0.00000
     23       5.5896      0.00000
     24       5.5896      0.00000
     25       7.5706      0.00000
     26       7.5706      0.00000
     27       7.5706      0.00000
     28       7.5706      0.00000
     29       9.3217      0.00000
     30       9.3217      0.00000
     31       9.3217      0.00000
     32       9.3217      0.00000


--------------------------------------------------------------------------------------------------------


 soft charge-density along one line, spin component            1
         0         1         2         3         4         5         6         7         8         9
 total charge-density along one line
 
 pseudopotential strength for first ion, spin component:            1
 14.602  18.220   0.000   0.048   0.040   0.000   0.086   0.072
 18.220  22.750   0.000   0.060   0.051   0.000   0.108   0.091
  0.000   0.000   3.239   0.000  -0.000   5.515   0.000  -0.000
  0.048   0.060   0.000   3.235  -0.003   0.000   5.508  -0.004
  0.040   0.051  -0.000  -0.003   3.238  -0.000  -0.004   5.513
  0.000   0.000   5.515   0.000  -0.000   9.448   0.000  -0.000
  0.086   0.108   0.000   5.508  -0.004   0.000   9.436  -0.008
  0.072   0.091  -0.000  -0.004   5.513  -0.000  -0.008   9.445
 -0.000  -0.000   0.006  -0.000   0.000   0.012  -0.000   0.000
  0.000   0.000   0.012   0.000  -0.000   0.022   0.000  -0.000
 -0.004  -0.005  -0.000   0.012  -0.003  -0.000   0.023  -0.006
 -0.005  -0.007  -0.000   0.013   0.012  -0.000   0.023   0.022
 -0.001  -0.001  -0.000  -0.000   0.012  -0.000  -0.000   0.021
 total augmentation occupancy for first ion, spin component:            1
  2.666  -0.656   0.000   0.381   0.310  -0.000  -0.069  -0.055  -0.000   0.000  -0.002  -0.011  -0.012
 -0.656   0.634   0.000  -0.497  -0.411  -0.000   0.077   0.064   0.000   0.000   0.002   0.008   0.009
  0.000   0.000   1.215   0.000  -0.000  -0.208  -0.000   0.000   0.138   0.038   0.000   0.000   0.000
  0.381  -0.497   0.000   1.310   0.055   0.000  -0.209   0.003   0.000  -0.000   0.105  -0.024   0.004
  0.310  -0.411  -0.000   0.055   1.183   0.000   0.003  -0.190  -0.000   0.000  -0.096   0.045  -0.006
 -0.000  -0.000  -0.208   0.000   0.000   0.039   0.000  -0.000  -0.024  -0.006  -0.000  -0.000  -0.000
 -0.069   0.077  -0.000  -0.209   0.003   0.000   0.038  -0.002  -0.000   0.000  -0.018   0.004  -0.001
 -0.055   0.064   0.000   0.003  -0.190  -0.000  -0.002   0.034  -0.000  -0.000   0.016  -0.007   0.001
 -0.000   0.000   0.138   0.000  -0.000  -0.024  -0.000  -0.000   0.029   0.003  -0.000  -0.000  -0.000
  0.000   0.000   0.038  -0.000   0.000  -0.006   0.000  -0.000   0.003   0.010  -0.000   0.000  -0.000
 -0.002   0.002   0.000   0.105  -0.096  -0.000  -0.018   0.016  -0.000  -0.000   0.030  -0.008   0.003
 -0.011   0.008   0.000  -0.024   0.045  -0.000   0.004  -0.007  -0.000   0.000  -0.008   0.012  -0.002
 -0.012   0.009   0.000   0.004  -0.006  -0.000  -0.001   0.001  -0.000  -0.000   0.003  -0.002   0.008


------------------------ aborting loop because EDIFF is reached ----------------------------------------


    CHARGE:  cpu time      0.0033: real time      0.0033
    FORLOC:  cpu time      0.0002: real time      0.0002
    FORNL :  cpu time      0.0219: real time      0.0220
    STRESS:  cpu time      0.1950: real time      0.1957
    FORCOR:  cpu time      0.0032: real time      0.0032
    FORHAR:  cpu time      0.0009: real time      0.0009
    MIXING:  cpu time      0.0006: real time      0.0006
    OFIELD:  cpu time      0.0000: real time      0.0000

  FORCE on cell =-STRESS in cart. coord.  units (eV):
  Direction    XX          YY          ZZ          XY          YZ          ZX
  --------------------------------------------------------------------------------------
  Alpha Z    84.61495    84.61495    84.61495
  Ewald    -481.75156  -423.89658  -494.56928     0.00000    -0.00000     0.00000
  Hartree    44.70357    68.09576    30.79048     0.00000    -0.00000    -0.00000
  E(xc)    -140.78206  -140.68223  -141.11400     0.00000    -0.00000    -0.00000
  Local    -130.68374  -205.13247  -107.60981    -0.00000     0.00000    -0.00000
  n-local   239.03080   239.71216   241.62613     0.00000     0.00000     0.00000
  augment   -11.82456   -11.33479   -12.19959    -0.00000    -0.00000    -0.00000
  Kinetic   396.34654   387.25884   398.58576     0.00000    -0.00000     0.00000
  Fock        0.00000     0.00000     0.00000     0.00000     0.00000     0.00000
  -------------------------------------------------------------------------------------
  Total      -0.34607    -1.36435     0.12463    -0.00000    -0.00000    -0.00000
  in kB      -2.76881   -10.91585     0.99717    -0.00000    -0.00000    -0.00000
  external pressure =       -4.23 kB  Pullay stress =        0.00 kB


 VOLUME and BASIS-vectors are now :
 -----------------------------------------------------------------------------
  energy-cutoff  :      360.00
  volume of cell :      200.25
      direct lattice vectors                 reciprocal lattice vectors
     4.550000000  0.000000000  0.000000000     0.219780220  0.000000000  0.000000000
     0.000000000  3.950000000  0.000000000     0.000000000  0.253164557  0.000000000
     0.000000000  0.000000000 11.142221000     0.000000000  0.000000000  0.089748713

  length of vectors
     4.550000000  3.950000000 11.142221000     0.219780220  0.253164557  0.089748713


 FORCES acting on ions
    electron-ion (+dipol)            ewald-force                    non-local-force                 convergence-correction
 -----------------------------------------------------------------------------------------------
   0.146E+02 0.885E-06 0.276E+02   -.172E+02 0.161E-14 -.306E+02   0.259E+01 -.649E-06 0.302E+01   0.339E-05 -.400E-06 -.128E-02
   0.146E+02 0.120E-06 -.276E+02   -.172E+02 0.691E-15 0.306E+02   0.259E+01 -.239E-06 -.302E+01   0.125E-05 0.570E-07 0.128E-02
   -.146E+02 -.864E-07 -.276E+02   0.172E+02 0.575E-15 0.306E+02   -.259E+01 0.154E-06 -.302E+01   -.344E-05 0.120E-06 0.129E-02
   -.146E+02 0.586E-06 0.276E+02   0.172E+02 -.371E-15 -.306E+02   -.259E+01 -.201E-06 0.302E+01   -.120E-05 -.247E-06 -.128E-02
   -.134E+02 0.903E-06 -.269E+02   0.150E+02 -.567E-15 0.286E+02   -.150E+01 -.280E-06 -.169E+01   0.369E-03 -.836E-06 0.267E-02
   -.134E+02 -.110E-06 0.269E+02   0.150E+02 -.406E-14 -.286E+02   -.150E+01 0.203E-06 0.169E+01   0.372E-03 0.379E-07 -.268E-02
   0.134E+02 -.132E-06 0.269E+02   -.150E+02 -.210E-14 -.286E+02   0.150E+01 -.302E-06 0.169E+01   -.369E-03 0.429E-06 -.268E-02
   0.134E+02 0.665E-06 -.269E+02   -.150E+02 0.919E-16 0.286E+02   0.150E+01 -.519E-06 -.169E+01   -.369E-03 -.135E-06 0.268E-02
 -----------------------------------------------------------------------------------------------
   -.235E-05 0.283E-05 0.342E-06   0.000E+00 -.413E-14 0.000E+00   0.946E-07 -.183E-05 0.580E-06   0.223E-05 -.973E-06 -.722E-06
 
 
 POSITION                                       TOTAL-FORCE (eV/Angst)
 -----------------------------------------------------------------------------------
      0.50662      0.98750      1.40182        -0.033386     -0.000000      0.007025
      2.78162      2.96250      4.16930        -0.033387     -0.000000     -0.007027
      4.04338      2.96250      9.74041         0.033386      0.000000     -0.007025
      1.76838      0.98750      6.97293         0.033387      0.000000      0.007027
      4.48157      0.98750      3.92362         0.054972     -0.000000     -0.002084
      2.20657      2.96250      1.64749         0.054972      0.000000      0.002084
      0.06843      2.96250      7.21860        -0.054972     -0.000000      0.002084
      2.34343      0.98750      9.49473        -0.054972      0.000000     -0.002084
 -----------------------------------------------------------------------------------
    total drift:                               -0.000000      0.000000      0.000000


--------------------------------------------------------------------------------------------------------



  FREE ENERGIE OF THE ION-ELECTRON SYSTEM (eV)
  ---------------------------------------------------
  free  energy   TOTEN  =       -33.81123803 eV

  energy  without entropy=      -33.81123803  energy(sigma->0) =      -33.81123803
 


--------------------------------------------------------------------------------------------------------


    POTLOK:  cpu time      0.1135: real time      0.1138


--------------------------------------------------------------------------------------------------------


     LOOP+:  cpu time      4.8974: real time      4.9356
    4ORBIT:  cpu time      0.0000: real time      0.0000

 total amount of memory used by VASP MPI-rank0    38614. kBytes
=======================================================================

   base      :      30000. kBytes
   nonl-proj :       6758. kBytes
   fftplans  :        321. kBytes
   grid      :        455. kBytes
   one-center:         16. kBytes
   wavefun   :       1064. kBytes
 
  
  
 General timing and accounting informations for this job:
 ========================================================
  
                  Total CPU time used (sec):        5.716
                            User time (sec):        5.371
                          System time (sec):        0.346
                         Elapsed time (sec):        7.082
  
                   Maximum memory used (kb):      189764.
                   Average memory used (kb):          N/A
  
                          Minor page faults:        21902
                          Major page faults:           39
                 Voluntary context switches:         2861
