72
Lattice="12.475324789531 -4.814697663e-06 1.4535728128e-06 -4.8205036166e-06 12.490367186961393 -1.7506414213e-06 1.6619477313e-06 -1.9991914114e-06 11.080585832718937" Properties=species:S:1:pos:R:3:forces:R:3:magmoms:R:1 energy=-300.91635324 stress="0.002456677016067466 0.001407795988730483 0.0004234433402612287 0.001407795988730483 -0.0009482442885987218 0.0007612030123064944 0.0004234433402612287 0.0007612030123064944 -0.010450471360416946" dipole="_JSON [[0.0, 0.0, 0.0]]" magmom=0.0018126 free_energy=-300.91635324 pbc="T T T"
Ge       1.00910017       0.60056413       1.41910397      -0.32729089      -0.45610977      -0.00893878      -0.00000000
Ge       2.80220276      10.78008751       4.13346822       0.12567872       0.01578617      -0.03687412       0.00000000
Ge       6.96743207       2.42714940       4.21999049      -0.14572543       0.40913338      -0.56566115       0.00000000
Ge       7.02225337       6.73251671       4.12764849      -0.10966149       0.29979549       0.41297725       0.00000000
Ge       6.92395077      10.85405002       4.16052120      -0.16614209      -0.60070650      -0.60444046       0.00000000
Ge      10.83988926       2.14068717       4.24616598       0.12431009       0.74986199      -0.56120187       0.00000000
Ge      11.01256027       6.51192071       3.96380888       0.55236535      -0.50891347       0.27947033       0.00000000
Ge      11.40256269      11.02626211       4.13988083       0.00777870      -0.26135332      -0.55340097      -0.00000000
Ge       0.61005714       1.94697789       7.10965640       0.14355494       0.39081272      -0.00601185       0.00000000
Ge       0.93135678       5.87064513       6.89086688      -0.39483131       0.02505255       0.25257676      -0.00000000
Ge       0.74514375      10.21201275       6.93778851       0.25745326      -0.29286513       0.22250355       0.00000000
Ge       4.77302878       1.94827386       7.03453384      -0.12731045      -0.11279439      -0.41159863       0.00000000
Ge       4.97787610       5.80453891       6.84680136      -0.43975908       0.45995159       0.03645066       0.00000000
Ge       4.78424924      10.44971052       7.09631181      -0.24413536      -0.00487311      -0.93245687       0.00000000
Ge       9.12022448       1.86362824       6.96640842       0.22336014       0.10055773      -0.03240345       0.00000000
Ge       8.88607354       6.25270916       7.01797421       0.17915666       0.09909769      -0.03444734       0.00000000
Ge       2.47114071       6.41911276       4.21714764       0.43515493      -0.20245899      -0.10044208       0.00000000
Ge       3.15778567       2.72229592       3.96754492      -0.26186879      -0.22598157       0.85993057       0.00000000
Ge       9.19098280      10.50314478       7.13493121      -0.15639048      -0.55677691      -0.14424541       0.00000000
Ge      11.27536095       8.18855903       9.53511473       0.08119157      -0.18010475       0.29870984      -0.00000000
Ge      11.34346957      12.15564325       9.70043870      -0.07695299       0.37216520       0.36004356       0.00000000
Ge       0.67735442       4.25609792       1.37794267      -0.45941078       0.03092870       0.23931974      -0.00000000
Ge       0.76045950       8.59033854       1.54503597       0.02952515       0.21535530      -0.08189087      -0.00000000
Ge       5.03857142       0.41450255       1.28823354       0.10256470      -0.28843678       0.54605652       0.00000000
Ge       5.09388757       4.96148739       1.27240797       0.07144430      -0.57474086      -0.03818642       0.00000000
Ge       9.00899075       0.27185528       1.34489014      -0.21114331      -0.32450997      -0.69796130       0.00000000
Ge       9.02952964       4.53578614       1.19658296       0.01249958       0.19905200       0.17669954       0.00000000
Ge       4.78813983       8.67535749       1.41833116       0.40597788      -0.25877113      -0.11938554      -0.00000000
Ge       2.99677819       3.98446615       9.91323493      -0.17727844       0.04190956      -0.46505437       0.00000000
Ge       2.95732174       7.99825327       9.62288149      -0.22668175      -0.01502703      -0.16481285      -0.00000000
Ge       2.85452266      12.48959886       9.64047771      -0.41892396       0.00142235      -0.28758928       0.00000000
Ge       7.15567575       4.01744589       9.46852170      -0.15374125      -0.12559217       0.62690895       0.00000000
Ge       7.00391458       8.45646071       9.65103846      -0.30701783      -0.31088007      -0.28995772      -0.00000000
Ge       6.99778734      12.53540597       9.67807574      -0.14260595      -0.42871103      -0.39065637       0.00000000
Ge      10.95938695       4.25722440       9.69599957       0.07966529       0.03811481       0.17808369       0.00000000
Ge       9.15686584       8.69675054       1.72443496       0.06711826       0.52603903      -0.63109233      -0.00000000
Se      11.21057101       0.14867155       7.17164132      -0.08709959       0.04288954      -0.22670000      -0.00000000
Se       2.96338891       4.10586206       7.22159056       0.43516674      -0.01521516       0.15195935      -0.00000000
Se       2.92928367       8.64221221       7.10027770      -0.06648396      -0.14841242       0.14341120      -0.00000000
Se       7.17657532       0.21296443       7.09758585       0.08082318      -0.43240813       0.26721699      -0.00000000
Se       7.02575059       4.27295571       7.02195134       0.39219189      -0.01279245      -0.38956424      -0.00000000
Se       7.39840339       8.38779093       7.10756638      -0.20394355       0.33908127       0.24852516      -0.00000000
Se      11.39337307       4.15799939       7.25635364       0.31016128       0.00909341      -0.57496222      -0.00000000
Se       9.31438617       0.14524997       3.77424601       0.11275016      -0.14376841       0.88616116      -0.00000000
Se       0.94770515       0.18079169       3.95974578       0.07697027      -0.11677654       0.00317991      -0.00000000
Se       0.97743511       4.20149885       3.91506719       0.23669197       0.32706366      -0.09484764      -0.00000000
Se       0.86198990       8.34262235       4.08101250      -0.46132222       0.09054800      -0.24406597      -0.00000000
Se       5.08247628       0.06281156       3.92587908      -0.41359195       0.21221940      -0.21716984      -0.00000000
Se       5.09271148       4.39096376       3.81086732       0.39567728      -0.31360162       0.16795755      -0.00000000
Se       5.24452387       8.69328763       3.88436491       0.33577372      -0.27189073       0.39105565      -0.00000000
Se       2.91823598       0.07471123       7.05185456       0.54110276       0.02683258       0.35661094      -0.00000000
Se      11.46523478       8.29156236       7.08249992      -0.17071296       0.34422455      -0.28108092      -0.00000000
Se      11.35182912      10.40438944       1.51152667      -0.06917874      -0.05855763       0.74161554      -0.00000000
Se       3.08650868       2.15137700       1.58344076       0.06765840       0.28859548      -0.67085321      -0.00000000
Se      11.42323982       2.15578941       1.63138656       0.26433769       0.44806941       0.22003788      -0.00000000
Se       9.15250403       4.24581969       3.67257298       0.04159413      -0.59710375       0.69154771      -0.00000000
Se       1.19043027       2.09531343       9.62274610      -0.26351773      -0.13873704       0.07747666      -0.00000000
Se       0.95131423       6.25064650       9.38275243       0.37338779       0.17339384       0.19327853      -0.00000000
Se       0.89531357      10.63800928       9.50211729       0.17044919      -0.24238306      -0.14050042      -0.00000000
Se       5.10661238       2.19623392       9.51301387       0.26565493      -0.06763753       0.29255195      -0.00000000
Se       4.97348126       6.37631199       9.37665450       0.36490149       0.23820435       0.04412073      -0.00000000
Se       5.18994660      10.41182913       9.47394014       0.32008601       0.48430686       0.83966771      -0.00000000
Se       9.18670552       2.31899386       9.45789957      -0.19992346      -0.03114841      -0.01634626      -0.00000000
Se       9.29691413       6.36001554       9.54758159       0.01676832      -0.07169442      -0.14074107      -0.00000000
Se       9.39411033      10.45789929       9.62931681      -0.31557960      -0.09515387      -0.08314365      -0.00000000
Se       3.20087918       6.55039806       1.59925459      -0.46296081       0.03513800       0.23504119      -0.00000000
Se       2.97128165      10.32517079       1.64188155      -0.68234687       0.69386673      -0.14285699      -0.00000000
Se       7.12254279       2.01671087       1.62428733      -0.12817390       0.47146439       0.12158722      -0.00000000
Se       7.18473300       6.42118598       1.66027600       0.28710795       0.08301857      -0.68219642      -0.00000000
Se       7.20675110      10.71879285       1.47284965       0.58913217      -0.34479207       0.64173566      -0.00000000
Se      11.31694557       6.19975317       1.45378329      -0.13554261       0.04974693      -0.12570195      -0.00000000
Se       9.27553874       8.28600490       4.17447761      -0.36993727       0.49888694      -0.01502885      -0.00000000
