72
Lattice="12.459716636791416 -4.8086738891e-06 1.451754216e-06 -4.819727e-06 12.488354902153262 -1.7503593808e-06 1.6580360195e-06 -1.9944859322e-06 11.054505555077618" Properties=species:S:1:pos:R:3:forces:R:3:magmoms:R:1 energy=-300.77191529 stress="-0.006459475900249012 0.0020822642938917615 -0.0006442721087045836 0.0020822642938917615 -0.0023167389049445803 -0.00028836438130604386 -0.0006442721087045836 -0.00028836438130604386 -0.005295648750487623" dipole="_JSON [[0.0, 0.0, 0.0]]" magmom=0.0015981 free_energy=-300.77191529 pbc="T T T"
Ge       0.78394723       0.29321519       1.44808725       0.22158533       0.31350036       0.33849080      -0.00000000
Ge       2.73866799      10.61022685       4.14220513      -0.27512756      -0.15791680      -0.14353108       0.00000000
Ge       6.72660757       2.27063872       4.20805643      -0.08519083       0.24109148       0.49680671      -0.00000000
Ge       6.94574491       6.86033910       4.24695445       0.13586833      -0.06221874      -0.27266064       0.00000000
Ge       7.01259758      10.73856495       4.04941213       0.15856354       0.10210220       0.14842424      -0.00000000
Ge      10.99904871       2.40794677       4.19556074       0.27256520      -0.67683504       0.50236836      -0.00000000
Ge      11.03043552       6.09978081       4.00717763      -0.03364823       0.18331307      -0.22647316       0.00000000
Ge      11.22968823      10.66677367       4.12727226       0.24368592       0.30865999      -0.00142170      -0.00000000
Ge       0.66758928       2.33001500       7.09857104      -0.44976374      -0.37450223       0.08240606      -0.00000000
Ge       0.65412559       6.13219762       6.86494323      -0.37209914      -0.05216718      -0.11982832       0.00000000
Ge       1.08084908      10.18709240       6.93941779      -0.24555436       0.44804769       0.19125457      -0.00000000
Ge       4.81807964       2.05226082       6.84738596       0.11940624      -0.43088241       0.12243649      -0.00000000
Ge       4.88711052       6.00194315       6.89499326       0.45583329      -0.17616952      -0.01414145       0.00000000
Ge       4.67334775      10.42895574       6.74511246       0.14993695       0.64155808       0.29793764       0.00000000
Ge       9.07382199       1.65716135       7.00301869       1.08803269       1.11581435      -0.02224384      -0.00000000
Ge       8.87605139       6.56406287       6.86732908       0.22791287      -0.88984379       0.24914554       0.00000000
Ge       2.80469351       6.51832367       4.23728512      -0.01663739       0.17644475       0.17817243       0.00000000
Ge       2.82905654       2.50181427       4.01332295       0.09875006      -0.12347304       0.07965024      -0.00000000
Ge       9.23663713      10.44030503       6.87173176      -0.24838650      -0.04405592       0.31542517      -0.00000000
Ge      11.13003661       8.25675836       9.34564905       0.02978364       0.13849335       0.79425325       0.00000000
Ge      11.25759496      12.06000820       9.85793108       0.38585843       0.27224417      -0.56408524      -0.00000000
Ge       0.80689405       4.32558341       1.48442138      -0.40302473       0.11559925      -0.12517538       0.00000000
Ge       0.56347020       8.39620691       1.35705201       0.00256684      -0.07833289       0.15413718       0.00000000
Ge       4.77493621       0.11168951       1.42785772      -0.02267467       0.04900912       0.50410861       0.00000000
Ge       5.14780764       4.63998905       1.30169446      -0.62134024       0.11574706       0.00832166       0.00000000
Ge       9.07927588       0.37324966       1.33876556      -0.35070688      -0.21021572       0.40204775      -0.00000000
Ge       8.85756792       4.46750460       1.38113453       0.25114181      -0.64162528       0.22870377       0.00000000
Ge       4.73039041       8.63476208       1.42895594       0.31553331       0.25830652       0.27834112       0.00000000
Ge       2.51819393       4.22368297       9.78585582      -0.00892823      -0.55791078      -0.24850835       0.00000000
Ge       3.11970417       8.04480617       9.57797744      -0.72055622       0.55157362       0.25222747       0.00000000
Ge       2.71086738      12.42232669       9.74947163      -0.30192534       0.21616719      -0.42962713       0.00000000
Ge       7.19254485       4.03273432       9.62332484      -0.28389599      -0.32116812      -0.65989629       0.00000000
Ge       6.83417325       8.68163379       9.59501935      -0.05014645       0.10877098       0.14051385       0.00000000
Ge       6.86935388      12.53707859       9.57451097       0.52674246      -0.47029395      -0.24398945       0.00000000
Ge      10.81507612       4.32640676       9.63217322       0.52652728      -0.08570607      -0.36912525       0.00000000
Ge       9.04568313       8.54349317       1.58877174       0.10642092       0.41402701      -0.65888097       0.00000000
Se      11.32042081       0.30280429       7.20142385      -0.10487934      -0.24280673       0.42701862      -0.00000000
Se       3.20229156       3.98504887       7.04788829      -0.27930020       0.61085793       0.62106425      -0.00000000
Se       3.03497422       8.54037290       7.06230547      -0.09161948      -0.36166935       0.03564736      -0.00000000
Se       7.43721951      -0.08147450       6.95745610      -0.73667135      -0.86906574       0.59050176      -0.00000000
Se       7.11599505       4.56843734       6.95908938      -0.10462663      -0.10535981       0.61033981      -0.00000000
Se       7.31719834       8.46236056       7.09354106      -0.33192579       0.89516426      -0.16735684      -0.00000000
Se      11.25286006       4.23008642       6.99846471       0.47808866       0.40615817       0.48107715      -0.00000000
Se       9.47638917       0.10291744       3.91782555       0.02763369       0.42076898      -0.26608498      -0.00000000
Se       0.94466473      -0.07330277       3.99738016      -0.39359355      -0.07014807      -0.20559233      -0.00000000
Se       1.09495442       4.49616797       3.99208660      -0.01208297      -0.21476078      -0.07545887      -0.00000000
Se       1.09354891       8.46432354       3.92895032      -0.13898823       0.06205235      -0.07424780      -0.00000000
Se       5.22746278       0.15693305       4.10232015      -0.31712273      -0.23296312      -0.74585001      -0.00000000
Se       4.80932346       4.16753422       3.78353693       0.67101850      -0.17784336       0.17330333      -0.00000000
Se       5.24052640       8.78287003       4.05193881       0.05093596      -0.45384485      -0.53234649      -0.00000000
Se       3.03661771       0.11518564       7.17567139      -0.00078390       0.06204102       0.02155959      -0.00000000
Se      11.61957562       8.50681277       6.93982129      -0.29238976      -0.77298861      -0.44770127      -0.00000000
Se      11.18043502      10.20332425       1.61907485       0.03928611       0.13547006      -0.11673119      -0.00000000
Se       2.94290574       2.01276097       1.51766515      -0.12126109      -0.23923087      -0.05009583      -0.00000000
Se      11.55468180       2.27838464       1.77102404       0.05638078       0.15459357      -0.62465233      -0.00000000
Se       9.25822879       4.16251868       3.92725936      -0.16608378       0.65926315      -0.23473954      -0.00000000
Se       0.82474860       2.15780546       9.63735345       0.49517024       0.45719204      -0.20524489      -0.00000000
Se       1.05090065       6.30728374       9.35523212       0.22502998      -0.11870938       0.24050699      -0.00000000
Se       0.92546365      10.48427235       9.50860911       0.10550875       0.29629277      -0.00037062      -0.00000000
Se       5.35752097       1.96198512       9.33247652      -0.28799784       0.94733902       0.15648480      -0.00000000
Se       5.17969336       6.72564096       9.41999333       0.15762572      -1.01141247      -0.08132398      -0.00000000
Se       5.04026370      10.70111663       9.35199289       0.28757094      -0.47763781      -0.01747138      -0.00000000
Se       9.16533644       2.37474350       9.59775482      -0.21389215      -0.17774679      -0.28867234      -0.00000000
Se       9.26731980       6.38316246       9.41267725      -0.17159640       0.25582796      -0.13082434      -0.00000000
Se       9.43726717      10.34183703       9.48859325      -0.03966716      -0.24352083      -0.42384726      -0.00000000
Se       3.17557826       6.64593559       1.75866741       0.21564741      -0.68910814      -0.58231470      -0.00000000
Se       3.04383910      10.59135720       1.60939288       0.14118804      -0.03036051       0.02589665      -0.00000000
Se       7.25160501       2.23694373       1.77700233       0.10928292      -0.08847047      -0.87169244      -0.00000000
Se       7.12528782       6.24477403       1.61045152      -0.26126716       0.51332783       0.40053324      -0.00000000
Se       7.29356539      10.57120697       1.57166448       0.33413207       0.24696275      -0.24344510      -0.00000000
Se      11.35944039       6.25111165       1.39933840       0.24736592      -0.12679439       0.42314354      -0.00000000
Se       9.32457502       8.11941091       3.99554757      -0.40322483       0.16397747       0.51340281      -0.00000000
72
Lattice="12.45534717841292 -4.8069875505e-06 1.4512451049e-06 -4.8192969239e-06 12.487240535323503 -1.7502031919e-06 1.6570225209e-06 -1.9932667736e-06 11.047748327608614" Properties=species:S:1:pos:R:3:forces:R:3:magmoms:R:1 energy=-300.87471306 stress="-0.006153437774592698 -0.0004611066160927469 -0.0005433036587223181 -0.0004611066160927469 0.0016925228372424894 0.0016656922247857084 -0.0005433036587223181 0.0016656922247857084 -0.009675943961945498" dipole="_JSON [[0.0, 0.0, 0.0]]" magmom=0.0016669 free_energy=-300.87471306 pbc="T T T"
Ge       0.81061325       0.42687449       1.52253166       0.15219364      -0.07184001       0.32400404       0.00000000
Ge       2.59923035      10.41119337       4.13581072      -0.02395202       0.50624999      -0.63103524       0.00000000
Ge       6.79914757       2.29071277       4.14570855       0.31922777      -0.39909300      -0.06121627       0.00000000
Ge       7.11528199       6.81936212       4.08357263       0.14714431      -0.37401789      -0.02935780       0.00000000
Ge       6.99321924      10.63725563       4.06628490      -0.01036212       0.19176214      -0.46108003       0.00000000
Ge      11.14277989       2.07252255       4.02560232      -0.35739517       0.55211641      -0.11203993      -0.00000000
Ge      11.00767700       6.37774798       4.18933840      -0.44872551      -0.33049241       0.05788149       0.00000000
Ge      11.30036150      10.84944569       4.04391401      -0.39906465       0.14789047       0.57027496       0.00000000
Ge       0.62859743       1.93957812       7.00126528      -0.03564053       0.32571456       0.10899327      -0.00000000
Ge       0.72677245       6.27401230       7.05253914       0.34177881      -0.37284536      -0.20666964       0.00000000
Ge       0.94655116      10.17812547       6.76222325      -0.28170940      -0.19838716       0.29550091       0.00000000
Ge       4.78822735       1.96964874       6.91902127      -0.00488753       0.51972947      -0.32589991      -0.00000000
Ge       5.03192908       5.92932212       6.77105146      -0.36463106      -0.07010070       0.43146758       0.00000000
Ge       4.69034138      10.64284137       6.93554390      -0.07716403      -0.16155183       0.05307268       0.00000000
Ge       9.32186238       1.84289462       7.07507386      -0.20291720      -0.46162496      -1.31712945      -0.00000000
Ge       8.77032449       6.43749976       6.92817786      -0.00741151      -0.10383736       0.10905932       0.00000000
Ge       2.70919248       6.60541099       4.13118649      -0.00228825      -0.26274597      -0.18147541       0.00000000
Ge       2.92207665       2.53435870       4.03053715       0.00919132       0.04012212       0.39088641      -0.00000000
Ge       9.12997971      10.18825016       6.98920872       0.48655530       0.92050620      -0.53906033       0.00000000
Ge      11.16007609       8.27202248       9.56585273       0.07118295       0.09172841      -0.19894144       0.00000000
Ge      11.19527869      12.22941610       9.75849717       0.23724360      -0.38628657      -0.40383335       0.00000000
Ge       0.80094235       4.45421130       1.52618117       0.09376974      -0.30011076      -0.40009810       0.00000000
Ge       0.51619709       8.31701632       1.38423034       0.28589172       0.31820049      -0.30894604       0.00000000
Ge       4.85745861       0.17558683       1.56093710      -0.37291925      -0.25555375      -0.11071508       0.00000000
Ge       4.94569909       4.69233746       1.39299822       0.59316861      -0.37189597      -0.08814589       0.00000000
Ge       8.96307204       0.19185936       1.36626637       0.44546611       0.45482561       0.40147468       0.00000000
Ge       8.81618966       4.05239578       1.56363415       0.31331485       0.75057420       0.17611539       0.00000000
Ge       4.86239187       8.71649733       1.24731690      -0.39239072      -0.07203902       0.32869035       0.00000000
Ge       2.85085510       4.09627430       9.62240926       0.20625543       0.36284308       0.45747620       0.00000000
Ge       2.86915710       8.14137997       9.60109358       0.18248803      -0.10197997       0.03803542       0.00000000
Ge       2.63679242      12.65217706       9.68067514       0.13571840      -0.28752733      -0.18965058       0.00000000
Ge       6.98390484       4.20774946       9.47818200      -0.14051014      -0.09750437      -0.06762362      -0.00000000
Ge       6.66290926       8.69276664       9.60503008       0.32080693      -0.79788580       0.26711212       0.00000000
Ge       6.87266272      12.66505546       9.58534861      -0.16191732      -0.15058728      -0.33501649       0.00000000
Ge      10.96612252       4.17620514       9.65874125      -0.01033764       0.20607952      -0.13782775      -0.00000000
Ge       9.39174399       8.81628972       1.51780109      -0.43726844       0.01793762      -0.02772142       0.00000000
Se      11.28384755       0.00206058       7.19460108      -0.01819209       0.60164894       0.28219048      -0.00000000
Se       3.03951784       4.16038135       7.16252332       0.47856824      -0.10930202      -0.87675141      -0.00000000
Se       2.95242459       8.53712053       7.08065452       0.28287303       0.13104540      -0.13485367      -0.00000000
Se       7.34430048      -0.15737447       7.06521885       0.21287434       0.57081938       0.30405916      -0.00000000
Se       7.06416089       4.33456945       6.94732479       0.33656453       0.39279715       0.20095939      -0.00000000
Se       7.19516362       8.73193078       7.11269909      -0.64011865      -1.34028740      -0.16823782      -0.00000000
Se      11.61691844       4.22136773       7.18622299      -0.55438035      -0.14064869      -0.13871638      -0.00000000
Se       9.31491524       0.22770856       4.02451762       0.33054655      -0.28012687      -0.58555440      -0.00000000
Se       0.81125162       0.04904900       4.17470384       0.44851381      -0.21447113      -0.68048142      -0.00000000
Se       1.06215701       4.43939836       3.98482019       0.35422724      -0.02073653       0.38676637      -0.00000000
Se       0.86799559       8.47491865       3.88728212       0.24097690      -0.26122077       0.20604375      -0.00000000
Se       5.20496804       0.07496228       4.04452598      -0.04392433      -0.05278293       0.01380660      -0.00000000
Se       5.04795450       4.10159157       3.91443384      -0.42392798       0.31424346      -0.01013015      -0.00000000
Se       5.32733796       8.59665135       3.79455184      -0.42674740       0.30496663      -0.12023925      -0.00000000
Se       2.96477039       0.21589951       7.09748235       0.16996132      -0.37632902       0.20105048      -0.00000000
Se      11.50491330       8.25156913       6.98915596      -0.11944983       0.44884501       0.34412497      -0.00000000
Se      11.36172606      10.50655425       1.57568032       0.02630958      -0.25678737      -0.46555229      -0.00000000
Se       2.92002170       1.95964096       1.59172835       0.21772684       0.27612837      -0.19930563      -0.00000000
Se      11.52405186       2.30762343       1.47555908      -0.16346495       0.13995004       0.39974270      -0.00000000
Se       9.28434658       4.15493197       4.09250458       0.30218359       0.09437854      -0.32937662      -0.00000000
Se       1.10422905       2.22508224       9.56129274      -0.62105221      -0.29880923      -0.22247985      -0.00000000
Se       1.12707773       6.24591225       9.52502193      -0.18692213       0.09227913       0.21564024      -0.00000000
Se       1.00451747      10.60795066       9.27476313      -0.35530632       0.14651431       0.39651911      -0.00000000
Se       5.12116854       2.30946654       9.36343197       0.43177051      -0.58465967       0.49559142      -0.00000000
Se       5.00586144       6.33616042       9.39784670       0.27744617       0.66290724      -0.31206005      -0.00000000
Se       5.06945907      10.59815183       9.46257231      -0.26702708       0.59054687       0.00889289      -0.00000000
Se       9.04745888       2.36677952       9.37820583       0.21861692       0.05935869       1.26257149      -0.00000000
Se       9.45245665       6.37420250       9.44699958      -0.51195746      -0.21012176      -0.13773668      -0.00000000
Se       9.39487315      10.31582194       9.44237109       0.24503177      -0.01568892       0.75969236      -0.00000000
Se       3.17288511       6.40850037       1.53636106      -0.34324745       0.90463991       0.32433217      -0.00000000
Se       3.01588249      10.62574288       1.49064679       0.35853506      -0.36508192       0.60426093      -0.00000000
Se       7.19447724       2.12215859       1.54738421      -0.31706455      -0.20364301       0.14382317      -0.00000000
Se       7.07368269       6.23218077       1.61921016       0.25216797      -0.25915592      -0.07589236      -0.00000000
Se       7.44163362      10.69159648       1.38508471      -0.42015356      -0.59323188       0.61513315      -0.00000000
Se      11.45957594       6.25922756       1.68091523      -0.60874135       0.26341676      -0.23524857      -0.00000000
Se       9.21520142       8.41151354       4.06968205       0.22687828      -0.18977361      -0.34914533      -0.00000000
72
Lattice="12.467243138642921 -4.8115786496e-06 1.4526311726e-06 -4.8206725967e-06 12.490805029779844 -1.750702789e-06 1.6593555948e-06 -1.9960732767e-06 11.063303465740667" Properties=species:S:1:pos:R:3:forces:R:3:magmoms:R:1 energy=-300.49598374 stress="-0.008935647795716482 -0.0016678054000474406 -0.00021617751470312803 -0.0016678054000474406 -0.003407382949623927 -0.00021162076365257622 -0.00021617751470312803 -0.00021162076365257622 -0.010031967238402485" dipole="_JSON [[0.0, 0.0, 0.0]]" magmom=0.0016955 free_energy=-300.49598374 pbc="T T T"
Ge       0.73106022       0.57315746       1.36389332       0.34866263      -0.01935888       0.03249503      -0.00000000
Ge       2.60794862      10.38109032       4.02858246      -0.07750987       0.51672978      -0.28066745       0.00000000
Ge       6.97805665       1.91944620       4.07635681      -0.21554461       0.35548633      -0.11030534       0.00000000
Ge       7.08242398       6.61769642       4.04312886       0.24789613      -0.36897030      -0.03994364       0.00000000
Ge       6.75423079      10.64625064       4.27631041       0.52607416      -0.04025876      -0.47875989       0.00000000
Ge      11.05530449       2.44487896       4.06535757      -0.09781200      -0.01967045      -0.48210561       0.00000000
Ge      10.97582333       6.69302722       4.02383599      -0.27448521      -0.35321811       0.10729956       0.00000000
Ge      11.11461113      10.93760128       4.11794765       0.42450887      -0.02364683      -0.09249698       0.00000000
Ge       0.46784557       2.14895785       6.70230475       0.55887115       0.15709434       0.24853630       0.00000000
Ge       0.74022058       6.31277831       6.91361735       0.29609780       0.08602964      -0.60324755       0.00000000
Ge       0.74070380      10.19127190       7.04683321       0.48676490       0.22345586       0.06717063       0.00000000
Ge       4.80993304       1.98192705       7.15547722       0.13093977       0.41902638       0.02600738       0.00000000
Ge       5.18434628       5.87752207       7.06595971      -0.38467885       0.20047244       0.25746807       0.00000000
Ge       4.63935980      10.62122949       7.26180971       0.34009029      -0.10331935      -0.53112266       0.00000000
Ge       9.33020661       1.79470974       7.02041732      -0.25597909       0.20519294      -0.17294209       0.00000000
Ge       8.76776291       6.21756074       7.11583146       0.16433998       0.10827881       0.03216796       0.00000000
Ge       2.79742105       6.40497402       4.01519348      -0.04732991       0.28480915       0.16771156      -0.00000000
Ge       3.03489799       2.55362901       4.13835865      -0.20974977       0.25633765       0.26221914      -0.00000000
Ge       8.81320937      10.49693306       6.81748035       0.19010984      -0.43017026      -0.46055239       0.00000000
Ge      11.04475007       8.28237678       9.74508237      -0.00692730      -0.22374819      -0.51006086       0.00000000
Ge      11.24148340      12.31785030       9.63322714       0.06678685       0.19535980      -0.09040516       0.00000000
Ge       0.73841112       4.51938259       1.40575260       0.39887305      -0.25546749       0.02764057      -0.00000000
Ge       0.63343437       8.38867404       1.42569977       0.13945883       0.35035407       0.04275974      -0.00000000
Ge       4.64478052       0.01773808       1.26978023       0.29272142       0.13872323       0.30237626      -0.00000000
Ge       4.95017787       4.47208964       1.49237377       0.02228554       0.36359713      -1.12385365      -0.00000000
Ge       9.07832851       0.35072156       1.36306669      -0.02941683      -0.54356980      -0.16300445       0.00000000
Ge       8.75429527       4.07198557       1.53180874       0.15310609       0.35595937      -0.51369207       0.00000000
Ge       4.92646516       8.57791656       1.51139989       0.18358564       0.18020297      -0.18430017      -0.00000000
Ge       2.88304828       4.10857182       9.76486905       0.52732426       0.25960594      -0.23520260      -0.00000000
Ge       2.85880104       8.02268886       9.69272839       0.46009502      -0.08108493      -0.00622853      -0.00000000
Ge       2.65543745      12.84448851       9.45649105       0.04674080      -0.40748606       0.41551940      -0.00000000
Ge       7.13303101       3.76415641       9.69531876      -0.69719188       0.27197173       0.57864199      -0.00000000
Ge       6.99573162       8.32541447       9.64938006      -0.55895622      -0.25687713       0.16422631      -0.00000000
Ge       7.23049805      12.07729375       9.63428820       0.48715704       1.05145028       0.22628114       0.00000000
Ge      11.01956793       4.19674276       9.63788998       0.33524598       0.33215043      -0.00562163       0.00000000
Ge       9.29018703       8.96247159       1.22704244      -0.55661461       0.22660260       0.21311058       0.00000000
Se      11.33558036       0.13645512       7.01765836      -0.16910838       0.19520171       0.27868081      -0.00000000
Se       3.22196558       4.18593952       7.18512441       0.21281181      -0.24492714      -0.01243231      -0.00000000
Se       2.98100929       8.68591529       7.22297422      -0.15837790      -0.01475848      -0.02198118      -0.00000000
Se       7.33692325       0.09992818       7.08877961      -0.07249884      -0.00810796      -0.04666178      -0.00000000
Se       7.10036960       4.16689722       7.27286896       0.27606169       0.34874921      -0.71842987      -0.00000000
Se       7.11746870       8.45005021       7.14000069       0.23105192      -0.06249884      -0.02621822      -0.00000000
Se      11.58667054       4.35712731       7.11220381      -0.88560553      -0.19724106      -0.14157062      -0.00000000
Se       9.27488982       0.29582807       3.89297660       0.44293071       0.34955268       0.21876191      -0.00000000
Se       0.87581304      -0.03627875       3.84966530      -0.23078890      -0.18049524       0.18535065      -0.00000000
Se       1.04979582       4.51569709       3.93487272       0.29216476      -0.46730259      -0.04363482      -0.00000000
Se       0.91393734       8.44624064       3.98639919       0.10811127      -0.23077368      -0.13897551      -0.00000000
Se       5.19658039       0.08303668       3.90276113      -0.48648718      -0.00712156       0.00653721      -0.00000000
Se       5.09434332       4.19726285       3.85546774      -0.12103821      -0.39383692       1.29706149      -0.00000000
Se       5.36823735       8.47434447       4.02740161      -0.81928329       0.40889451      -0.05757248      -0.00000000
Se       2.98642685       0.17568350       6.98825511      -0.11938579      -0.12307348      -0.00635084      -0.00000000
Se      11.50286613       8.35158441       7.12265374      -0.39168868      -0.38697945       0.47146889      -0.00000000
Se      11.25703741      10.57788018       1.57350476       0.14037812      -0.42391653       0.03903292      -0.00000000
Se       2.99252375       1.99999793       1.69541431      -0.36610502       0.05624701      -0.44341505      -0.00000000
Se      11.50453383       2.53911579       1.37599345      -0.11185172      -0.32925611       0.83955938      -0.00000000
Se       9.36519167       4.34410558       3.92941268       0.00840209      -0.01620774       0.51649978      -0.00000000
Se       1.14578099       2.37632985       9.37311154      -0.98913918      -0.60233899      -0.27823432      -0.00000000
Se       1.17590904       6.16865808       9.31620503      -0.21831132       0.22726733       0.88342408      -0.00000000
Se       0.80663300      10.83411929       9.54401727       0.30241666      -0.39627581      -0.11105363      -0.00000000
Se       5.12328531       1.99071448       9.69676287       0.34620376       0.16037203      -0.33297781      -0.00000000
Se       5.06989850       6.31079608       9.66235494       0.28126844       0.74059387      -0.59378788      -0.00000000
Se       5.30845558      10.66251652       9.70623921      -0.74836753      -1.04092689      -0.11454313      -0.00000000
Se       9.26047185       2.40120408       9.52259807       0.22616288      -0.81715028      -0.16685784      -0.00000000
Se       9.34047743       6.26629142       9.65772461      -0.16846936       0.41105474      -0.38439897      -0.00000000
Se       9.45287497      10.45329860       9.28845629      -0.08650398      -0.31703040       0.42684388      -0.00000000
Se       3.19416212       6.66283131       1.48834256      -0.23360015      -0.44301795       0.21493330      -0.00000000
Se       3.09928142      10.46745826       1.46312249      -0.23921562      -0.30359474       0.48262444      -0.00000000
Se       7.16932497       1.99908487       1.50332513      -0.34057754       0.50076741       0.32822204      -0.00000000
Se       7.06283059       6.06076110       1.54764908      -0.06099550       0.09420335       0.14609086      -0.00000000
Se       7.32188034      10.80300434       1.45836165       0.50513383      -0.26457360       0.49112189      -0.00000000
Se      11.51312394       6.36650056       1.54415816      -0.62629030       0.35373064      -0.13074985      -0.00000000
Se       8.96139062       8.35729976       3.74426898       0.85505206       0.01272660      -0.14348629      -0.00000000
72
Lattice="12.471102577179323 -4.8130681523e-06 1.4530808583e-06 -4.8213916329e-06 12.492668118564662 -1.7509639183e-06 1.6601089319e-06 -1.9969794815e-06 11.068326136187212" Properties=species:S:1:pos:R:3:forces:R:3:magmoms:R:1 energy=-301.22482729 stress="-0.003028848840383728 -0.0001962889333904828 -0.00018584873610958137 -0.0001962889333904828 -2.2378175748250193e-05 -0.0003453114861479821 -0.00018584873610958137 -0.0003453114861479821 -0.010099593009864497" dipole="_JSON [[0.0, 0.0, 0.0]]" magmom=0.001734 free_energy=-301.22482729 pbc="T T T"
Ge       0.83538729       0.50043599       1.38554573      -0.00975611       0.01210231       0.04132169       0.00000000
Ge       2.58099966      10.54384717       4.02051385       0.29634305      -0.22774857       0.28445082       0.00000000
Ge       6.92498157       2.06677841       4.07514760      -0.28304129       0.20596437      -0.12920872       0.00000000
Ge       7.17657185       6.70265066       3.95528955       0.01494688       0.03467541       0.14383909       0.00000000
Ge       6.77708772      10.50062382       4.18416558       0.02648272       0.24384914      -0.03690034       0.00000000
Ge      11.12295072       2.42538315       3.80211301       0.19453686      -0.01081658       1.20034771       0.00000000
Ge      11.04252525       6.62357604       4.18124818      -0.07255250      -0.38296032      -0.16867878      -0.00000000
Ge      11.24602953      11.00409716       4.12920573      -0.10458335      -0.16777975       0.03820011      -0.00000000
Ge       0.81358891       2.11835402       6.68802311      -0.56580380       0.13751168      -0.09933838       0.00000000
Ge       0.81453343       6.30087217       6.99828147      -0.42170779      -0.02951469       0.61724599      -0.00000000
Ge       0.85699884      10.30919447       6.89758442      -0.09426812      -0.37762643       0.09120357       0.00000000