 running  128 mpi-ranks, with    1 threads/rank, on    2 nodes
 distrk:  each k-point on   64 cores,    2 groups
 distr:  one band on    4 cores,   16 groups
 vasp.6.4.2 20Jul23 (build Oct 12 2023 10:31:02) complex                         
 POSCAR found type information on POSCAR GeSe
 POSCAR found :  2 types and       8 ions
 Reading from existing POTCAR
 scaLAPACK will be used
 Reading from existing POTCAR
 LDA part: xc-table for Pade appr. of Perdew
 POSCAR, INCAR and KPOINTS ok, starting setup
 FFT: planning ... GRIDC
 FFT: planning ... GRID_SOFT
 FFT: planning ... GRID
 WAVECAR not read
 entering main loop
       N       E                     dE             d eps       ncg     rms          rms(c)
DAV:   1     0.131800604441E+03    0.13180E+03   -0.12841E+04  2560   0.771E+02
DAV:   2    -0.251485891045E+02   -0.15695E+03   -0.15208E+03  3680   0.138E+02
DAV:   3    -0.341510059512E+02   -0.90024E+01   -0.89811E+01  3296   0.384E+01
DAV:   4    -0.342145030479E+02   -0.63497E-01   -0.63490E-01  3088   0.371E+00
DAV:   5    -0.342149041445E+02   -0.40110E-03   -0.40109E-03  3248   0.290E-01    0.637E+00
DAV:   6    -0.338048066430E+02    0.41010E+00   -0.86230E-01  3056   0.310E+00    0.401E+00
DAV:   7    -0.337915985907E+02    0.13208E-01   -0.23792E-01  2864   0.174E+00    0.138E+00
DAV:   8    -0.337907672473E+02    0.83134E-03   -0.22414E-02  2944   0.577E-01    0.186E-01
DAV:   9    -0.337910362724E+02   -0.26903E-03   -0.40222E-03  3136   0.269E-01    0.682E-02
DAV:  10    -0.337911728170E+02   -0.13654E-03   -0.36472E-04  2976   0.815E-02    0.234E-02
DAV:  11    -0.337912002464E+02   -0.27429E-04   -0.43294E-05  2944   0.293E-02    0.125E-02
DAV:  12    -0.337912012809E+02   -0.10345E-05   -0.73615E-06  3312   0.115E-02    0.263E-03
DAV:  13    -0.337912019281E+02   -0.64720E-06   -0.10224E-06  1536   0.452E-03
   1 F= -.33791202E+02 E0= -.33791202E+02  d E =-.139845E-11
