 running  256 mpi-ranks, with    1 threads/rank, on    7 nodes
 distrk:  each k-point on  128 cores,    2 groups
 distr:  one band on    4 cores,   32 groups
 vasp.6.4.1 05Apr23 (build May 18 2023 13:19:41) complex                         
 POSCAR found type information on POSCAR C S 
 POSCAR found :  2 types and     365 ions
 Reading from existing POTCAR
 scaLAPACK will be used
 Reading from existing POTCAR
 -----------------------------------------------------------------------------
|                                                                             |
|               ----> ADVICE to this user running VASP <----                  |
|                                                                             |
|     You have a (more or less) 'large supercell' and for larger cells it     |
|     might be more efficient to use real-space projection operators.         |
|     Therefore, try LREAL= Auto in the INCAR file.                           |
|     Mind: If you want to do very accurate calculations, keep the            |
|     reciprocal projection scheme (i.e. LREAL=.FALSE.).                      |
|                                                                             |
 -----------------------------------------------------------------------------

 LDA part: xc-table for Pade appr. of Perdew
 POSCAR, INCAR and KPOINTS ok, starting setup
 FFT: planning ... GRIDC
 FFT: planning ... GRID_SOFT
 FFT: planning ... GRID
 WAVECAR not read
 WARNING: random wavefunctions but no delay for mixing, default for NELMDL
 entering main loop
       N       E                     dE             d eps       ncg     rms          rms(c)
DAV:   1     0.130949837840E+05    0.13095E+05   -0.45130E+05  4544   0.932E+02
DAV:   2     0.665350115850E+02   -0.13028E+05   -0.12248E+05  5312   0.239E+02
DAV:   3    -0.335725452370E+04   -0.34238E+04   -0.33793E+04  4544   0.130E+02
DAV:   4    -0.353845542721E+04   -0.18120E+03   -0.17864E+03  4416   0.387E+01
DAV:   5    -0.354329195602E+04   -0.48365E+01   -0.47835E+01  4768   0.560E+00    0.742E+01
DAV:   6    -0.337360253732E+04    0.16969E+03   -0.16276E+02  4000   0.117E+01    0.392E+01
DAV:   7    -0.331176165779E+04    0.61841E+02   -0.19920E+02  4096   0.127E+01    0.706E+00
DAV:   8    -0.331128596571E+04    0.47569E+00   -0.72998E+00  4288   0.292E+00    0.193E+00
DAV:   9    -0.331093743804E+04    0.34853E+00   -0.11794E+00  4160   0.929E-01    0.891E-01
DAV:  10    -0.331093759600E+04   -0.15796E-03   -0.12609E-01  5056   0.353E-01    0.503E-01
DAV:  11    -0.331095481043E+04   -0.17214E-01   -0.48455E-02  3936   0.208E-01    0.299E-01
DAV:  12    -0.331098747316E+04   -0.32663E-01   -0.45560E-02  3968   0.164E-01    0.162E-01
DAV:  13    -0.331101645982E+04   -0.28987E-01   -0.80735E-03  3936   0.807E-02    0.965E-02
DAV:  14    -0.331104598815E+04   -0.29528E-01   -0.36778E-03  3968   0.530E-02    0.552E-02
DAV:  15    -0.331108247121E+04   -0.36483E-01   -0.35190E-03  3968   0.390E-02    0.360E-02
DAV:  16    -0.331109672663E+04   -0.14255E-01   -0.11368E-03  4064   0.242E-02    0.180E-02
DAV:  17    -0.331110428467E+04   -0.75580E-02   -0.46577E-04  3968   0.139E-02    0.973E-03
DAV:  18    -0.331110732186E+04   -0.30372E-02   -0.12162E-04  4096   0.778E-03    0.624E-03
DAV:  19    -0.331110921881E+04   -0.18969E-02   -0.60972E-05  3776   0.566E-03    0.399E-03
DAV:  20    -0.331111013385E+04   -0.91505E-03   -0.39934E-05  3424   0.366E-03    0.251E-03
DAV:  21    -0.331111046817E+04   -0.33431E-03   -0.83986E-06  3328   0.245E-03    0.133E-03
DAV:  22    -0.331111056277E+04   -0.94600E-04   -0.99361E-07  3040   0.111E-03    0.951E-04
DAV:  23    -0.331111060916E+04   -0.46395E-04    0.42540E-07  2592   0.848E-04    0.443E-04
DAV:  24    -0.331111064093E+04   -0.31767E-04    0.39851E-07  2528   0.614E-04    0.496E-04
DAV:  25    -0.331111065559E+04   -0.14664E-04    0.66172E-07  2432   0.543E-04    0.183E-04
DAV:  26    -0.331111066634E+04   -0.10744E-04    0.66464E-07  2464   0.362E-04    0.351E-04
DAV:  27    -0.331111067173E+04   -0.53959E-05    0.73372E-07  2208   0.390E-04    0.126E-04
DAV:  28    -0.331111067686E+04   -0.51230E-05    0.73445E-07  2240   0.200E-04    0.177E-04
DAV:  29    -0.331111067805E+04   -0.11988E-05    0.75488E-07  2368   0.147E-04    0.348E-05
DAV:  30    -0.331111067864E+04   -0.58790E-06    0.75585E-07  2112   0.868E-05
   1 F= -.33251617E+04 E0= -.33251617E+04  d E =-.518665E-14
 writing wavefunctions
 PROFILE, used timers:     335
