 running  160 mpi-ranks, with    1 threads/rank, on   10 nodes
 distrk:  each k-point on   80 cores,    2 groups
 distr:  one band on    5 cores,   16 groups
 vasp.6.4.2 20Jul23 (build Oct 12 2023 10:31:02) complex                         
 POSCAR found type information on POSCAR GeSe
 POSCAR found :  2 types and       8 ions
 Reading from existing POTCAR
 scaLAPACK will be used
 Reading from existing POTCAR
 LDA part: xc-table for Pade appr. of Perdew
 POSCAR, INCAR and KPOINTS ok, starting setup
 FFT: planning ... GRIDC
 FFT: planning ... GRID_SOFT
 FFT: planning ... GRID
 WAVECAR not read
 entering main loop
       N       E                     dE             d eps       ncg     rms          rms(c)
DAV:   1     0.163447722449E+03    0.16345E+03   -0.15884E+04  2560   0.104E+03
DAV:   2    -0.226432933997E+02   -0.18609E+03   -0.18038E+03  3712   0.155E+02
DAV:   3    -0.339967264695E+02   -0.11353E+02   -0.11324E+02  3232   0.443E+01
DAV:   4    -0.340857731186E+02   -0.89047E-01   -0.89022E-01  3296   0.444E+00
DAV:   5    -0.340863417856E+02   -0.56867E-03   -0.56861E-03  3264   0.362E-01    0.647E+00
DAV:   6    -0.336914232548E+02    0.39492E+00   -0.77273E-01  3072   0.299E+00    0.406E+00
DAV:   7    -0.336806592256E+02    0.10764E-01   -0.24838E-01  3408   0.176E+00    0.130E+00
DAV:   8    -0.336790950521E+02    0.15642E-02   -0.26768E-02  3024   0.621E-01    0.172E-01
DAV:   9    -0.336793310768E+02   -0.23602E-03   -0.38241E-03  3216   0.268E-01    0.634E-02
DAV:  10    -0.336794450435E+02   -0.11397E-03   -0.30768E-04  3072   0.771E-02    0.229E-02
DAV:  11    -0.336794749218E+02   -0.29878E-04   -0.41988E-05  3232   0.295E-02    0.120E-02
DAV:  12    -0.336794756773E+02   -0.75544E-06   -0.66882E-06  3216   0.106E-02
   1 F= -.33679476E+02 E0= -.33679476E+02  d E =-.812557E-13
