 running  128 mpi-ranks, with    1 threads/rank, on    2 nodes
 distrk:  each k-point on   64 cores,    2 groups
 distr:  one band on    8 cores,    8 groups
 vasp.6.4.2 20Jul23 (build Oct 12 2023 10:31:02) complex                         
 POSCAR found type information on POSCAR GeSe
 POSCAR found :  2 types and      72 ions
 Reading from existing POTCAR
 -----------------------------------------------------------------------------
|                                                                             |
|           W    W    AA    RRRRR   N    N  II  N    N   GGGG   !!!           |
|           W    W   A  A   R    R  NN   N  II  NN   N  G    G  !!!           |
|           W    W  A    A  R    R  N N  N  II  N N  N  G       !!!           |
|           W WW W  AAAAAA  RRRRR   N  N N  II  N  N N  G  GGG   !            |
|           WW  WW  A    A  R   R   N   NN  II  N   NN  G    G                |
|           W    W  A    A  R    R  N    N  II  N    N   GGGG   !!!           |
|                                                                             |
|     You use a magnetic or noncollinear calculation, but did not specify     |
|     the initial magnetic moment with the MAGMOM tag. Note that a            |
|     default of 1 will be used for all atoms. This ferromagnetic setup       |
|     may break the symmetry of the crystal, in particular it may rule        |
|     out finding an antiferromagnetic solution. Thence, we recommend         |
|     setting the initial magnetic moment manually or verifying carefully     |
|     that this magnetic setup is desired.                                    |
|                                                                             |
 -----------------------------------------------------------------------------

 scaLAPACK will be used
 Reading from existing POTCAR
 -----------------------------------------------------------------------------
|                                                                             |
|               ----> ADVICE to this user running VASP <----                  |
|                                                                             |
|     You have a (more or less) 'large supercell' and for larger cells it     |
|     might be more efficient to use real-space projection operators.         |
|     Therefore, try LREAL= Auto in the INCAR file.                           |
|     Mind: For very accurate calculation, you might also keep the            |
|     reciprocal projection scheme (i.e. LREAL=.FALSE.).                      |
|                                                                             |
 -----------------------------------------------------------------------------

 LDA part: xc-table for Pade appr. of Perdew
 -----------------------------------------------------------------------------
|                                                                             |
|           W    W    AA    RRRRR   N    N  II  N    N   GGGG   !!!           |
|           W    W   A  A   R    R  NN   N  II  NN   N  G    G  !!!           |
|           W    W  A    A  R    R  N N  N  II  N N  N  G       !!!           |
|           W WW W  AAAAAA  RRRRR   N  N N  II  N  N N  G  GGG   !            |
|           WW  WW  A    A  R   R   N   NN  II  N   NN  G    G                |
|           W    W  A    A  R    R  N    N  II  N    N   GGGG   !!!           |
|                                                                             |
|     The number of bands has been changed from the values supplied in        |
|     the INCAR file. This is a result of running the parallel version.       |
|     The orbitals not found in the WAVECAR file will be initialized with     |
|     random numbers, which is usually adequate. For correlated               |
|     calculations, however, you should redo the groundstate calculation.     |
|     I found NBANDS = 220. Now, NBANDS = 224.                                |
|                                                                             |
 -----------------------------------------------------------------------------

 POSCAR, INCAR and KPOINTS ok, starting setup
 FFT: planning ... GRIDC
 FFT: planning ... GRID_SOFT
 FFT: planning ... GRID
 WAVECAR not read
 WARNING: random wavefunctions but no delay for mixing, default for NELMDL
 entering main loop
       N       E                     dE             d eps       ncg     rms          rms(c)
DAV:   1     0.181217920089E+04    0.18122E+04   -0.14176E+05  7168   0.135E+03
DAV:   2    -0.644328697512E+02   -0.18766E+04   -0.18015E+04  8480   0.204E+02
DAV:   3    -0.281963434031E+03   -0.21753E+03   -0.21176E+03  8608   0.691E+01
DAV:   4    -0.289789043146E+03   -0.78256E+01   -0.77354E+01  8752   0.130E+01
DAV:   5    -0.290077254188E+03   -0.28821E+00   -0.28742E+00  9120   0.211E+00    0.289E+01
DAV:   6    -0.289376089208E+03    0.70116E+00   -0.27437E+01  8016   0.774E+00    0.171E+01
DAV:   7    -0.296682890523E+03   -0.73068E+01   -0.87822E+00  8040   0.448E+00    0.910E+00
DAV:   8    -0.299949110553E+03   -0.32662E+01   -0.17025E+00  8160   0.224E+00    0.335E+00
DAV:   9    -0.300363439116E+03   -0.41433E+00   -0.45419E-01  9024   0.104E+00    0.148E+00
DAV:  10    -0.300467429413E+03   -0.10399E+00   -0.94539E-02  8120   0.465E-01    0.734E-01
DAV:  11    -0.300499233660E+03   -0.31804E-01   -0.38720E-02  9008   0.287E-01    0.286E-01
DAV:  12    -0.300502393224E+03   -0.31596E-02   -0.44722E-03  8496   0.122E-01    0.112E-01
DAV:  13    -0.300502521495E+03   -0.12827E-03   -0.74894E-04  9760   0.414E-02    0.478E-02
DAV:  14    -0.300502541974E+03   -0.20479E-04   -0.10067E-04  8384   0.193E-02    0.188E-02
DAV:  15    -0.300502545293E+03   -0.33187E-05   -0.19588E-05  8584   0.890E-03    0.829E-03
DAV:  16    -0.300502546073E+03   -0.77952E-06   -0.18720E-06  5072   0.291E-03
   1 F= -.30050255E+03 E0= -.30050255E+03  d E =-.105898E-11  mag=     0.0003
