 vasp.6.4.2 20Jul23 (build Oct 12 2023 10:31:02) complex                         
 executed on              LinuxNV date 2025.05.28  03:11:51
 running  128 mpi-ranks, with    1 threads/rank, on    2 nodes
 distrk:  each k-point on   64 cores,    2 groups
 distr:  one band on NCORE=   4 cores,   16 groups


--------------------------------------------------------------------------------------------------------


 INCAR:
   ENCUT = 360.000000
   SIGMA = 0.050000
   EDIFF = 1.00e-06
   ALGO = Normal
   GGA = PE
   PREC = Normal
   SYSTEM = ./
   ICHARG = 2
   ISMEAR = 0
   ISPIN = 1
   ISTART = 0
   ISYM = 0
   KPAR = 2
   LMAXMIX = 4
   NELM = 100
   NPAR = 16
   LASPH = .TRUE.
   LCHARG = .FALSE.
   LWAVE = .FALSE.

 POTCAR:    PAW_PBE Ge 05Jan2001                  
 POTCAR:    PAW_PBE Se 06Sep2000                  
 POTCAR:    PAW_PBE Ge 05Jan2001                  
   VRHFIN =Ge: s2p2                                                                                 
   LEXCH  = PE                                                                                      
   EATOM  =   104.9960 eV,    7.7170 Ry                                                             
                                                                                                    
   TITEL  = PAW_PBE Ge 05Jan2001                                                                    
   LULTRA =        F    use ultrasoft PP ?                                                          
   IUNSCR =        1    unscreen: 0-lin 1-nonlin 2-no                                               
   RPACOR =    2.170    partial core radius                                                         
   POMASS =   72.610; ZVAL   =    4.000    mass and valenz                                          
   RCORE  =    2.300    outmost cutoff radius                                                       
   RWIGS  =    2.300; RWIGS  =    1.217    wigner-seitz radius (au A)                               
   ENMAX  =  173.807; ENMIN  =  130.355 eV                                                          
   ICORE  =        3    local potential                                                             
   LCOR   =        T    correct aug charges                                                         
   LPAW   =        T    paw PP                                                                      
   EAUG   =  385.843                                                                                
   DEXC   =    0.000                                                                                
   RMAX   =    2.342    core radius for proj-oper                                                   
   RAUG   =    1.300    factor for augmentation sphere                                              
   RDEP   =    2.318    radius for radial grids                                                     
   RDEPT  =    2.103    core radius for aug-charge                                                  
                                                                                                    
   Atomic configuration                                                                             
   10 entries                                                                                       
     n  l   j            E        occ.                                                              
     1  0  0.50    -10959.8463   2.0000                                                             
     2  0  0.50     -1371.6056   2.0000                                                             
     2  1  1.50     -1198.4791   6.0000                                                             
     3  0  0.50      -168.4733   2.0000                                                             
     3  1  1.50      -115.6019   6.0000                                                             
     3  2  2.50       -29.3106  10.0000                                                             
     4  0  0.50       -11.7309   2.0000                                                             
     4  1  0.50        -3.8952   2.0000                                                             
     4  2  1.50        -4.0817   0.0000                                                             
     4  3  2.50        -4.0817   0.0000                                                             
   Description                                                                                      
     l       E           TYP  RCUT    TYP  RCUT                                                     
     0    -11.7309493     23  2.300                                                                 
     0     -7.4578696     23  2.300                                                                 
     1     -3.8952261     23  2.300                                                                 
     1      6.1178114     23  2.300                                                                 
     2     -4.0817478     23  2.300                                                                 
     3     -1.3605826      7  2.300                                                                 
  local pseudopotential read in
  partial core-charges read in
  partial kinetic energy density read in
  atomic valenz-charges read in
  non local Contribution for L=            0  read in
    real space projection operators read in
  non local Contribution for L=            0  read in
    real space projection operators read in
  non local Contribution for L=            1  read in
    real space projection operators read in
  non local Contribution for L=            1  read in
    real space projection operators read in
  non local Contribution for L=            2  read in
    real space projection operators read in
    PAW grid and wavefunctions read in
 
   number of l-projection  operators is LMAX  =            5
   number of lm-projection operators is LMMAX =           13
 
 POTCAR:    PAW_PBE Se 06Sep2000                  
   VRHFIN =Se: s2p4                                                                                 
   LEXCH  = PE                                                                                      
   EATOM  =   257.1286 eV,   18.8984 Ry                                                             
                                                                                                    
   TITEL  = PAW_PBE Se 06Sep2000                                                                    
   LULTRA =        F    use ultrasoft PP ?                                                          
   IUNSCR =        1    unscreen: 0-lin 1-nonlin 2-no                                               
   RPACOR =    1.900    partial core radius                                                         
   POMASS =   78.960; ZVAL   =    6.000    mass and valenz                                          
   RCORE  =    2.100    outmost cutoff radius                                                       
   RWIGS  =    2.200; RWIGS  =    1.164    wigner-seitz radius (au A)                               
   ENMAX  =  211.555; ENMIN  =  158.666 eV                                                          
   ICORE  =        3    local potential                                                             
   LCOR   =        T    correct aug charges                                                         
   LPAW   =        T    paw PP                                                                      
   EAUG   =  446.842                                                                                
   DEXC   =    0.000                                                                                
   RMAX   =    2.147    core radius for proj-oper                                                   
   RAUG   =    1.300    factor for augmentation sphere                                              
   RDEP   =    2.177    radius for radial grids                                                     
   RDEPT  =    1.928    core radius for aug-charge                                                  
                                                                                                    
   Atomic configuration                                                                             
   10 entries                                                                                       
     n  l   j            E        occ.                                                              
     1  0  0.50    -12503.4787   2.0000                                                             
     2  0  0.50     -1606.9547   2.0000                                                             
     2  1  1.50     -1413.3140   6.0000                                                             
     3  0  0.50      -213.4885   2.0000                                                             
     3  1  1.50      -152.9538   6.0000                                                             
     3  2  2.50       -53.1221  10.0000                                                             
     4  0  0.50       -17.2865   2.0000                                                             
     4  1  0.50        -6.5110   4.0000                                                             
     4  2  2.50        -6.8029   0.0000                                                             
     4  3  2.50        -6.8029   0.0000                                                             
   Description                                                                                      
     l       E           TYP  RCUT    TYP  RCUT                                                     
     0    -17.2865377     23  2.100                                                                 
     0    -15.3094411     23  2.100                                                                 
     1     -6.5110275     23  2.100                                                                 
     1     -0.0695192     23  2.100                                                                 
     2     -6.8029130     23  2.100                                                                 
     3     -1.3605826      7  2.100                                                                 
  local pseudopotential read in
  partial core-charges read in
  partial kinetic energy density read in
  atomic valenz-charges read in
  non local Contribution for L=            0  read in
    real space projection operators read in
  non local Contribution for L=            0  read in
    real space projection operators read in
  non local Contribution for L=            1  read in
    real space projection operators read in
  non local Contribution for L=            1  read in
    real space projection operators read in
  non local Contribution for L=            2  read in
    real space projection operators read in
    PAW grid and wavefunctions read in
 
   number of l-projection  operators is LMAX  =            5
   number of lm-projection operators is LMMAX =           13
 
  PAW_PBE Ge 05Jan2001                  :
 energy of atom  1       EATOM= -104.9960
 kinetic energy error for atom=    0.0005 (will be added to EATOM!!)
  PAW_PBE Se 06Sep2000                  :
 energy of atom  2       EATOM= -257.1286
 kinetic energy error for atom=    0.0030 (will be added to EATOM!!)
 
 
 POSCAR: Ge Se
  positions in cartesian coordinates
  No initial velocities read in
 exchange correlation table for  LEXCH =        8
   RHO(1)=    0.500       N(1)  =     2000
   RHO(2)=  100.500       N(2)  =     4000
 


--------------------------------------------------------------------------------------------------------


 ion  position               nearest neighbor table
   1  0.250  0.108  0.127-   5 2.58   6 2.64   6 2.64
   2  0.750  0.608  0.373-   6 2.58   5 2.64   5 2.64
   3  0.750  0.892  0.873-   7 2.58   8 2.64   8 2.64
   4  0.250  0.392  0.627-   8 2.58   7 2.64   7 2.64
   5  0.250  0.961  0.350-   1 2.58   2 2.64   2 2.64
   6  0.750  0.461  0.150-   2 2.58   1 2.64   1 2.64
   7  0.750  0.039  0.650-   3 2.58   4 2.64   4 2.64
   8  0.250  0.539  0.850-   4 2.58   3 2.64   3 2.64
 

IMPORTANT INFORMATION: All symmetrisations will be switched off!
NOSYMM: (Re-)initialisation of all symmetry stuff for point group C_1.


----------------------------------------------------------------------------------------

                                     Primitive cell                                     

  volume of cell :     214.3485

  direct lattice vectors                    reciprocal lattice vectors
     4.050000000  0.000000000  0.000000000     0.246913580  0.000000000  0.000000000
     0.000000000  4.750000000  0.000000000     0.000000000  0.210526316  0.000000000
     0.000000000  0.000000000 11.142221000     0.000000000  0.000000000  0.089748713

  length of vectors
     4.050000000  4.750000000 11.142221000     0.246913580  0.210526316  0.089748713

  position of ions in fractional coordinates (direct lattice)
     0.250000000  0.108043587  0.127034420
     0.750000000  0.608043587  0.372965580
     0.750000000  0.891956413  0.872965580
     0.250000000  0.391956413  0.627034420
     0.250000000  0.961014047  0.349841765
     0.750000000  0.461014047  0.150158235
     0.750000000  0.038985953  0.650158235
     0.250000000  0.538985953  0.849841765

  ion indices of the primitive-cell ions
   primitive index   ion index
                 1           1
                 2           2
                 3           3
                 4           4
                 5           5
                 6           6
                 7           7
                 8           8

----------------------------------------------------------------------------------------

 
 
 KPOINTS: KPOINTS created by Atomic Simulation Env

Automatic generation of k-mesh.
 Grid dimensions read from file:
 generate k-points for:    6    6    2

 Generating k-lattice:

  Cartesian coordinates                     Fractional coordinates (reciprocal lattice)
     0.041152263  0.000000000  0.000000000     0.166666667  0.000000000  0.000000000
     0.000000000  0.035087719  0.000000000     0.000000000  0.166666667  0.000000000
     0.000000000  0.000000000  0.044874357     0.000000000  0.000000000  0.500000000

  Length of vectors
     0.041152263  0.035087719  0.044874357

  Shift w.r.t. Gamma in fractional coordinates (k-lattice)
     0.000000000  0.000000000  0.000000000

 
 Subroutine IBZKPT returns following result:
 ===========================================
 
 Found     40 irreducible k-points:
 
 Following reciprocal coordinates:
            Coordinates               Weight
  0.000000  0.000000  0.000000      1.000000
  0.166667  0.000000  0.000000      2.000000
  0.333333  0.000000  0.000000      2.000000
  0.500000  0.000000  0.000000      1.000000
  0.000000  0.166667  0.000000      2.000000
  0.166667  0.166667  0.000000      2.000000
  0.166667 -0.166667  0.000000      2.000000
  0.333333  0.166667  0.000000      2.000000
  0.333333 -0.166667  0.000000      2.000000
  0.500000  0.166667  0.000000      2.000000
  0.000000  0.333333  0.000000      2.000000
  0.166667  0.333333  0.000000      2.000000
  0.166667 -0.333333  0.000000      2.000000
  0.333333  0.333333  0.000000      2.000000
  0.333333 -0.333333  0.000000      2.000000
  0.500000  0.333333  0.000000      2.000000
  0.000000  0.500000  0.000000      1.000000
  0.166667  0.500000  0.000000      2.000000
  0.333333  0.500000  0.000000      2.000000
  0.500000  0.500000  0.000000      1.000000
  0.000000  0.000000  0.500000      1.000000
  0.166667  0.000000  0.500000      2.000000
  0.333333  0.000000  0.500000      2.000000
  0.500000  0.000000  0.500000      1.000000
  0.000000  0.166667  0.500000      2.000000
  0.166667  0.166667  0.500000      2.000000
  0.166667 -0.166667  0.500000      2.000000
  0.333333  0.166667  0.500000      2.000000
  0.333333 -0.166667  0.500000      2.000000
  0.500000  0.166667  0.500000      2.000000
  0.000000  0.333333  0.500000      2.000000
  0.166667  0.333333  0.500000      2.000000
  0.166667 -0.333333  0.500000      2.000000
  0.333333  0.333333  0.500000      2.000000
  0.333333 -0.333333  0.500000      2.000000
  0.500000  0.333333  0.500000      2.000000
  0.000000  0.500000  0.500000      1.000000
  0.166667  0.500000  0.500000      2.000000
  0.333333  0.500000  0.500000      2.000000
  0.500000  0.500000  0.500000      1.000000
 
 Following cartesian coordinates:
            Coordinates               Weight
  0.000000  0.000000  0.000000      1.000000
  0.041152  0.000000  0.000000      2.000000
  0.082305  0.000000  0.000000      2.000000
  0.123457  0.000000  0.000000      1.000000
  0.000000  0.035088  0.000000      2.000000
  0.041152  0.035088  0.000000      2.000000
  0.041152 -0.035088  0.000000      2.000000
  0.082305  0.035088  0.000000      2.000000
  0.082305 -0.035088  0.000000      2.000000
  0.123457  0.035088  0.000000      2.000000
  0.000000  0.070175  0.000000      2.000000
  0.041152  0.070175  0.000000      2.000000
  0.041152 -0.070175  0.000000      2.000000
  0.082305  0.070175  0.000000      2.000000
  0.082305 -0.070175  0.000000      2.000000
  0.123457  0.070175  0.000000      2.000000
  0.000000  0.105263  0.000000      1.000000
  0.041152  0.105263  0.000000      2.000000
  0.082305  0.105263  0.000000      2.000000
  0.123457  0.105263  0.000000      1.000000
  0.000000  0.000000  0.044874      1.000000
  0.041152  0.000000  0.044874      2.000000
  0.082305  0.000000  0.044874      2.000000
  0.123457  0.000000  0.044874      1.000000
  0.000000  0.035088  0.044874      2.000000
  0.041152  0.035088  0.044874      2.000000
  0.041152 -0.035088  0.044874      2.000000
  0.082305  0.035088  0.044874      2.000000
  0.082305 -0.035088  0.044874      2.000000
  0.123457  0.035088  0.044874      2.000000
  0.000000  0.070175  0.044874      2.000000
  0.041152  0.070175  0.044874      2.000000
  0.041152 -0.070175  0.044874      2.000000
  0.082305  0.070175  0.044874      2.000000
  0.082305 -0.070175  0.044874      2.000000
  0.123457  0.070175  0.044874      2.000000
  0.000000  0.105263  0.044874      1.000000
  0.041152  0.105263  0.044874      2.000000
  0.082305  0.105263  0.044874      2.000000
  0.123457  0.105263  0.044874      1.000000
 


--------------------------------------------------------------------------------------------------------




 Dimension of arrays:
   k-points           NKPTS =     40   k-points in BZ     NKDIM =     40   number of bands    NBANDS=     32
   number of dos      NEDOS =    301   number of ions     NIONS =      8
   non local maximal  LDIM  =      5   non local SUM 2l+1 LMDIM =     13
   total plane-waves  NPLWV =  25920
   max r-space proj   IRMAX =      1   max aug-charges    IRDMAX=   6771
   dimension x,y,z NGX =    20 NGY =   24 NGZ =   54
   dimension x,y,z NGXF=    40 NGYF=   48 NGZF=  108
   support grid    NGXF=    40 NGYF=   48 NGZF=  108
   ions per type =               4   4
   NGX,Y,Z   is equivalent  to a cutoff of   8.21,  8.40,  8.06 a.u.
   NGXF,Y,Z  is equivalent  to a cutoff of  16.42, 16.80, 16.11 a.u.

 SYSTEM =  ./                                      
 POSCAR =  Ge Se                                   

 Startparameter for this run:
   NWRITE =      2    write-flag & timer
   PREC   = normal    normal or accurate (medium, high low for compatibility)
   ISTART =      0    job   : 0-new  1-cont  2-samecut
   ICHARG =      2    charge: 1-file 2-atom 10-const
   ISPIN  =      1    spin polarized calculation?
   LNONCOLLINEAR =      F non collinear calculations
   LSORBIT =      F    spin-orbit coupling
   INIWAV =      1    electr: 0-lowe 1-rand  2-diag
   LASPH  =      T    aspherical Exc in radial PAW
 Electronic Relaxation 1
   ENCUT  =  360.0 eV  26.46 Ry    5.14 a.u.   6.27  7.35 17.24*2*pi/ulx,y,z
   ENINI  =  360.0     initial cutoff
   ENAUG  =  446.8 eV  augmentation charge cutoff
   NELM   =    100;   NELMIN=  2; NELMDL= -5     # of ELM steps 
   EDIFF  = 0.1E-05   stopping-criterion for ELM
   LREAL  =      F    real-space projection
   NLSPLINE    = F    spline interpolate recip. space projectors
   LCOMPAT=      F    compatible to vasp.4.4
   GGA_COMPAT  = T    GGA compatible to vasp.4.4-vasp.4.6
   LMAXPAW     = -100 max onsite density
   LMAXMIX     =    4 max onsite mixed and CHGCAR
   VOSKOWN=      0    Vosko Wilk Nusair interpolation
   ROPT   =    0.00000   0.00000
 Ionic relaxation
   EDIFFG = 0.1E-04   stopping-criterion for IOM
   NSW    =      0    number of steps for IOM
   NBLOCK =      1;   KBLOCK =      1    inner block; outer block 
   IBRION =     -1    ionic relax: 0-MD 1-quasi-New 2-CG
   NFREE  =      0    steps in history (QN), initial steepest desc. (CG)
   ISIF   =      2    stress and relaxation
   IWAVPR =     10    prediction:  0-non 1-charg 2-wave 3-comb
   ISYM   =      0    0-nonsym 1-usesym 2-fastsym
   LCORR  =      T    Harris-Foulkes like correction to forces

   POTIM  = 0.5000    time-step for ionic-motion
   TEIN   =    0.0    initial temperature
   TEBEG  =    0.0;   TEEND  =   0.0 temperature during run
   SMASS  =  -3.00    Nose mass-parameter (am)
   estimated Nose-frequenzy (Omega)   =  0.10E-29 period in steps = 0.13E+47 mass=  -0.375E-27a.u.
   SCALEE = 1.0000    scale energy and forces
   NPACO  =    256;   APACO  = 10.0  distance and # of slots for P.C.
   PSTRESS=    0.0 pullay stress

  Mass of Ions in am
   POMASS =  72.61 78.96
  Ionic Valenz
   ZVAL   =   4.00  6.00
  Atomic Wigner-Seitz radii
   RWIGS  =  -1.00 -1.00
  virtual crystal weights 
   VCA    =   1.00  1.00
   NELECT =      40.0000    total number of electrons
   NUPDOWN=      -1.0000    fix difference up-down

 DOS related values:
   EMIN   =  10.00;   EMAX   =-10.00  energy-range for DOS
   EFERMI =   0.00;   METHOD = LEGACY      
   ISMEAR =     0;   SIGMA  =   0.05  broadening in eV -4-tet -1-fermi 0-gaus

 Electronic relaxation 2 (details)
   IALGO  =     38    algorithm
   LDIAG  =      T    sub-space diagonalisation (order eigenvalues)
   LSUBROT=      F    optimize rotation matrix (better conditioning)
   TURBO    =      0    0=normal 1=particle mesh
   IRESTART =      0    0=no restart 2=restart with 2 vectors
   NREBOOT  =      0    no. of reboots
   NMIN     =      0    reboot dimension
   EREF     =   0.00    reference energy to select bands
   IMIX   =      4    mixing-type and parameters
     AMIX     =   0.40;   BMIX     =  1.00
     AMIX_MAG =   1.60;   BMIX_MAG =  1.00
     AMIN     =   0.10
     WC   =   100.;   INIMIX=   1;  MIXPRE=   1;  MAXMIX= -45

 Intra band minimization:
   WEIMIN = 0.0000     energy-eigenvalue tresh-hold
   EBREAK =  0.78E-08  absolut break condition
   DEPER  =   0.30     relativ break condition  

   TIME   =   0.40     timestep for ELM

  volume/ion in A,a.u.               =      26.79       180.81
  Fermi-wavevector in a.u.,A,eV,Ry     =   0.935523  1.767883 11.907876  0.875204
  Thomas-Fermi vector in A             =   2.062440
 
 Write flags
   LWAVE        =      F    write WAVECAR
   LDOWNSAMPLE  =      F    k-point downsampling of WAVECAR
   LCHARG       =      F    write CHGCAR
   LVTOT        =      F    write LOCPOT, total local potential
   LVHAR        =      F    write LOCPOT, Hartree potential only
   LELF         =      F    write electronic localiz. function (ELF)
   LORBIT       =      0    0 simple, 1 ext, 2 COOP (PROOUT), +10 PAW based schemes


 Dipole corrections
   LMONO  =      F    monopole corrections only (constant potential shift)
   LDIPOL =      F    correct potential (dipole corrections)
   IDIPOL =      0    1-x, 2-y, 3-z, 4-all directions 
   EPSILON=  1.0000000 bulk dielectric constant

 Exchange correlation treatment:
   GGA     =    PE    GGA type
   LEXCH   =     8    internal setting for exchange type
   LIBXC   =     F    Libxc                    
   VOSKOWN =     0    Vosko Wilk Nusair interpolation
   LHFCALC =     F    Hartree Fock is set to
   LHFONE  =     F    Hartree Fock one center treatment
   AEXX    =    0.0000 exact exchange contribution

 Linear response parameters
   LEPSILON=     F    determine dielectric tensor
   LRPA    =     F    only Hartree local field effects (RPA)
   LNABLA  =     F    use nabla operator in PAW spheres
   LVEL    =     F    velocity operator in full k-point grid
   CSHIFT  =0.1000    complex shift for real part using Kramers Kronig
   OMEGAMAX=  -1.0    maximum frequency
   DEG_THRESHOLD= 0.2000000E-02 threshold for treating states as degnerate
   RTIME   =   -0.100 relaxation time in fs
  (WPLASMAI=    0.000 imaginary part of plasma frequency in eV, 0.658/RTIME)
   DFIELD  = 0.0000000 0.0000000 0.0000000 field for delta impulse in time
 
  Optional k-point grid parameters
   LKPOINTS_OPT  =     F    use optional k-point grid
   KPOINTS_OPT_MODE=     1    mode for optional k-point grid
 
 Orbital magnetization related:
   ORBITALMAG=     F  switch on orbital magnetization
   LCHIMAG   =     F  perturbation theory with respect to B field
   DQ        =  0.001000  dq finite difference perturbation B field
   LLRAUG    =     F  two centre corrections for induced B field
   LBONE     =     F  B-component reconstruction in AE one-centre
   LVGVCALC  =     T  calculate vGv susceptibility
   LVGVAPPL  =     F  apply vGv susceptibility instead of pGv for G=0

 Random number generation:
   RANDOM_GENERATOR = DEFAULT
   PCG_SEED         = not used


--------------------------------------------------------------------------------------------------------


 Static calculation
 charge density and potential will be updated during run
 non-spin polarized calculation
 Variant of blocked Davidson
 Davidson routine will perform the subspace rotation
 perform sub-space diagonalisation
    after iterative eigenvector-optimisation
 modified Broyden-mixing scheme, WC =      100.0
 initial mixing is a Kerker type mixing with AMIX =  0.4000 and BMIX =      1.0000
 Hartree-type preconditioning will be used
 using additional bands            12
 reciprocal scheme for non local part
 use partial core corrections
 calculate Harris-corrections to forces 
   (improved forces if not selfconsistent)
 use gradient corrections 
 use of overlap-Matrix (Vanderbilt PP)
 Gauss-broadening in eV      SIGMA  =   0.05


--------------------------------------------------------------------------------------------------------


  energy-cutoff  :      360.00
  volume of cell :      214.35
      direct lattice vectors                 reciprocal lattice vectors
     4.050000000  0.000000000  0.000000000     0.246913580  0.000000000  0.000000000
     0.000000000  4.750000000  0.000000000     0.000000000  0.210526316  0.000000000
     0.000000000  0.000000000 11.142221000     0.000000000  0.000000000  0.089748713

  length of vectors
     4.050000000  4.750000000 11.142221000     0.246913580  0.210526316  0.089748713


 
 k-points in units of 2pi/SCALE and weight: KPOINTS created by Atomic Simulation Env
   0.00000000  0.00000000  0.00000000       0.014
   0.04115226  0.00000000  0.00000000       0.028
   0.08230453  0.00000000  0.00000000       0.028
   0.12345679  0.00000000  0.00000000       0.014
   0.00000000  0.03508772  0.00000000       0.028
   0.04115226  0.03508772  0.00000000       0.028
   0.04115226 -0.03508772  0.00000000       0.028
   0.08230453  0.03508772  0.00000000       0.028
   0.08230453 -0.03508772  0.00000000       0.028
   0.12345679  0.03508772  0.00000000       0.028
   0.00000000  0.07017544  0.00000000       0.028
   0.04115226  0.07017544  0.00000000       0.028
   0.04115226 -0.07017544  0.00000000       0.028
   0.08230453  0.07017544  0.00000000       0.028
   0.08230453 -0.07017544  0.00000000       0.028
   0.12345679  0.07017544  0.00000000       0.028
   0.00000000  0.10526316  0.00000000       0.014
   0.04115226  0.10526316  0.00000000       0.028
   0.08230453  0.10526316  0.00000000       0.028
   0.12345679  0.10526316  0.00000000       0.014
   0.00000000  0.00000000  0.04487436       0.014
   0.04115226  0.00000000  0.04487436       0.028
   0.08230453  0.00000000  0.04487436       0.028
   0.12345679  0.00000000  0.04487436       0.014
   0.00000000  0.03508772  0.04487436       0.028
   0.04115226  0.03508772  0.04487436       0.028
   0.04115226 -0.03508772  0.04487436       0.028
   0.08230453  0.03508772  0.04487436       0.028
   0.08230453 -0.03508772  0.04487436       0.028
   0.12345679  0.03508772  0.04487436       0.028
   0.00000000  0.07017544  0.04487436       0.028
   0.04115226  0.07017544  0.04487436       0.028
   0.04115226 -0.07017544  0.04487436       0.028
   0.08230453  0.07017544  0.04487436       0.028
   0.08230453 -0.07017544  0.04487436       0.028
   0.12345679  0.07017544  0.04487436       0.028
   0.00000000  0.10526316  0.04487436       0.014
   0.04115226  0.10526316  0.04487436       0.028
   0.08230453  0.10526316  0.04487436       0.028
   0.12345679  0.10526316  0.04487436       0.014
 
 k-points in reciprocal lattice and weights: KPOINTS created by Atomic Simulation Env
   0.00000000  0.00000000  0.00000000       0.014
   0.16666667  0.00000000  0.00000000       0.028
   0.33333333  0.00000000  0.00000000       0.028
   0.50000000  0.00000000  0.00000000       0.014
   0.00000000  0.16666667  0.00000000       0.028
   0.16666667  0.16666667  0.00000000       0.028
   0.16666667 -0.16666667  0.00000000       0.028
   0.33333333  0.16666667  0.00000000       0.028
   0.33333333 -0.16666667  0.00000000       0.028
   0.50000000  0.16666667  0.00000000       0.028
   0.00000000  0.33333333  0.00000000       0.028
   0.16666667  0.33333333  0.00000000       0.028
   0.16666667 -0.33333333  0.00000000       0.028
   0.33333333  0.33333333  0.00000000       0.028
   0.33333333 -0.33333333  0.00000000       0.028
   0.50000000  0.33333333  0.00000000       0.028
   0.00000000  0.50000000  0.00000000       0.014
   0.16666667  0.50000000  0.00000000       0.028
   0.33333333  0.50000000  0.00000000       0.028
   0.50000000  0.50000000  0.00000000       0.014
   0.00000000  0.00000000  0.50000000       0.014
   0.16666667  0.00000000  0.50000000       0.028
   0.33333333  0.00000000  0.50000000       0.028
   0.50000000  0.00000000  0.50000000       0.014
   0.00000000  0.16666667  0.50000000       0.028
   0.16666667  0.16666667  0.50000000       0.028
   0.16666667 -0.16666667  0.50000000       0.028
   0.33333333  0.16666667  0.50000000       0.028
   0.33333333 -0.16666667  0.50000000       0.028
   0.50000000  0.16666667  0.50000000       0.028
   0.00000000  0.33333333  0.50000000       0.028
   0.16666667  0.33333333  0.50000000       0.028
   0.16666667 -0.33333333  0.50000000       0.028
   0.33333333  0.33333333  0.50000000       0.028
   0.33333333 -0.33333333  0.50000000       0.028
   0.50000000  0.33333333  0.50000000       0.028
   0.00000000  0.50000000  0.50000000       0.014
   0.16666667  0.50000000  0.50000000       0.028
   0.33333333  0.50000000  0.50000000       0.028
   0.50000000  0.50000000  0.50000000       0.014
 
 position of ions in fractional coordinates (direct lattice) 
   0.25000000  0.10804359  0.12703442
   0.75000000  0.60804359  0.37296558
   0.75000000  0.89195641  0.87296558
   0.25000000  0.39195641  0.62703442
   0.25000000  0.96101405  0.34984176
   0.75000000  0.46101405  0.15015824
   0.75000000  0.03898595  0.65015824
   0.25000000  0.53898595  0.84984176
 
 position of ions in cartesian coordinates  (Angst):
   1.01250000  0.51320704  1.41544559
   3.03750000  2.88820704  4.15566491
   3.03750000  4.23679296  9.72677541
   1.01250000  1.86179296  6.98655609
   1.01250000  4.56481672  3.89801426
   3.03750000  2.18981672  1.67309624
   3.03750000  0.18518328  7.24420674
   1.01250000  2.56018328  9.46912476
 


--------------------------------------------------------------------------------------------------------


 k-point   1 :   0.0000 0.0000 0.0000  plane waves:    3353
 k-point   2 :   0.1667 0.0000 0.0000  plane waves:    3323
 k-point   3 :   0.3333 0.0000 0.0000  plane waves:    3312
 k-point   4 :   0.5000 0.0000 0.0000  plane waves:    3352
 k-point   5 :   0.0000 0.1667 0.0000  plane waves:    3341
 k-point   6 :   0.1667 0.1667 0.0000  plane waves:    3326
 k-point   7 :   0.1667-0.1667 0.0000  plane waves:    3326
 k-point   8 :   0.3333 0.1667 0.0000  plane waves:    3321
 k-point   9 :   0.3333-0.1667 0.0000  plane waves:    3321
 k-point  10 :   0.5000 0.1667 0.0000  plane waves:    3314
 k-point  11 :   0.0000 0.3333 0.0000  plane waves:    3317
 k-point  12 :   0.1667 0.3333 0.0000  plane waves:    3322
 k-point  13 :   0.1667-0.3333 0.0000  plane waves:    3322
 k-point  14 :   0.3333 0.3333 0.0000  plane waves:    3314
 k-point  15 :   0.3333-0.3333 0.0000  plane waves:    3314
 k-point  16 :   0.5000 0.3333 0.0000  plane waves:    3322
 k-point  17 :   0.0000 0.5000 0.0000  plane waves:    3302
 k-point  18 :   0.1667 0.5000 0.0000  plane waves:    3320
 k-point  19 :   0.3333 0.5000 0.0000  plane waves:    3322
 k-point  20 :   0.5000 0.5000 0.0000  plane waves:    3312
 k-point  21 :   0.0000 0.0000 0.5000  plane waves:    3306
 k-point  22 :   0.1667 0.0000 0.5000  plane waves:    3340
 k-point  23 :   0.3333 0.0000 0.5000  plane waves:    3330
 k-point  24 :   0.5000 0.0000 0.5000  plane waves:    3360
 k-point  25 :   0.0000 0.1667 0.5000  plane waves:    3334
 k-point  26 :   0.1667 0.1667 0.5000  plane waves:    3328
 k-point  27 :   0.1667-0.1667 0.5000  plane waves:    3328
 k-point  28 :   0.3333 0.1667 0.5000  plane waves:    3312
 k-point  29 :   0.3333-0.1667 0.5000  plane waves:    3312
 k-point  30 :   0.5000 0.1667 0.5000  plane waves:    3324
 k-point  31 :   0.0000 0.3333 0.5000  plane waves:    3326
 k-point  32 :   0.1667 0.3333 0.5000  plane waves:    3324
 k-point  33 :   0.1667-0.3333 0.5000  plane waves:    3324
 k-point  34 :   0.3333 0.3333 0.5000  plane waves:    3324
 k-point  35 :   0.3333-0.3333 0.5000  plane waves:    3324
 k-point  36 :   0.5000 0.3333 0.5000  plane waves:    3316
 k-point  37 :   0.0000 0.5000 0.5000  plane waves:    3312
 k-point  38 :   0.1667 0.5000 0.5000  plane waves:    3292
 k-point  39 :   0.3333 0.5000 0.5000  plane waves:    3320
 k-point  40 :   0.5000 0.5000 0.5000  plane waves:    3336

 maximum and minimum number of plane-waves per node :       856      812

 maximum number of plane-waves:      3360
 maximum index in each direction: 
   IXMAX=    6   IYMAX=    7   IZMAX=   17
   IXMIN=   -6   IYMIN=   -7   IZMIN=  -17


 parallel 3D FFT for wavefunctions:
    minimum data exchange during FFTs selected (reduces bandwidth)
 parallel 3D FFT for charge:
    minimum data exchange during FFTs selected (reduces bandwidth)


 total amount of memory used by VASP MPI-rank0    39390. kBytes
=======================================================================

   base      :      30000. kBytes
   nonl-proj :       7299. kBytes
   fftplans  :        374. kBytes
   grid      :        555. kBytes
   one-center:         16. kBytes
   wavefun   :       1146. kBytes
 
     INWAV:  cpu time      0.0000: real time      0.0001
 Broyden mixing: mesh for mixing (old mesh)
   NGX = 13   NGY = 15   NGZ = 35
  (NGX  = 40   NGY  = 48   NGZ  =108)
  gives a total of   6825 points

 initial charge density was supplied:
 charge density of overlapping atoms calculated
 number of electron      40.0000000 magnetization 
 keeping initial charge density in first step


--------------------------------------------------------------------------------------------------------


 Maximum index for augmentation-charges            99 (set IRDMAX)


--------------------------------------------------------------------------------------------------------


 First call to EWALD:  gamma=   0.296
 Maximum number of real-space cells 4x 3x 2
 Maximum number of reciprocal cells 2x 2x 5

    FEWALD:  cpu time      0.0021: real time      0.0021


--------------------------------------- Ionic step        1  -------------------------------------------




--------------------------------------- Iteration      1(   1)  ---------------------------------------


    POTLOK:  cpu time      0.0064: real time      0.0067
    SETDIJ:  cpu time      0.1403: real time      0.1407
     EDDAV:  cpu time      0.2678: real time      0.2708
       DOS:  cpu time      0.0018: real time      0.0018
    --------------------------------------------
      LOOP:  cpu time      0.4162: real time      0.4200

 eigenvalue-minimisations  :  2560
 total energy-change (2. order) : 0.1319801E+03  (-0.1264888E+04)
 number of electron      40.0000000 magnetization 
 augmentation part       40.0000000 magnetization 

 Free energy of the ion-electron system (eV)
  ---------------------------------------------------
  alpha Z        PSCENC =        79.05092547
  Ewald energy   TEWEN  =     -1358.94565994
  -Hartree energ DENC   =      -150.94813601
  -exchange      EXHF   =         0.00000000
  -V(xc)+E(xc)   XCENC  =       -34.51646124
  PAW double counting   =      1193.78262552    -1080.73714043
  entropy T*S    EENTRO =        -0.00435495
  eigenvalues    EBANDS =        35.81366577
  atomic energy  EATOM  =      1448.48460880
  Solvation  Ediel_sol  =         0.00000000
  ---------------------------------------------------
  free energy    TOTEN  =       131.98007299 eV

  energy without entropy =      131.98442794  energy(sigma->0) =      131.98225046


--------------------------------------------------------------------------------------------------------




--------------------------------------- Iteration      1(   2)  ---------------------------------------


     EDDAV:  cpu time      0.3241: real time      0.3275
       DOS:  cpu time      0.0006: real time      0.0006
    --------------------------------------------
      LOOP:  cpu time      0.3247: real time      0.3281

 eigenvalue-minimisations  :  3712
 total energy-change (2. order) :-0.1568711E+03  (-0.1520126E+03)
 number of electron      40.0000000 magnetization 
 augmentation part       40.0000000 magnetization 

 Free energy of the ion-electron system (eV)
  ---------------------------------------------------
  alpha Z        PSCENC =        79.05092547
  Ewald energy   TEWEN  =     -1358.94565994
  -Hartree energ DENC   =      -150.94813601
  -exchange      EXHF   =         0.00000000
  -V(xc)+E(xc)   XCENC  =       -34.51646124
  PAW double counting   =      1193.78262552    -1080.73714043
  entropy T*S    EENTRO =        -0.00000000
  eigenvalues    EBANDS =      -121.06179749
  atomic energy  EATOM  =      1448.48460880
  Solvation  Ediel_sol  =         0.00000000
  ---------------------------------------------------
  free energy    TOTEN  =       -24.89103532 eV

  energy without entropy =      -24.89103532  energy(sigma->0) =      -24.89103532


--------------------------------------------------------------------------------------------------------




--------------------------------------- Iteration      1(   3)  ---------------------------------------


     EDDAV:  cpu time      0.3138: real time      0.3170
       DOS:  cpu time      0.0004: real time      0.0004
    --------------------------------------------
      LOOP:  cpu time      0.3142: real time      0.3174

 eigenvalue-minimisations  :  3216
 total energy-change (2. order) :-0.9191284E+01  (-0.9170276E+01)
 number of electron      40.0000000 magnetization 
 augmentation part       40.0000000 magnetization 

 Free energy of the ion-electron system (eV)
  ---------------------------------------------------
  alpha Z        PSCENC =        79.05092547
  Ewald energy   TEWEN  =     -1358.94565994
  -Hartree energ DENC   =      -150.94813601
  -exchange      EXHF   =         0.00000000
  -V(xc)+E(xc)   XCENC  =       -34.51646124
  PAW double counting   =      1193.78262552    -1080.73714043
  entropy T*S    EENTRO =        -0.00000000
  eigenvalues    EBANDS =      -130.25308184
  atomic energy  EATOM  =      1448.48460880
  Solvation  Ediel_sol  =         0.00000000
  ---------------------------------------------------
  free energy    TOTEN  =       -34.08231967 eV

  energy without entropy =      -34.08231967  energy(sigma->0) =      -34.08231967


--------------------------------------------------------------------------------------------------------




--------------------------------------- Iteration      1(   4)  ---------------------------------------


     EDDAV:  cpu time      0.3017: real time      0.3048
       DOS:  cpu time      0.0005: real time      0.0006
    --------------------------------------------
      LOOP:  cpu time      0.3023: real time      0.3054

 eigenvalue-minimisations  :  3152
 total energy-change (2. order) :-0.6640864E-01  (-0.6640252E-01)
 number of electron      40.0000000 magnetization 
 augmentation part       40.0000000 magnetization 

 Free energy of the ion-electron system (eV)
  ---------------------------------------------------
  alpha Z        PSCENC =        79.05092547
  Ewald energy   TEWEN  =     -1358.94565994
  -Hartree energ DENC   =      -150.94813601
  -exchange      EXHF   =         0.00000000
  -V(xc)+E(xc)   XCENC  =       -34.51646124
  PAW double counting   =      1193.78262552    -1080.73714043
  entropy T*S    EENTRO =        -0.00000000
  eigenvalues    EBANDS =      -130.31949048
  atomic energy  EATOM  =      1448.48460880
  Solvation  Ediel_sol  =         0.00000000
  ---------------------------------------------------
  free energy    TOTEN  =       -34.14872831 eV

  energy without entropy =      -34.14872831  energy(sigma->0) =      -34.14872831


--------------------------------------------------------------------------------------------------------




--------------------------------------- Iteration      1(   5)  ---------------------------------------


     EDDAV:  cpu time      0.3393: real time      0.3427
       DOS:  cpu time      0.0005: real time      0.0005
    CHARGE:  cpu time      0.0049: real time      0.0049
    MIXING:  cpu time      0.0008: real time      0.0008
    --------------------------------------------
      LOOP:  cpu time      0.3455: real time      0.3489

 eigenvalue-minimisations  :  3280
 total energy-change (2. order) :-0.4366056E-03  (-0.4366040E-03)
 number of electron      40.0000027 magnetization 
 augmentation part       -7.4040059 magnetization 

 Broyden mixing:
  rms(total) = 0.61871E+00    rms(broyden)= 0.61870E+00
  rms(prec ) = 0.72306E+00
  weight for this iteration     100.00

 Free energy of the ion-electron system (eV)
  ---------------------------------------------------
  alpha Z        PSCENC =        79.05092547
  Ewald energy   TEWEN  =     -1358.94565994
  -Hartree energ DENC   =      -150.94813601
  -exchange      EXHF   =         0.00000000
  -V(xc)+E(xc)   XCENC  =       -34.51646124
  PAW double counting   =      1193.78262552    -1080.73714043
  entropy T*S    EENTRO =        -0.00000000
  eigenvalues    EBANDS =      -130.31992708
  atomic energy  EATOM  =      1448.48460880
  Solvation  Ediel_sol  =         0.00000000
  ---------------------------------------------------
  free energy    TOTEN  =       -34.14916492 eV

  energy without entropy =      -34.14916492  energy(sigma->0) =      -34.14916492


--------------------------------------------------------------------------------------------------------




--------------------------------------- Iteration      1(   6)  ---------------------------------------


    POTLOK:  cpu time      0.0058: real time      0.0062
    SETDIJ:  cpu time      0.1369: real time      0.1375
     EDDAV:  cpu time      0.3189: real time      0.3218
       DOS:  cpu time      0.0006: real time      0.0006
    CHARGE:  cpu time      0.0049: real time      0.0049
    MIXING:  cpu time      0.0006: real time      0.0006
    --------------------------------------------
      LOOP:  cpu time      0.4675: real time      0.4715

 eigenvalue-minimisations  :  3024
 total energy-change (2. order) : 0.4729243E+00  (-0.1036273E+00)
 number of electron      40.0000027 magnetization 
 augmentation part       -7.3375206 magnetization 

 Broyden mixing:
  rms(total) = 0.38666E+00    rms(broyden)= 0.38666E+00
  rms(prec ) = 0.41155E+00
  weight for this iteration     100.00

 eigenvalues of (default mixing * dielectric matrix)
  average eigenvalue GAMMA=   2.0079
  2.0079

 Free energy of the ion-electron system (eV)
  ---------------------------------------------------
  alpha Z        PSCENC =        79.05092547
  Ewald energy   TEWEN  =     -1358.94565994
  -Hartree energ DENC   =      -157.67126057
  -exchange      EXHF   =         0.00000000
  -V(xc)+E(xc)   XCENC  =       -33.86440344
  PAW double counting   =      1435.82167534    -1323.07288931
  entropy T*S    EENTRO =        -0.00000000
  eigenvalues    EBANDS =      -123.47923693
  atomic energy  EATOM  =      1448.48460880
  Solvation  Ediel_sol  =         0.00000000
  ---------------------------------------------------
  free energy    TOTEN  =       -33.67624059 eV

  energy without entropy =      -33.67624059  energy(sigma->0) =      -33.67624059


--------------------------------------------------------------------------------------------------------




--------------------------------------- Iteration      1(   7)  ---------------------------------------


    POTLOK:  cpu time      0.0057: real time      0.0059
    SETDIJ:  cpu time      0.1375: real time      0.1382
     EDDAV:  cpu time      0.2758: real time      0.2785
       DOS:  cpu time      0.0006: real time      0.0006
    CHARGE:  cpu time      0.0045: real time      0.0046
    MIXING:  cpu time      0.0005: real time      0.0005
    --------------------------------------------
      LOOP:  cpu time      0.4247: real time      0.4282

 eigenvalue-minimisations  :  2848
 total energy-change (2. order) : 0.1085656E-01  (-0.2495323E-01)
 number of electron      40.0000026 magnetization 
 augmentation part       -7.3287604 magnetization 

 Broyden mixing:
  rms(total) = 0.14931E+00    rms(broyden)= 0.14931E+00
  rms(prec ) = 0.15947E+00
  weight for this iteration     100.00

 eigenvalues of (default mixing * dielectric matrix)
  average eigenvalue GAMMA=   1.7753
  1.1655  2.3851

 Free energy of the ion-electron system (eV)
  ---------------------------------------------------
  alpha Z        PSCENC =        79.05092547
  Ewald energy   TEWEN  =     -1358.94565994
  -Hartree energ DENC   =      -160.05888582
  -exchange      EXHF   =         0.00000000
  -V(xc)+E(xc)   XCENC  =       -33.43363936
  PAW double counting   =      1701.63173087    -1589.06043518
  entropy T*S    EENTRO =        -0.00000000
  eigenvalues    EBANDS =      -121.33402886
  atomic energy  EATOM  =      1448.48460880
  Solvation  Ediel_sol  =         0.00000000
  ---------------------------------------------------
  free energy    TOTEN  =       -33.66538403 eV

  energy without entropy =      -33.66538403  energy(sigma->0) =      -33.66538403


--------------------------------------------------------------------------------------------------------




--------------------------------------- Iteration      1(   8)  ---------------------------------------


    POTLOK:  cpu time      0.0058: real time      0.0060
    SETDIJ:  cpu time      0.1369: real time      0.1377
     EDDAV:  cpu time      0.2901: real time      0.2928
       DOS:  cpu time      0.0006: real time      0.0006
    CHARGE:  cpu time      0.0084: real time      0.0084
    MIXING:  cpu time      0.0006: real time      0.0006
    --------------------------------------------
      LOOP:  cpu time      0.4422: real time      0.4461

 eigenvalue-minimisations  :  2992
 total energy-change (2. order) : 0.3310932E-03  (-0.2420212E-02)
 number of electron      40.0000027 magnetization 
 augmentation part       -7.3380386 magnetization 

 Broyden mixing:
  rms(total) = 0.18188E-01    rms(broyden)= 0.18188E-01
  rms(prec ) = 0.23542E-01
  weight for this iteration     100.00

 eigenvalues of (default mixing * dielectric matrix)
  average eigenvalue GAMMA=   1.6414
  2.4568  1.2336  1.2336

 Free energy of the ion-electron system (eV)
  ---------------------------------------------------
  alpha Z        PSCENC =        79.05092547
  Ewald energy   TEWEN  =     -1358.94565994
  -Hartree energ DENC   =      -160.41864764
  -exchange      EXHF   =         0.00000000
  -V(xc)+E(xc)   XCENC  =       -33.24681039
  PAW double counting   =      1856.58611456    -1744.07764095
  entropy T*S    EENTRO =        -0.00000000
  eigenvalues    EBANDS =      -121.09794283
  atomic energy  EATOM  =      1448.48460880
  Solvation  Ediel_sol  =         0.00000000
  ---------------------------------------------------
  free energy    TOTEN  =       -33.66505294 eV

  energy without entropy =      -33.66505294  energy(sigma->0) =      -33.66505294


--------------------------------------------------------------------------------------------------------




--------------------------------------- Iteration      1(   9)  ---------------------------------------


    POTLOK:  cpu time      0.0056: real time      0.0058
    SETDIJ:  cpu time      0.1370: real time      0.1377
     EDDAV:  cpu time      0.2827: real time      0.2852
       DOS:  cpu time      0.0004: real time      0.0004
    CHARGE:  cpu time      0.0039: real time      0.0039
    MIXING:  cpu time      0.0003: real time      0.0003
    --------------------------------------------
      LOOP:  cpu time      0.4299: real time      0.4332

 eigenvalue-minimisations  :  3152
 total energy-change (2. order) :-0.1467821E-03  (-0.4383970E-03)
 number of electron      40.0000026 magnetization 
 augmentation part       -7.3350148 magnetization 

 Broyden mixing:
  rms(total) = 0.70799E-02    rms(broyden)= 0.70799E-02
  rms(prec ) = 0.82970E-02
  weight for this iteration     100.00

 eigenvalues of (default mixing * dielectric matrix)
  average eigenvalue GAMMA=   1.7608
  2.3774  2.3774  1.1442  1.1442

 Free energy of the ion-electron system (eV)
  ---------------------------------------------------
  alpha Z        PSCENC =        79.05092547
  Ewald energy   TEWEN  =     -1358.94565994
  -Hartree energ DENC   =      -160.85663498
  -exchange      EXHF   =         0.00000000
  -V(xc)+E(xc)   XCENC  =       -33.20566046
  PAW double counting   =      1866.86873728    -1754.36836700
  entropy T*S    EENTRO =        -0.00000000
  eigenvalues    EBANDS =      -120.69314889
  atomic energy  EATOM  =      1448.48460880
  Solvation  Ediel_sol  =         0.00000000
  ---------------------------------------------------
  free energy    TOTEN  =       -33.66519972 eV

  energy without entropy =      -33.66519972  energy(sigma->0) =      -33.66519972


--------------------------------------------------------------------------------------------------------




--------------------------------------- Iteration      1(  10)  ---------------------------------------


    POTLOK:  cpu time      0.0040: real time      0.0041
    SETDIJ:  cpu time      0.1370: real time      0.1373
     EDDAV:  cpu time      0.1861: real time      0.1872
       DOS:  cpu time      0.0003: real time      0.0003
    CHARGE:  cpu time      0.0035: real time      0.0035
    MIXING:  cpu time      0.0003: real time      0.0003
    --------------------------------------------
      LOOP:  cpu time      0.3313: real time      0.3328

 eigenvalue-minimisations  :  2896
 total energy-change (2. order) :-0.1644594E-03  (-0.4707938E-04)
 number of electron      40.0000026 magnetization 
 augmentation part       -7.3347385 magnetization 

 Broyden mixing:
  rms(total) = 0.23294E-02    rms(broyden)= 0.23294E-02
  rms(prec ) = 0.29341E-02
  weight for this iteration     100.00

 eigenvalues of (default mixing * dielectric matrix)
  average eigenvalue GAMMA=   1.7407
  2.7206  2.5477  1.0574  1.1890  1.1890

 Free energy of the ion-electron system (eV)
  ---------------------------------------------------
  alpha Z        PSCENC =        79.05092547
  Ewald energy   TEWEN  =     -1358.94565994
  -Hartree energ DENC   =      -160.92269590
  -exchange      EXHF   =         0.00000000
  -V(xc)+E(xc)   XCENC  =       -33.19874889
  PAW double counting   =      1861.57588298    -1749.07119857
  entropy T*S    EENTRO =        -0.00000000
  eigenvalues    EBANDS =      -120.63847813
  atomic energy  EATOM  =      1448.48460880
  Solvation  Ediel_sol  =         0.00000000
  ---------------------------------------------------
  free energy    TOTEN  =       -33.66536418 eV

  energy without entropy =      -33.66536418  energy(sigma->0) =      -33.66536418


--------------------------------------------------------------------------------------------------------




--------------------------------------- Iteration      1(  11)  ---------------------------------------


    POTLOK:  cpu time      0.0038: real time      0.0040
    SETDIJ:  cpu time      0.1251: real time      0.1254
     EDDAV:  cpu time      0.1818: real time      0.1826
       DOS:  cpu time      0.0004: real time      0.0004
    CHARGE:  cpu time      0.0038: real time      0.0038
    MIXING:  cpu time      0.0003: real time      0.0003
    --------------------------------------------
      LOOP:  cpu time      0.3152: real time      0.3164

 eigenvalue-minimisations  :  2832
 total energy-change (2. order) :-0.2581670E-04  (-0.4715387E-05)
 number of electron      40.0000026 magnetization 
 augmentation part       -7.3350690 magnetization 

 Broyden mixing:
  rms(total) = 0.13144E-02    rms(broyden)= 0.13144E-02
  rms(prec ) = 0.15286E-02
  weight for this iteration     100.00

 eigenvalues of (default mixing * dielectric matrix)
  average eigenvalue GAMMA=   1.7507
  2.6722  2.6722  1.8771  1.1225  1.1225  1.0380

 Free energy of the ion-electron system (eV)
  ---------------------------------------------------
  alpha Z        PSCENC =        79.05092547
  Ewald energy   TEWEN  =     -1358.94565994
  -Hartree energ DENC   =      -160.94338510
  -exchange      EXHF   =         0.00000000
  -V(xc)+E(xc)   XCENC  =       -33.19326984
  PAW double counting   =      1862.47942929    -1749.97475150
  entropy T*S    EENTRO =        -0.00000000
  eigenvalues    EBANDS =      -120.62328718
  atomic energy  EATOM  =      1448.48460880
  Solvation  Ediel_sol  =         0.00000000
  ---------------------------------------------------
  free energy    TOTEN  =       -33.66538999 eV

  energy without entropy =      -33.66538999  energy(sigma->0) =      -33.66538999


--------------------------------------------------------------------------------------------------------




--------------------------------------- Iteration      1(  12)  ---------------------------------------


    POTLOK:  cpu time      0.0038: real time      0.0039
    SETDIJ:  cpu time      0.1092: real time      0.1095
     EDDAV:  cpu time      0.1999: real time      0.2009
       DOS:  cpu time      0.0003: real time      0.0003
    --------------------------------------------
      LOOP:  cpu time      0.3133: real time      0.3146

 eigenvalue-minimisations  :  3216
 total energy-change (2. order) :-0.7829275E-06  (-0.9452009E-06)
 number of electron      40.0000026 magnetization 
 augmentation part       -7.3350690 magnetization 

 Free energy of the ion-electron system (eV)
  ---------------------------------------------------
  alpha Z        PSCENC =        79.05092547
  Ewald energy   TEWEN  =     -1358.94565994
  -Hartree energ DENC   =      -160.95895213
  -exchange      EXHF   =         0.00000000
  -V(xc)+E(xc)   XCENC  =       -33.19171711
  PAW double counting   =      1861.64846168    -1749.14347975
  entropy T*S    EENTRO =        -0.00000000
  eigenvalues    EBANDS =      -120.60957780
  atomic energy  EATOM  =      1448.48460880
  Solvation  Ediel_sol  =         0.00000000
  ---------------------------------------------------
  free energy    TOTEN  =       -33.66539078 eV

  energy without entropy =      -33.66539078  energy(sigma->0) =      -33.66539078


--------------------------------------------------------------------------------------------------------




 average (electrostatic) potential at core
  the test charge radii are     1.1631  1.0808
  (the norm of the test charge is              1.0000)
       1 -34.3287       2 -34.3287       3 -34.3287       4 -34.3287       5 -55.6941
       6 -55.6941       7 -55.6941       8 -55.6941
 
 
 
 E-fermi :   2.5479     XC(G=0):  -8.8259     alpha+bet : -7.8753

 Fermi energy:         2.5479399941

 k-point     1 :       0.0000    0.0000    0.0000
  band No.  band energies     occupation 
      1     -11.3772      2.00000
      2     -11.1359      2.00000
      3     -10.1805      2.00000
      4      -9.8511      2.00000
      5      -5.6210      2.00000
      6      -5.1153      2.00000
      7      -3.5364      2.00000
      8      -3.1632      2.00000
      9      -2.1511      2.00000
     10      -0.8593      2.00000
     11      -0.8245      2.00000
     12      -0.7333      2.00000
     13      -0.4134      2.00000
     14      -0.3991      2.00000
     15       0.4968      2.00000
     16       0.9646      2.00000
     17       1.0868      2.00000
     18       1.7160      2.00000
     19       1.8741      2.00000
     20       2.2852      2.00000
     21       3.7581      0.00000
     22       4.4316      0.00000
     23       4.4831      0.00000
     24       4.6092      0.00000
     25       4.9280      0.00000
     26       5.4423      0.00000
     27       5.5159      0.00000
     28       6.0262      0.00000
     29       6.9518      0.00000
     30       7.3157      0.00000
     31       7.7568      0.00000
     32       7.8408      0.00000

 k-point     2 :       0.1667    0.0000    0.0000
  band No.  band energies     occupation 
      1     -11.2183      2.00000
      2     -10.9903      2.00000
      3     -10.1080      2.00000
      4      -9.8267      2.00000
      5      -5.7470      2.00000
      6      -5.2884      2.00000
      7      -3.8192      2.00000
      8      -3.7319      2.00000
      9      -1.9775      2.00000
     10      -1.0002      2.00000
     11      -0.7847      2.00000
     12      -0.7194      2.00000
     13      -0.5494      2.00000
     14      -0.2138      2.00000
     15       0.5128      2.00000
     16       0.5464      2.00000
     17       1.1584      2.00000
     18       1.6947      2.00000
     19       1.9279      2.00000
     20       2.1236      2.00000
     21       3.8852      0.00000
     22       4.3866      0.00000
     23       4.7406      0.00000
     24       5.0994      0.00000
     25       5.1823      0.00000
     26       5.2214      0.00000
     27       5.5666      0.00000
     28       5.8476      0.00000
     29       6.1027      0.00000
     30       7.1089      0.00000
     31       7.1724      0.00000
     32       7.5935      0.00000

 k-point     3 :       0.3333    0.0000    0.0000
  band No.  band energies     occupation 
      1     -10.7862      2.00000
      2     -10.6078      2.00000
      3     -10.0152      2.00000
      4      -9.8853      2.00000
      5      -5.9573      2.00000
      6      -5.5481      2.00000
      7      -4.8551      2.00000
      8      -4.5825      2.00000
      9      -1.4880      2.00000
     10      -1.0357      2.00000
     11      -0.8490      2.00000
     12      -0.4143      2.00000
     13      -0.0512      2.00000
     14       0.0311      2.00000
     15       0.2449      2.00000
     16       0.7179      2.00000
     17       1.0220      2.00000
     18       1.4405      2.00000
     19       1.5085      2.00000
     20       1.5544      2.00000
     21       3.5745      0.00000
     22       3.9496      0.00000
     23       4.1979      0.00000
     24       4.6675      0.00000
     25       4.7124      0.00000
     26       5.2478      0.00000
     27       5.2936      0.00000
     28       5.8157      0.00000
     29       6.1923      0.00000
     30       6.3455      0.00000
     31       6.9201      0.00000
     32       7.2910      0.00000

 k-point     4 :       0.5000    0.0000    0.0000
  band No.  band energies     occupation 
      1     -10.2448      2.00000
      2     -10.2448      2.00000
      3     -10.1835      2.00000
      4     -10.1835      2.00000
      5      -5.7323      2.00000
      6      -5.7323      2.00000
      7      -5.3304      2.00000
      8      -5.3304      2.00000
      9      -0.9755      2.00000
     10      -0.9755      2.00000
     11      -0.4783      2.00000
     12      -0.4783      2.00000
     13       0.1253      2.00000
     14       0.1253      2.00000
     15       0.5820      2.00000
     16       0.5820      2.00000
     17       0.9281      2.00000
     18       0.9281      2.00000
     19       1.2145      2.00000
     20       1.2145      2.00000
     21       3.5536      0.00000
     22       3.5536      0.00000
     23       4.1736      0.00000
     24       4.1736      0.00000
     25       4.8299      0.00000
     26       4.8299      0.00000
     27       5.1313      0.00000
     28       5.1313      0.00000
     29       6.2811      0.00000
     30       6.2811      0.00000
     31       6.6883      0.00000
     32       6.6883      0.00000

 k-point     5 :       0.0000    0.1667    0.0000
  band No.  band energies     occupation 
      1     -11.2830      2.00000
      2     -11.0492      2.00000
      3     -10.2225      2.00000
      4      -9.9282      2.00000
      5      -5.7438      2.00000
      6      -5.1027      2.00000
      7      -4.0340      2.00000
      8      -3.4923      2.00000
      9      -1.9526      2.00000
     10      -0.6146      2.00000
     11      -0.6039      2.00000
     12      -0.3723      2.00000
     13      -0.3095      2.00000
     14      -0.0924      2.00000
     15       0.4998      2.00000
     16       0.9031      2.00000
     17       1.3061      2.00000
     18       1.3190      2.00000
     19       2.0367      2.00000
     20       2.1582      2.00000
     21       3.8843      0.00000
     22       3.9707      0.00000
     23       4.4604      0.00000
     24       4.5432      0.00000
     25       4.8519      0.00000
     26       5.1558      0.00000
     27       5.8316      0.00000
     28       5.8847      0.00000
     29       6.4560      0.00000
     30       7.1430      0.00000
     31       7.4009      0.00000
     32       7.5826      0.00000

 k-point     6 :       0.1667    0.1667    0.0000
  band No.  band energies     occupation 
      1     -11.1293      2.00000
      2     -10.9091      2.00000
      3     -10.1475      2.00000
      4      -9.8935      2.00000
      5      -5.8052      2.00000
      6      -5.2273      2.00000
      7      -4.1918      2.00000
      8      -3.8846      2.00000
      9      -1.8170      2.00000
     10      -1.3640      2.00000
     11      -1.0390      2.00000
     12      -0.5559      2.00000
     13       0.1151      2.00000
     14       0.1854      2.00000
     15       0.3223      2.00000
     16       0.4632      2.00000
     17       1.3548      2.00000
     18       1.3593      2.00000
     19       1.9528      2.00000
     20       2.0511      2.00000
     21       3.9619      0.00000
     22       4.3025      0.00000
     23       4.6562      0.00000
     24       4.6717      0.00000
     25       5.1713      0.00000
     26       5.2047      0.00000
     27       5.8746      0.00000
     28       5.9619      0.00000
     29       6.3296      0.00000
     30       6.8772      0.00000
     31       6.8916      0.00000
     32       7.6687      0.00000

 k-point     7 :       0.1667   -0.1667    0.0000
  band No.  band energies     occupation 
      1     -11.1293      2.00000
      2     -10.9091      2.00000
      3     -10.1475      2.00000
      4      -9.8935      2.00000
      5      -5.8052      2.00000
      6      -5.2273      2.00000
      7      -4.1918      2.00000
      8      -3.8846      2.00000
      9      -1.8170      2.00000
     10      -1.3640      2.00000
     11      -1.0390      2.00000
     12      -0.5559      2.00000
     13       0.1151      2.00000
     14       0.1854      2.00000
     15       0.3223      2.00000
     16       0.4632      2.00000
     17       1.3548      2.00000
     18       1.3593      2.00000
     19       1.9528      2.00000
     20       2.0511      2.00000
     21       3.9619      0.00000
     22       4.3025      0.00000
     23       4.6562      0.00000
     24       4.6717      0.00000
     25       5.1713      0.00000
     26       5.2047      0.00000
     27       5.8746      0.00000
     28       5.9619      0.00000
     29       6.3296      0.00000
     30       6.8772      0.00000
     31       6.8916      0.00000
     32       7.6687      0.00000

 k-point     8 :       0.3333    0.1667    0.0000
  band No.  band energies     occupation 
      1     -10.7161      2.00000
      2     -10.5467      2.00000
      3     -10.0380      2.00000
      4      -9.9141      2.00000
      5      -5.9084      2.00000
      6      -5.4662      2.00000
      7      -4.8728      2.00000
      8      -4.6923      2.00000
      9      -1.5772      2.00000
     10      -1.4005      2.00000
     11      -1.2615      2.00000
     12      -0.6984      2.00000
     13      -0.0446      2.00000
     14       0.2308      2.00000
     15       0.2428      2.00000
     16       0.4783      2.00000
     17       0.7708      2.00000
     18       1.4313      2.00000
     19       1.5398      2.00000
     20       1.5480      2.00000
     21       3.6141      0.00000
     22       4.2274      0.00000
     23       4.3319      0.00000
     24       4.7033      0.00000
     25       5.4378      0.00000
     26       5.4881      0.00000
     27       5.7893      0.00000
     28       6.1340      0.00000
     29       6.4344      0.00000
     30       6.6172      0.00000
     31       7.2607      0.00000
     32       7.3025      0.00000

 k-point     9 :       0.3333   -0.1667    0.0000
  band No.  band energies     occupation 
      1     -10.7161      2.00000
      2     -10.5467      2.00000
      3     -10.0380      2.00000
      4      -9.9141      2.00000
      5      -5.9084      2.00000
      6      -5.4662      2.00000
      7      -4.8728      2.00000
      8      -4.6923      2.00000
      9      -1.5772      2.00000
     10      -1.4005      2.00000
     11      -1.2615      2.00000
     12      -0.6984      2.00000
     13      -0.0446      2.00000
     14       0.2308      2.00000
     15       0.2428      2.00000
     16       0.4783      2.00000
     17       0.7708      2.00000
     18       1.4313      2.00000
     19       1.5398      2.00000
     20       1.5480      2.00000
     21       3.6141      0.00000
     22       4.2274      0.00000
     23       4.3319      0.00000
     24       4.7033      0.00000
     25       5.4378      0.00000
     26       5.4881      0.00000
     27       5.7893      0.00000
     28       6.1340      0.00000
     29       6.4344      0.00000
     30       6.6172      0.00000
     31       7.2607      0.00000
     32       7.3025      0.00000

 k-point    10 :       0.5000    0.1667    0.0000
  band No.  band energies     occupation 
      1     -10.2161      2.00000
      2     -10.2161      2.00000
      3     -10.1628      2.00000
      4     -10.1628      2.00000
      5      -5.6648      2.00000
      6      -5.6648      2.00000
      7      -5.3232      2.00000
      8      -5.3232      2.00000
      9      -1.2131      2.00000
     10      -1.2131      2.00000
     11      -0.7970      2.00000
     12      -0.7970      2.00000
     13      -0.3159      2.00000
     14      -0.3159      2.00000
     15       0.1822      2.00000
     16       0.1822      2.00000
     17       0.9788      2.00000
     18       0.9788      2.00000
     19       1.5321      2.00000
     20       1.5321      2.00000
     21       3.5544      0.00000
     22       3.5544      0.00000
     23       4.6663      0.00000
     24       4.6663      0.00000
     25       5.5160      0.00000
     26       5.5160      0.00000
     27       5.9368      0.00000
     28       5.9368      0.00000
     29       6.4581      0.00000
     30       6.4581      0.00000
     31       6.6464      0.00000
     32       6.6464      0.00000

 k-point    11 :       0.0000    0.3333    0.0000
  band No.  band energies     occupation 
      1     -11.0243      2.00000
      2     -10.8105      2.00000
      3     -10.3815      2.00000
      4     -10.1558      2.00000
      5      -5.8196      2.00000
      6      -5.0153      2.00000
      7      -4.8831      2.00000
      8      -4.1287      2.00000
      9      -1.4773      2.00000
     10      -0.2873      2.00000
     11      -0.2452      2.00000
     12      -0.0298      2.00000
     13       0.4233      2.00000
     14       0.4307      2.00000
     15       0.4859      2.00000
     16       0.6807      2.00000
     17       0.8478      2.00000
     18       1.7271      2.00000
     19       1.8121      2.00000
     20       2.1198      2.00000
     21       3.3419      0.00000
     22       3.9424      0.00000
     23       4.1070      0.00000
     24       4.4058      0.00000
     25       4.8025      0.00000
     26       4.8867      0.00000
     27       5.5655      0.00000
     28       5.6177      0.00000
     29       6.2071      0.00000
     30       6.5430      0.00000
     31       6.7622      0.00000
     32       7.8764      0.00000

 k-point    12 :       0.1667    0.3333    0.0000
  band No.  band energies     occupation 
      1     -10.8864      2.00000
      2     -10.6872      2.00000
      3     -10.2941      2.00000
      4     -10.0933      2.00000
      5      -5.7945      2.00000
      6      -5.0637      2.00000
      7      -4.8942      2.00000
      8      -4.2994      2.00000
      9      -1.4294      2.00000
     10      -1.3771      2.00000
     11      -1.0456      2.00000
     12      -0.5710      2.00000
     13      -0.2499      2.00000
     14       0.2055      2.00000
     15       0.5363      2.00000
     16       0.9208      2.00000
     17       1.3103      2.00000
     18       1.3784      2.00000
     19       1.8665      2.00000
     20       1.9522      2.00000
     21       3.8892      0.00000
     22       4.3090      0.00000
     23       4.4769      0.00000
     24       4.6003      0.00000
     25       5.1013      0.00000
     26       5.4579      0.00000
     27       5.6453      0.00000
     28       6.2094      0.00000
     29       6.4204      0.00000
     30       6.7443      0.00000
     31       6.9019      0.00000
     32       7.6787      0.00000

 k-point    13 :       0.1667   -0.3333    0.0000
  band No.  band energies     occupation 
      1     -10.8864      2.00000
      2     -10.6872      2.00000
      3     -10.2941      2.00000
      4     -10.0933      2.00000
      5      -5.7945      2.00000
      6      -5.0637      2.00000
      7      -4.8942      2.00000
      8      -4.2994      2.00000
      9      -1.4294      2.00000
     10      -1.3771      2.00000
     11      -1.0456      2.00000
     12      -0.5710      2.00000
     13      -0.2499      2.00000
     14       0.2055      2.00000
     15       0.5363      2.00000
     16       0.9208      2.00000
     17       1.3103      2.00000
     18       1.3784      2.00000
     19       1.8665      2.00000
     20       1.9522      2.00000
     21       3.8892      0.00000
     22       4.3090      0.00000
     23       4.4769      0.00000
     24       4.6003      0.00000
     25       5.1013      0.00000
     26       5.4579      0.00000
     27       5.6453      0.00000
     28       6.2094      0.00000
     29       6.4204      0.00000
     30       6.7443      0.00000
     31       6.9019      0.00000
     32       7.6787      0.00000

 k-point    14 :       0.3333    0.3333    0.0000
  band No.  band energies     occupation 
      1     -10.5311      2.00000
      2     -10.3855      2.00000
      3     -10.1263      2.00000
      4     -10.0129      2.00000
      5      -5.7481      2.00000
      6      -5.2614      2.00000
      7      -5.0818      2.00000
      8      -4.8632      2.00000
      9      -2.0196      2.00000
     10      -1.5566      2.00000
     11      -1.4193      2.00000
     12      -1.1139      2.00000
     13      -0.6439      2.00000
     14      -0.1526      2.00000
     15      -0.1239      2.00000
     16       0.5392      2.00000
     17       0.5478      2.00000
     18       1.2408      2.00000
     19       1.5788      2.00000
     20       1.6455      2.00000
     21       3.6586      0.00000
     22       4.9186      0.00000
     23       5.3524      0.00000
     24       5.6277      0.00000
     25       5.8586      0.00000
     26       5.9616      0.00000
     27       6.4111      0.00000
     28       6.5640      0.00000
     29       6.7468      0.00000
     30       7.2688      0.00000
     31       7.2896      0.00000
     32       8.0198      0.00000

 k-point    15 :       0.3333   -0.3333    0.0000
  band No.  band energies     occupation 
      1     -10.5311      2.00000
      2     -10.3855      2.00000
      3     -10.1263      2.00000
      4     -10.0129      2.00000
      5      -5.7481      2.00000
      6      -5.2614      2.00000
      7      -5.0818      2.00000
      8      -4.8632      2.00000
      9      -2.0196      2.00000
     10      -1.5566      2.00000
     11      -1.4193      2.00000
     12      -1.1139      2.00000
     13      -0.6439      2.00000
     14      -0.1526      2.00000
     15      -0.1239      2.00000
     16       0.5392      2.00000
     17       0.5478      2.00000
     18       1.2408      2.00000
     19       1.5788      2.00000
     20       1.6455      2.00000
     21       3.6586      0.00000
     22       4.9186      0.00000
     23       5.3524      0.00000
     24       5.6277      0.00000
     25       5.8586      0.00000
     26       5.9616      0.00000
     27       6.4111      0.00000
     28       6.5640      0.00000
     29       6.7468      0.00000
     30       7.2688      0.00000
     31       7.2896      0.00000
     32       8.0198      0.00000

 k-point    16 :       0.5000    0.3333    0.0000
  band No.  band energies     occupation 
      1     -10.1544      2.00000
      2     -10.1544      2.00000
      3     -10.1228      2.00000
      4     -10.1228      2.00000
      5      -5.5104      2.00000
      6      -5.5104      2.00000
      7      -5.3248      2.00000
      8      -5.3248      2.00000
      9      -1.6736      2.00000
     10      -1.6736      2.00000
     11      -1.3109      2.00000
     12      -1.3109      2.00000
     13      -0.7721      2.00000
     14      -0.7721      2.00000
     15      -0.2419      2.00000
     16      -0.2419      2.00000
     17       0.8114      2.00000
     18       0.8114      2.00000
     19       1.4324      2.00000
     20       1.4324      2.00000
     21       4.4311      0.00000
     22       4.4311      0.00000
     23       5.7015      0.00000
     24       5.7015      0.00000
     25       6.1705      0.00000
     26       6.1705      0.00000
     27       6.5976      0.00000
     28       6.5976      0.00000
     29       6.9651      0.00000
     30       6.9651      0.00000
     31       7.8780      0.00000
     32       7.8780      0.00000

 k-point    17 :       0.0000    0.5000    0.0000
  band No.  band energies     occupation 
      1     -10.6796      2.00000
      2     -10.6796      2.00000
      3     -10.4824      2.00000
      4     -10.4824      2.00000
      5      -5.5405      2.00000
      6      -5.5405      2.00000
      7      -4.6955      2.00000
      8      -4.6955      2.00000
      9      -0.7997      2.00000
     10      -0.7997      2.00000
     11       0.1397      2.00000
     12       0.1397      2.00000
     13       0.3313      2.00000
     14       0.3313      2.00000
     15       1.0143      2.00000
     16       1.0143      2.00000
     17       1.2136      2.00000
     18       1.2136      2.00000
     19       1.7539      2.00000
     20       1.7539      2.00000
     21       3.4956      0.00000
     22       3.4956      0.00000
     23       4.3017      0.00000
     24       4.3017      0.00000
     25       4.9209      0.00000
     26       4.9209      0.00000
     27       5.2083      0.00000
     28       5.2083      0.00000
     29       5.8508      0.00000
     30       5.8508      0.00000
     31       7.6540      0.00000
     32       7.6540      0.00000

 k-point    18 :       0.1667    0.5000    0.0000
  band No.  band energies     occupation 
      1     -10.5672      2.00000
      2     -10.5672      2.00000
      3     -10.3863      2.00000
      4     -10.3863      2.00000
      5      -5.4945      2.00000
      6      -5.4945      2.00000
      7      -4.7490      2.00000
      8      -4.7490      2.00000
      9      -1.1461      2.00000
     10      -1.1461      2.00000
     11      -0.7209      2.00000
     12      -0.7209      2.00000
     13      -0.5295      2.00000
     14      -0.5295      2.00000
     15       0.8658      2.00000
     16       0.8658      2.00000
     17       1.5009      2.00000
     18       1.5009      2.00000
     19       1.8998      2.00000
     20       1.8998      2.00000
     21       3.9466      0.00000
     22       3.9466      0.00000
     23       4.4973      0.00000
     24       4.4973      0.00000
     25       5.5071      0.00000
     26       5.5071      0.00000
     27       5.9224      0.00000
     28       5.9224      0.00000
     29       6.4002      0.00000
     30       6.4002      0.00000
     31       7.4183      0.00000
     32       7.4183      0.00000

 k-point    19 :       0.3333    0.5000    0.0000
  band No.  band energies     occupation 
      1     -10.3041      2.00000
      2     -10.3041      2.00000
      3     -10.1843      2.00000
      4     -10.1843      2.00000
      5      -5.4551      2.00000
      6      -5.4551      2.00000
      7      -5.0312      2.00000
      8      -5.0312      2.00000
      9      -1.9424      2.00000
     10      -1.9424      2.00000
     11      -1.3310      2.00000
     12      -1.3310      2.00000
     13      -0.7087      2.00000
     14      -0.7087      2.00000
     15       0.1539      2.00000
     16       0.1539      2.00000
     17       0.7562      2.00000
     18       0.7562      2.00000
     19       1.6238      2.00000
     20       1.6238      2.00000
     21       4.5432      0.00000
     22       4.5432      0.00000
     23       5.8439      0.00000
     24       5.8439      0.00000
     25       6.4064      0.00000
     26       6.4064      0.00000
     27       6.7367      0.00000
     28       6.7367      0.00000
     29       7.1052      0.00000
     30       7.1052      0.00000
     31       7.7720      0.00000
     32       7.7720      0.00000

 k-point    20 :       0.5000    0.5000    0.0000
  band No.  band energies     occupation 
      1     -10.1159      2.00000
      2     -10.1159      2.00000
      3     -10.1090      2.00000
      4     -10.1090      2.00000
      5      -5.3970      2.00000
      6      -5.3970      2.00000
      7      -5.3594      2.00000
      8      -5.3594      2.00000
      9      -1.8230      2.00000
     10      -1.8230      2.00000
     11      -1.6255      2.00000
     12      -1.6255      2.00000
     13      -0.7777      2.00000
     14      -0.7777      2.00000
     15      -0.6051      2.00000
     16      -0.6051      2.00000
     17       0.9219      2.00000
     18       0.9219      2.00000
[...]
     32       7.1313      0.00000

 k-point    32 :       0.1667    0.3333    0.5000
  band No.  band energies     occupation 
      1     -10.8032      2.00000
      2     -10.8032      2.00000
      3     -10.1777      2.00000
      4     -10.1777      2.00000
      5      -5.5234      2.00000
      6      -5.5234      2.00000
      7      -4.5313      2.00000
      8      -4.5313      2.00000
      9      -1.3235      2.00000
     10      -1.3235      2.00000
     11      -0.7263      2.00000
     12      -0.7263      2.00000
     13      -0.1501      2.00000
     14      -0.1501      2.00000
     15       0.7084      2.00000
     16       0.7084      2.00000
     17       1.3974      2.00000
     18       1.3974      2.00000
     19       1.7056      2.00000
     20       1.7056      2.00000
     21       4.3235      0.00000
     22       4.3235      0.00000
     23       4.6168      0.00000
     24       4.6168      0.00000
     25       5.4235      0.00000
     26       5.4235      0.00000
     27       5.7227      0.00000
     28       5.7227      0.00000
     29       6.5472      0.00000
     30       6.5472      0.00000
     31       7.0697      0.00000
     32       7.0697      0.00000

 k-point    33 :       0.1667   -0.3333    0.5000
  band No.  band energies     occupation 
      1     -10.8032      2.00000
      2     -10.8032      2.00000
      3     -10.1777      2.00000
      4     -10.1777      2.00000
      5      -5.5234      2.00000
      6      -5.5234      2.00000
      7      -4.5313      2.00000
      8      -4.5313      2.00000
      9      -1.3235      2.00000
     10      -1.3235      2.00000
     11      -0.7263      2.00000
     12      -0.7263      2.00000
     13      -0.1501      2.00000
     14      -0.1501      2.00000
     15       0.7084      2.00000
     16       0.7084      2.00000
     17       1.3974      2.00000
     18       1.3974      2.00000
     19       1.7056      2.00000
     20       1.7056      2.00000
     21       4.3235      0.00000
     22       4.3235      0.00000
     23       4.6168      0.00000
     24       4.6168      0.00000
     25       5.4235      0.00000
     26       5.4235      0.00000
     27       5.7227      0.00000
     28       5.7227      0.00000
     29       6.5472      0.00000
     30       6.5472      0.00000
     31       7.0697      0.00000
     32       7.0697      0.00000

 k-point    34 :       0.3333    0.3333    0.5000
  band No.  band energies     occupation 
      1     -10.4692      2.00000
      2     -10.4692      2.00000
      3     -10.0590      2.00000
      4     -10.0590      2.00000
      5      -5.5506      2.00000
      6      -5.5506      2.00000
      7      -4.9364      2.00000
      8      -4.9364      2.00000
      9      -1.8269      2.00000
     10      -1.8269      2.00000
     11      -1.1461      2.00000
     12      -1.1461      2.00000
     13      -0.5328      2.00000
     14      -0.5328      2.00000
     15       0.1231      2.00000
     16       0.1231      2.00000
     17       0.9723      2.00000
     18       0.9723      2.00000
     19       1.6280      2.00000
     20       1.6280      2.00000
     21       4.6569      0.00000
     22       4.6569      0.00000
     23       5.3255      0.00000
     24       5.3255      0.00000
     25       5.5689      0.00000
     26       5.5689      0.00000
     27       6.5088      0.00000
     28       6.5088      0.00000
     29       6.6639      0.00000
     30       6.6639      0.00000
     31       7.8671      0.00000
     32       7.8671      0.00000

 k-point    35 :       0.3333   -0.3333    0.5000
  band No.  band energies     occupation 
      1     -10.4692      2.00000
      2     -10.4692      2.00000
      3     -10.0590      2.00000
      4     -10.0590      2.00000
      5      -5.5506      2.00000
      6      -5.5506      2.00000
      7      -4.9364      2.00000
      8      -4.9364      2.00000
      9      -1.8269      2.00000
     10      -1.8269      2.00000
     11      -1.1461      2.00000
     12      -1.1461      2.00000
     13      -0.5328      2.00000
     14      -0.5328      2.00000
     15       0.1231      2.00000
     16       0.1231      2.00000
     17       0.9723      2.00000
     18       0.9723      2.00000
     19       1.6280      2.00000
     20       1.6280      2.00000
     21       4.6569      0.00000
     22       4.6569      0.00000
     23       5.3255      0.00000
     24       5.3255      0.00000
     25       5.5689      0.00000
     26       5.5689      0.00000
     27       6.5088      0.00000
     28       6.5088      0.00000
     29       6.6639      0.00000
     30       6.6639      0.00000
     31       7.8671      0.00000
     32       7.8671      0.00000

 k-point    36 :       0.5000    0.3333    0.5000
  band No.  band energies     occupation 
      1     -10.1387      2.00000
      2     -10.1387      2.00000
      3     -10.1387      2.00000
      4     -10.1387      2.00000
      5      -5.4207      2.00000
      6      -5.4207      2.00000
      7      -5.4207      2.00000
      8      -5.4207      2.00000
      9      -1.4311      2.00000
     10      -1.4311      2.00000
     11      -1.4311      2.00000
     12      -1.4311      2.00000
     13      -0.6831      2.00000
     14      -0.6831      2.00000
     15      -0.6831      2.00000
     16      -0.6831      2.00000
     17       1.2710      2.00000
     18       1.2710      2.00000
     19       1.2710      2.00000
     20       1.2710      2.00000
     21       5.0392      0.00000
     22       5.0392      0.00000
     23       5.0392      0.00000
     24       5.0392      0.00000
     25       6.0367      0.00000
     26       6.0367      0.00000
     27       6.0367      0.00000
     28       6.0367      0.00000
     29       7.5393      0.00000
     30       7.5393      0.00000
     31       7.5393      0.00000
     32       7.5393      0.00000

 k-point    37 :       0.0000    0.5000    0.5000
  band No.  band energies     occupation 
      1     -10.6749      2.00000
      2     -10.6749      2.00000
      3     -10.4881      2.00000
      4     -10.4881      2.00000
      5      -5.4525      2.00000
      6      -5.4525      2.00000
      7      -4.8331      2.00000
      8      -4.8331      2.00000
      9      -0.1874      2.00000
     10      -0.1874      2.00000
     11       0.1091      2.00000
     12       0.1091      2.00000
     13       0.1477      2.00000
     14       0.1477      2.00000
     15       0.3216      2.00000
     16       0.3216      2.00000
     17       1.5328      2.00000
     18       1.5328      2.00000
     19       1.6229      2.00000
     20       1.6229      2.00000
     21       3.5954      0.00000
     22       3.5954      0.00000
     23       4.1177      0.00000
     24       4.1177      0.00000
     25       4.9818      0.00000
     26       4.9818      0.00000
     27       5.7617      0.00000
     28       5.7617      0.00000
     29       6.0064      0.00000
     30       6.0064      0.00000
     31       6.9749      0.00000
     32       6.9749      0.00000

 k-point    38 :       0.1667    0.5000    0.5000
  band No.  band energies     occupation 
      1     -10.5629      2.00000
      2     -10.5629      2.00000
      3     -10.3915      2.00000
      4     -10.3915      2.00000
      5      -5.4233      2.00000
      6      -5.4233      2.00000
      7      -4.8532      2.00000
      8      -4.8532      2.00000
      9      -1.0368      2.00000
     10      -1.0368      2.00000
     11      -0.9290      2.00000
     12      -0.9290      2.00000
     13       0.1640      2.00000
     14       0.1640      2.00000
     15       0.2481      2.00000
     16       0.2481      2.00000
     17       1.5775      2.00000
     18       1.5775      2.00000
     19       1.6406      2.00000
     20       1.6406      2.00000
     21       4.4101      0.00000
     22       4.4101      0.00000
     23       4.4954      0.00000
     24       4.4954      0.00000
     25       5.6272      0.00000
     26       5.6272      0.00000
     27       5.7681      0.00000
     28       5.7681      0.00000
     29       6.4365      0.00000
     30       6.4365      0.00000
     31       6.9121      0.00000
     32       6.9121      0.00000

 k-point    39 :       0.3333    0.5000    0.5000
  band No.  band energies     occupation 
      1     -10.3012      2.00000
      2     -10.3012      2.00000
      3     -10.1876      2.00000
      4     -10.1876      2.00000
      5      -5.4247      2.00000
      6      -5.4247      2.00000
      7      -5.0693      2.00000
      8      -5.0693      2.00000
      9      -1.6877      2.00000
     10      -1.6877      2.00000
     11      -1.6792      2.00000
     12      -1.6792      2.00000
     13      -0.3318      2.00000
     14      -0.3318      2.00000
     15      -0.3214      2.00000
     16      -0.3214      2.00000
     17       1.2085      2.00000
     18       1.2085      2.00000
     19       1.3652      2.00000
     20       1.3652      2.00000
     21       5.0816      0.00000
     22       5.0816      0.00000
     23       5.4764      0.00000
     24       5.4764      0.00000
     25       6.0739      0.00000
     26       6.0739      0.00000
     27       6.1535      0.00000
     28       6.1535      0.00000
     29       7.4947      0.00000
     30       7.4947      0.00000
     31       7.7402      0.00000
     32       7.7402      0.00000

 k-point    40 :       0.5000    0.5000    0.5000
  band No.  band energies     occupation 
      1     -10.1125      2.00000
      2     -10.1125      2.00000
      3     -10.1125      2.00000
      4     -10.1125      2.00000
      5      -5.3806      2.00000
      6      -5.3806      2.00000
      7      -5.3806      2.00000
      8      -5.3806      2.00000
      9      -1.5387      2.00000
     10      -1.5387      2.00000
     11      -1.5387      2.00000
     12      -1.5387      2.00000
     13      -1.0396      2.00000
     14      -1.0396      2.00000
     15      -1.0396      2.00000
     16      -1.0396      2.00000
     17       1.3386      2.00000
     18       1.3386      2.00000
     19       1.3386      2.00000
     20       1.3386      2.00000
     21       5.0633      0.00000
     22       5.0633      0.00000
     23       5.0633      0.00000
     24       5.0633      0.00000
     25       6.6133      0.00000
     26       6.6133      0.00000
     27       6.6133      0.00000
     28       6.6133      0.00000
     29       8.3497      0.00000
     30       8.3497      0.00000
     31       8.3497      0.00000
     32       8.3497      0.00000


--------------------------------------------------------------------------------------------------------


 soft charge-density along one line, spin component            1
         0         1         2         3         4         5         6         7         8         9
 total charge-density along one line
 
 pseudopotential strength for first ion, spin component:            1
 14.765  18.428   0.039   0.050   0.000   0.070   0.090   0.000
 18.428  23.016   0.049   0.063   0.000   0.088   0.114   0.000
  0.039   0.049   3.265  -0.002   0.000   5.562  -0.004   0.000
  0.050   0.063  -0.002   3.261   0.000  -0.004   5.554   0.000
  0.000   0.000   0.000   0.000   3.266   0.000   0.000   5.563
  0.070   0.088   5.562  -0.004   0.000   9.532  -0.006   0.000
  0.090   0.114  -0.004   5.554   0.000  -0.006   9.519   0.000
  0.000   0.000   0.000   0.000   5.563   0.000   0.000   9.533
  0.000   0.000   0.000   0.000   0.006   0.000   0.000   0.011
 -0.004  -0.006   0.013   0.013   0.000   0.023   0.022   0.000
 -0.006  -0.007  -0.003   0.013  -0.000  -0.005   0.024  -0.000
  0.000   0.000   0.000  -0.000   0.013   0.000  -0.000   0.023
  0.000   0.000  -0.012   0.000  -0.000  -0.021   0.000  -0.000
 total augmentation occupancy for first ion, spin component:            1
  2.603  -0.607   0.275   0.394  -0.000  -0.044  -0.069   0.000   0.000  -0.016   0.002  -0.000   0.014
 -0.607   0.595  -0.382  -0.518   0.000   0.057   0.079  -0.000  -0.000   0.012  -0.002   0.000  -0.011
  0.275  -0.382   1.121   0.027   0.000  -0.175   0.009  -0.000   0.000   0.050  -0.097   0.000   0.013
  0.394  -0.518   0.027   1.321  -0.000   0.009  -0.205   0.000  -0.000  -0.036   0.103   0.000  -0.005
 -0.000   0.000   0.000  -0.000   1.174  -0.000   0.000  -0.198   0.133  -0.000  -0.000   0.039   0.000
 -0.044   0.057  -0.175   0.009  -0.000   0.031  -0.004   0.000  -0.000  -0.008   0.016   0.000  -0.002
 -0.069   0.079   0.009  -0.205   0.000  -0.004   0.037  -0.000   0.000   0.006  -0.018   0.000   0.001
  0.000  -0.000  -0.000   0.000  -0.198   0.000  -0.000   0.037  -0.023   0.000   0.000  -0.006   0.000
  0.000  -0.000   0.000  -0.000   0.133  -0.000   0.000  -0.023   0.025  -0.000  -0.000   0.003  -0.000
 -0.016   0.012   0.050  -0.036  -0.000  -0.008   0.006   0.000  -0.000   0.012  -0.008  -0.000   0.002
  0.002  -0.002  -0.097   0.103  -0.000   0.016  -0.018   0.000  -0.000  -0.008   0.027  -0.000  -0.004
 -0.000   0.000   0.000   0.000   0.039   0.000   0.000  -0.006   0.003  -0.000  -0.000   0.010   0.000
  0.014  -0.011   0.013  -0.005   0.000  -0.002   0.001   0.000  -0.000   0.002  -0.004   0.000   0.008


------------------------ aborting loop because EDIFF is reached ----------------------------------------


    CHARGE:  cpu time      0.0034: real time      0.0034
    FORLOC:  cpu time      0.0002: real time      0.0002
    FORNL :  cpu time      0.0201: real time      0.0202
    STRESS:  cpu time      0.2042: real time      0.2052
    FORCOR:  cpu time      0.0038: real time      0.0038
    FORHAR:  cpu time      0.0009: real time      0.0009
    MIXING:  cpu time      0.0004: real time      0.0004
    OFIELD:  cpu time      0.0000: real time      0.0000

  FORCE on cell =-STRESS in cart. coord.  units (eV):
  Direction    XX          YY          ZZ          XY          YZ          ZX
  --------------------------------------------------------------------------------------
  Alpha Z    79.05093    79.05093    79.05093
  Ewald    -400.99665  -475.61983  -482.33116     0.00000    -0.00000    -0.00000
  Hartree    78.29858    49.35649    33.31124     0.00000    -0.00000     0.00000
  E(xc)    -140.07036  -140.29616  -140.62077    -0.00000    -0.00000    -0.00000
  Local    -231.39517  -135.65967  -116.58150    -0.00000     0.00000    -0.00000
  n-local   238.62285   237.87169   241.22542     0.00000    -0.00000     0.00000
  augment   -11.29550   -11.88669   -12.27578     0.00000    -0.00000     0.00000
  Kinetic   383.35507   395.24837   397.72914    -0.00000     0.00000     0.00000
  Fock        0.00000     0.00000     0.00000     0.00000     0.00000     0.00000
  -------------------------------------------------------------------------------------
  Total      -4.43027    -1.93486    -0.49249    -0.00000     0.00000     0.00000
  in kB     -33.11465   -14.46234    -3.68119    -0.00001     0.00001     0.00000
  external pressure =      -17.09 kB  Pullay stress =        0.00 kB


 VOLUME and BASIS-vectors are now :
 -----------------------------------------------------------------------------
  energy-cutoff  :      360.00
  volume of cell :      214.35
      direct lattice vectors                 reciprocal lattice vectors
     4.050000000  0.000000000  0.000000000     0.246913580  0.000000000  0.000000000
     0.000000000  4.750000000  0.000000000     0.000000000  0.210526316  0.000000000
     0.000000000  0.000000000 11.142221000     0.000000000  0.000000000  0.089748713

  length of vectors
     4.050000000  4.750000000 11.142221000     0.246913580  0.210526316  0.089748713


 FORCES acting on ions
    electron-ion (+dipol)            ewald-force                    non-local-force                 convergence-correction
 -----------------------------------------------------------------------------------------------
   0.236E-06 0.144E+02 0.288E+02   0.121E-14 -.171E+02 -.320E+02   -.887E-08 0.266E+01 0.322E+01   -.192E-06 0.217E-03 -.887E-03
   0.437E-06 0.144E+02 -.288E+02   -.785E-14 -.171E+02 0.320E+02   -.121E-06 0.266E+01 -.322E+01   -.304E-06 0.218E-03 0.889E-03
   -.258E-06 -.144E+02 -.288E+02   -.130E-14 0.171E+02 0.320E+02   0.502E-07 -.266E+01 -.322E+01   0.221E-06 -.218E-03 0.887E-03
   -.373E-06 -.144E+02 0.288E+02   0.611E-14 0.171E+02 -.320E+02   0.115E-06 -.266E+01 0.322E+01   0.250E-06 -.217E-03 -.888E-03
   -.229E-05 -.134E+02 -.280E+02   0.949E-14 0.150E+02 0.298E+02   0.893E-06 -.161E+01 -.184E+01   0.143E-05 0.454E-03 0.260E-02
   -.228E-05 -.134E+02 0.280E+02   0.890E-15 0.150E+02 -.298E+02   0.891E-06 -.161E+01 0.184E+01   0.139E-05 0.455E-03 -.259E-02
   0.202E-05 0.134E+02 0.280E+02   -.107E-13 -.150E+02 -.298E+02   -.781E-06 0.161E+01 0.184E+01   -.119E-05 -.455E-03 -.260E-02
   0.195E-05 0.134E+02 -.280E+02   0.203E-14 -.150E+02 0.298E+02   -.655E-06 0.161E+01 -.184E+01   -.128E-05 -.454E-03 0.259E-02
 -----------------------------------------------------------------------------------------------
   -.564E-06 0.159E-06 0.527E-06   -.122E-15 -.355E-14 0.000E+00   0.382E-06 0.311E-06 -.628E-06   0.325E-06 -.508E-06 -.229E-06
 
 
 POSITION                                       TOTAL-FORCE (eV/Angst)
 -----------------------------------------------------------------------------------
      1.01250      0.51321      1.41545         0.000000     -0.010126      0.014036
      3.03750      2.88821      4.15566        -0.000000     -0.010126     -0.014037
      3.03750      4.23679      9.72678        -0.000000      0.010126     -0.014036
      1.01250      1.86179      6.98656        -0.000000      0.010126      0.014037
      1.01250      4.56482      3.89801         0.000000      0.049527     -0.006705
      3.03750      2.18982      1.67310        -0.000000      0.049527      0.006706
      3.03750      0.18518      7.24421         0.000000     -0.049527      0.006706
      1.01250      2.56018      9.46912        -0.000000     -0.049527     -0.006706
 -----------------------------------------------------------------------------------
    total drift:                                0.000000     -0.000000     -0.000000


--------------------------------------------------------------------------------------------------------



  FREE ENERGIE OF THE ION-ELECTRON SYSTEM (eV)
  ---------------------------------------------------
  free  energy   TOTEN  =       -33.66539078 eV

  energy  without entropy=      -33.66539078  energy(sigma->0) =      -33.66539078
 


--------------------------------------------------------------------------------------------------------


    POTLOK:  cpu time      0.1136: real time      0.1142


--------------------------------------------------------------------------------------------------------


     LOOP+:  cpu time      4.8855: real time      4.9244
    4ORBIT:  cpu time      0.0000: real time      0.0000

 total amount of memory used by VASP MPI-rank0    39390. kBytes
=======================================================================

   base      :      30000. kBytes
   nonl-proj :       7299. kBytes
   fftplans  :        374. kBytes
   grid      :        555. kBytes
   one-center:         16. kBytes
   wavefun   :       1146. kBytes
 
  
  
 General timing and accounting informations for this job:
 ========================================================
  
                  Total CPU time used (sec):        5.692
                            User time (sec):        5.393
                          System time (sec):        0.300
                         Elapsed time (sec):        7.231
  
                   Maximum memory used (kb):      192700.
                   Average memory used (kb):          N/A
  
                          Minor page faults:        22363
                          Major page faults:           52
                 Voluntary context switches:         3973
