 vasp.6.4.2 20Jul23 (build Oct 12 2023 10:31:02) complex                         
 executed on              LinuxNV date 2025.05.28  06:54:19
 running  128 mpi-ranks, with    1 threads/rank, on    2 nodes
 distrk:  each k-point on   64 cores,    2 groups
 distr:  one band on NCORE=   4 cores,   16 groups


--------------------------------------------------------------------------------------------------------


 INCAR:
   ENCUT = 360.000000
   SIGMA = 0.050000
   EDIFF = 1.00e-06
   ALGO = Normal
   GGA = PE
   PREC = Normal
   SYSTEM = ./
   ICHARG = 2
   ISMEAR = 0
   ISPIN = 1
   ISTART = 0
   ISYM = 0
   KPAR = 2
   LMAXMIX = 4
   NELM = 100
   NPAR = 16
   LASPH = .TRUE.
   LCHARG = .FALSE.
   LWAVE = .FALSE.

 POTCAR:    PAW_PBE Ge 05Jan2001                  
 POTCAR:    PAW_PBE Se 06Sep2000                  
 POTCAR:    PAW_PBE Ge 05Jan2001                  
   VRHFIN =Ge: s2p2                                                                                 
   LEXCH  = PE                                                                                      
   EATOM  =   104.9960 eV,    7.7170 Ry                                                             
                                                                                                    
   TITEL  = PAW_PBE Ge 05Jan2001                                                                    
   LULTRA =        F    use ultrasoft PP ?                                                          
   IUNSCR =        1    unscreen: 0-lin 1-nonlin 2-no                                               
   RPACOR =    2.170    partial core radius                                                         
   POMASS =   72.610; ZVAL   =    4.000    mass and valenz                                          
   RCORE  =    2.300    outmost cutoff radius                                                       
   RWIGS  =    2.300; RWIGS  =    1.217    wigner-seitz radius (au A)                               
   ENMAX  =  173.807; ENMIN  =  130.355 eV                                                          
   ICORE  =        3    local potential                                                             
   LCOR   =        T    correct aug charges                                                         
   LPAW   =        T    paw PP                                                                      
   EAUG   =  385.843                                                                                
   DEXC   =    0.000                                                                                
   RMAX   =    2.342    core radius for proj-oper                                                   
   RAUG   =    1.300    factor for augmentation sphere                                              
   RDEP   =    2.318    radius for radial grids                                                     
   RDEPT  =    2.103    core radius for aug-charge                                                  
                                                                                                    
   Atomic configuration                                                                             
   10 entries                                                                                       
     n  l   j            E        occ.                                                              
     1  0  0.50    -10959.8463   2.0000                                                             
     2  0  0.50     -1371.6056   2.0000                                                             
     2  1  1.50     -1198.4791   6.0000                                                             
     3  0  0.50      -168.4733   2.0000                                                             
     3  1  1.50      -115.6019   6.0000                                                             
     3  2  2.50       -29.3106  10.0000                                                             
     4  0  0.50       -11.7309   2.0000                                                             
     4  1  0.50        -3.8952   2.0000                                                             
     4  2  1.50        -4.0817   0.0000                                                             
     4  3  2.50        -4.0817   0.0000                                                             
   Description                                                                                      
     l       E           TYP  RCUT    TYP  RCUT                                                     
     0    -11.7309493     23  2.300                                                                 
     0     -7.4578696     23  2.300                                                                 
     1     -3.8952261     23  2.300                                                                 
     1      6.1178114     23  2.300                                                                 
     2     -4.0817478     23  2.300                                                                 
     3     -1.3605826      7  2.300                                                                 
  local pseudopotential read in
  partial core-charges read in
  partial kinetic energy density read in
  atomic valenz-charges read in
  non local Contribution for L=            0  read in
    real space projection operators read in
  non local Contribution for L=            0  read in
    real space projection operators read in
  non local Contribution for L=            1  read in
    real space projection operators read in
  non local Contribution for L=            1  read in
    real space projection operators read in
  non local Contribution for L=            2  read in
    real space projection operators read in
    PAW grid and wavefunctions read in
 
   number of l-projection  operators is LMAX  =            5
   number of lm-projection operators is LMMAX =           13
 
 POTCAR:    PAW_PBE Se 06Sep2000                  
   VRHFIN =Se: s2p4                                                                                 
   LEXCH  = PE                                                                                      
   EATOM  =   257.1286 eV,   18.8984 Ry                                                             
                                                                                                    
   TITEL  = PAW_PBE Se 06Sep2000                                                                    
   LULTRA =        F    use ultrasoft PP ?                                                          
   IUNSCR =        1    unscreen: 0-lin 1-nonlin 2-no                                               
   RPACOR =    1.900    partial core radius                                                         
   POMASS =   78.960; ZVAL   =    6.000    mass and valenz                                          
   RCORE  =    2.100    outmost cutoff radius                                                       
   RWIGS  =    2.200; RWIGS  =    1.164    wigner-seitz radius (au A)                               
   ENMAX  =  211.555; ENMIN  =  158.666 eV                                                          
   ICORE  =        3    local potential                                                             
   LCOR   =        T    correct aug charges                                                         
   LPAW   =        T    paw PP                                                                      
   EAUG   =  446.842                                                                                
   DEXC   =    0.000                                                                                
   RMAX   =    2.147    core radius for proj-oper                                                   
   RAUG   =    1.300    factor for augmentation sphere                                              
   RDEP   =    2.177    radius for radial grids                                                     
   RDEPT  =    1.928    core radius for aug-charge                                                  
                                                                                                    
   Atomic configuration                                                                             
   10 entries                                                                                       
     n  l   j            E        occ.                                                              
     1  0  0.50    -12503.4787   2.0000                                                             
     2  0  0.50     -1606.9547   2.0000                                                             
     2  1  1.50     -1413.3140   6.0000                                                             
     3  0  0.50      -213.4885   2.0000                                                             
     3  1  1.50      -152.9538   6.0000                                                             
     3  2  2.50       -53.1221  10.0000                                                             
     4  0  0.50       -17.2865   2.0000                                                             
     4  1  0.50        -6.5110   4.0000                                                             
     4  2  2.50        -6.8029   0.0000                                                             
     4  3  2.50        -6.8029   0.0000                                                             
   Description                                                                                      
     l       E           TYP  RCUT    TYP  RCUT                                                     
     0    -17.2865377     23  2.100                                                                 
     0    -15.3094411     23  2.100                                                                 
     1     -6.5110275     23  2.100                                                                 
     1     -0.0695192     23  2.100                                                                 
     2     -6.8029130     23  2.100                                                                 
     3     -1.3605826      7  2.100                                                                 
  local pseudopotential read in
  partial core-charges read in
  partial kinetic energy density read in
  atomic valenz-charges read in
  non local Contribution for L=            0  read in
    real space projection operators read in
  non local Contribution for L=            0  read in
    real space projection operators read in
  non local Contribution for L=            1  read in
    real space projection operators read in
  non local Contribution for L=            1  read in
    real space projection operators read in
  non local Contribution for L=            2  read in
    real space projection operators read in
    PAW grid and wavefunctions read in
 
   number of l-projection  operators is LMAX  =            5
   number of lm-projection operators is LMMAX =           13
 
  PAW_PBE Ge 05Jan2001                  :
 energy of atom  1       EATOM= -104.9960
 kinetic energy error for atom=    0.0005 (will be added to EATOM!!)
  PAW_PBE Se 06Sep2000                  :
 energy of atom  2       EATOM= -257.1286
 kinetic energy error for atom=    0.0030 (will be added to EATOM!!)
 
 
 POSCAR: Ge Se
  positions in cartesian coordinates
  No initial velocities read in
 exchange correlation table for  LEXCH =        8
   RHO(1)=    0.500       N(1)  =     2000
   RHO(2)=  100.500       N(2)  =     4000
 


--------------------------------------------------------------------------------------------------------


 ion  position               nearest neighbor table
   1  0.250  0.110  0.128-   5 2.57   6 2.65   6 2.65
   2  0.750  0.610  0.372-   6 2.57   5 2.65   5 2.65
   3  0.750  0.890  0.872-   7 2.57   8 2.65   8 2.65
   4  0.250  0.390  0.628-   8 2.57   7 2.65   7 2.65
   5  0.250  0.977  0.352-   1 2.57   2 2.65   2 2.65
   6  0.750  0.477  0.148-   2 2.57   1 2.65   1 2.65
   7  0.750  0.023  0.648-   3 2.57   4 2.65   4 2.65
   8  0.250  0.523  0.852-   4 2.57   3 2.65   3 2.65
 

IMPORTANT INFORMATION: All symmetrisations will be switched off!
NOSYMM: (Re-)initialisation of all symmetry stuff for point group C_1.


----------------------------------------------------------------------------------------

                                     Primitive cell                                     

  volume of cell :     207.8581

  direct lattice vectors                    reciprocal lattice vectors
     4.100000000  0.000000000  0.000000000     0.243902439  0.000000000  0.000000000
     0.000000000  4.550000000  0.000000000     0.000000000  0.219780220  0.000000000
     0.000000000  0.000000000 11.142221000     0.000000000  0.000000000  0.089748713

  length of vectors
     4.100000000  4.550000000 11.142221000     0.243902439  0.219780220  0.089748713

  position of ions in fractional coordinates (direct lattice)
     0.250000000  0.110093265  0.127826108
     0.750000000  0.610093265  0.372173892
     0.750000000  0.889906735  0.872173892
     0.250000000  0.389906735  0.627826108
     0.250000000  0.977065420  0.352324650
     0.750000000  0.477065420  0.147675350
     0.750000000  0.022934580  0.647675350
     0.250000000  0.522934580  0.852324650

  ion indices of the primitive-cell ions
   primitive index   ion index
                 1           1
                 2           2
                 3           3
                 4           4
                 5           5
                 6           6
                 7           7
                 8           8

----------------------------------------------------------------------------------------

 
 
 KPOINTS: KPOINTS created by Atomic Simulation Env

Automatic generation of k-mesh.
 Grid dimensions read from file:
 generate k-points for:    6    6    2

 Generating k-lattice:

  Cartesian coordinates                     Fractional coordinates (reciprocal lattice)
     0.040650407  0.000000000  0.000000000     0.166666667  0.000000000  0.000000000
     0.000000000  0.036630037  0.000000000     0.000000000  0.166666667  0.000000000
     0.000000000  0.000000000  0.044874357     0.000000000  0.000000000  0.500000000

  Length of vectors
     0.040650407  0.036630037  0.044874357

  Shift w.r.t. Gamma in fractional coordinates (k-lattice)
     0.000000000  0.000000000  0.000000000

 
 Subroutine IBZKPT returns following result:
 ===========================================
 
 Found     40 irreducible k-points:
 
 Following reciprocal coordinates:
            Coordinates               Weight
  0.000000  0.000000  0.000000      1.000000
  0.166667  0.000000  0.000000      2.000000
  0.333333  0.000000  0.000000      2.000000
  0.500000  0.000000  0.000000      1.000000
  0.000000  0.166667  0.000000      2.000000
  0.166667  0.166667  0.000000      2.000000
  0.166667 -0.166667  0.000000      2.000000
  0.333333  0.166667  0.000000      2.000000
  0.333333 -0.166667  0.000000      2.000000
  0.500000  0.166667  0.000000      2.000000
  0.000000  0.333333  0.000000      2.000000
  0.166667  0.333333  0.000000      2.000000
  0.166667 -0.333333  0.000000      2.000000
  0.333333  0.333333  0.000000      2.000000
  0.333333 -0.333333  0.000000      2.000000
  0.500000  0.333333  0.000000      2.000000
  0.000000  0.500000  0.000000      1.000000
  0.166667  0.500000  0.000000      2.000000
  0.333333  0.500000  0.000000      2.000000
  0.500000  0.500000  0.000000      1.000000
  0.000000  0.000000  0.500000      1.000000
  0.166667  0.000000  0.500000      2.000000
  0.333333  0.000000  0.500000      2.000000
  0.500000  0.000000  0.500000      1.000000
  0.000000  0.166667  0.500000      2.000000
  0.166667  0.166667  0.500000      2.000000
  0.166667 -0.166667  0.500000      2.000000
  0.333333  0.166667  0.500000      2.000000
  0.333333 -0.166667  0.500000      2.000000
  0.500000  0.166667  0.500000      2.000000
  0.000000  0.333333  0.500000      2.000000
  0.166667  0.333333  0.500000      2.000000
  0.166667 -0.333333  0.500000      2.000000
  0.333333  0.333333  0.500000      2.000000
  0.333333 -0.333333  0.500000      2.000000
  0.500000  0.333333  0.500000      2.000000
  0.000000  0.500000  0.500000      1.000000
  0.166667  0.500000  0.500000      2.000000
  0.333333  0.500000  0.500000      2.000000
  0.500000  0.500000  0.500000      1.000000
 
 Following cartesian coordinates:
            Coordinates               Weight
  0.000000  0.000000  0.000000      1.000000
  0.040650  0.000000  0.000000      2.000000
  0.081301  0.000000  0.000000      2.000000
  0.121951  0.000000  0.000000      1.000000
  0.000000  0.036630  0.000000      2.000000
  0.040650  0.036630  0.000000      2.000000
  0.040650 -0.036630  0.000000      2.000000
  0.081301  0.036630  0.000000      2.000000
  0.081301 -0.036630  0.000000      2.000000
  0.121951  0.036630  0.000000      2.000000
  0.000000  0.073260  0.000000      2.000000
  0.040650  0.073260  0.000000      2.000000
  0.040650 -0.073260  0.000000      2.000000
  0.081301  0.073260  0.000000      2.000000
  0.081301 -0.073260  0.000000      2.000000
  0.121951  0.073260  0.000000      2.000000
  0.000000  0.109890  0.000000      1.000000
  0.040650  0.109890  0.000000      2.000000
  0.081301  0.109890  0.000000      2.000000
  0.121951  0.109890  0.000000      1.000000
  0.000000  0.000000  0.044874      1.000000
  0.040650  0.000000  0.044874      2.000000
  0.081301  0.000000  0.044874      2.000000
  0.121951  0.000000  0.044874      1.000000
  0.000000  0.036630  0.044874      2.000000
  0.040650  0.036630  0.044874      2.000000
  0.040650 -0.036630  0.044874      2.000000
  0.081301  0.036630  0.044874      2.000000
  0.081301 -0.036630  0.044874      2.000000
  0.121951  0.036630  0.044874      2.000000
  0.000000  0.073260  0.044874      2.000000
  0.040650  0.073260  0.044874      2.000000
  0.040650 -0.073260  0.044874      2.000000
  0.081301  0.073260  0.044874      2.000000
  0.081301 -0.073260  0.044874      2.000000
  0.121951  0.073260  0.044874      2.000000
  0.000000  0.109890  0.044874      1.000000
  0.040650  0.109890  0.044874      2.000000
  0.081301  0.109890  0.044874      2.000000
  0.121951  0.109890  0.044874      1.000000
 


--------------------------------------------------------------------------------------------------------




 Dimension of arrays:
   k-points           NKPTS =     40   k-points in BZ     NKDIM =     40   number of bands    NBANDS=     32
   number of dos      NEDOS =    301   number of ions     NIONS =      8
   non local maximal  LDIM  =      5   non local SUM 2l+1 LMDIM =     13
   total plane-waves  NPLWV =  25920
   max r-space proj   IRMAX =      1   max aug-charges    IRDMAX=   6976
   dimension x,y,z NGX =    20 NGY =   24 NGZ =   54
   dimension x,y,z NGXF=    40 NGYF=   48 NGZF=  108
   support grid    NGXF=    40 NGYF=   48 NGZF=  108
   ions per type =               4   4
   NGX,Y,Z   is equivalent  to a cutoff of   8.11,  8.77,  8.06 a.u.
   NGXF,Y,Z  is equivalent  to a cutoff of  16.22, 17.54, 16.11 a.u.

 SYSTEM =  ./                                      
 POSCAR =  Ge Se                                   

 Startparameter for this run:
   NWRITE =      2    write-flag & timer
   PREC   = normal    normal or accurate (medium, high low for compatibility)
   ISTART =      0    job   : 0-new  1-cont  2-samecut
   ICHARG =      2    charge: 1-file 2-atom 10-const
   ISPIN  =      1    spin polarized calculation?
   LNONCOLLINEAR =      F non collinear calculations
   LSORBIT =      F    spin-orbit coupling
   INIWAV =      1    electr: 0-lowe 1-rand  2-diag
   LASPH  =      T    aspherical Exc in radial PAW
 Electronic Relaxation 1
   ENCUT  =  360.0 eV  26.46 Ry    5.14 a.u.   6.34  7.04 17.24*2*pi/ulx,y,z
   ENINI  =  360.0     initial cutoff
   ENAUG  =  446.8 eV  augmentation charge cutoff
   NELM   =    100;   NELMIN=  2; NELMDL= -5     # of ELM steps 
   EDIFF  = 0.1E-05   stopping-criterion for ELM
   LREAL  =      F    real-space projection
   NLSPLINE    = F    spline interpolate recip. space projectors
   LCOMPAT=      F    compatible to vasp.4.4
   GGA_COMPAT  = T    GGA compatible to vasp.4.4-vasp.4.6
   LMAXPAW     = -100 max onsite density
   LMAXMIX     =    4 max onsite mixed and CHGCAR
   VOSKOWN=      0    Vosko Wilk Nusair interpolation
   ROPT   =    0.00000   0.00000
 Ionic relaxation
   EDIFFG = 0.1E-04   stopping-criterion for IOM
   NSW    =      0    number of steps for IOM
   NBLOCK =      1;   KBLOCK =      1    inner block; outer block 
   IBRION =     -1    ionic relax: 0-MD 1-quasi-New 2-CG
   NFREE  =      0    steps in history (QN), initial steepest desc. (CG)
   ISIF   =      2    stress and relaxation
   IWAVPR =     10    prediction:  0-non 1-charg 2-wave 3-comb
   ISYM   =      0    0-nonsym 1-usesym 2-fastsym
   LCORR  =      T    Harris-Foulkes like correction to forces

   POTIM  = 0.5000    time-step for ionic-motion
   TEIN   =    0.0    initial temperature
   TEBEG  =    0.0;   TEEND  =   0.0 temperature during run
   SMASS  =  -3.00    Nose mass-parameter (am)
   estimated Nose-frequenzy (Omega)   =  0.10E-29 period in steps = 0.13E+47 mass=  -0.384E-27a.u.
   SCALEE = 1.0000    scale energy and forces
   NPACO  =    256;   APACO  = 10.0  distance and # of slots for P.C.
   PSTRESS=    0.0 pullay stress

  Mass of Ions in am
   POMASS =  72.61 78.96
  Ionic Valenz
   ZVAL   =   4.00  6.00
  Atomic Wigner-Seitz radii
   RWIGS  =  -1.00 -1.00
  virtual crystal weights 
   VCA    =   1.00  1.00
   NELECT =      40.0000    total number of electrons
   NUPDOWN=      -1.0000    fix difference up-down

 DOS related values:
   EMIN   =  10.00;   EMAX   =-10.00  energy-range for DOS
   EFERMI =   0.00;   METHOD = LEGACY      
   ISMEAR =     0;   SIGMA  =   0.05  broadening in eV -4-tet -1-fermi 0-gaus

 Electronic relaxation 2 (details)
   IALGO  =     38    algorithm
   LDIAG  =      T    sub-space diagonalisation (order eigenvalues)
   LSUBROT=      F    optimize rotation matrix (better conditioning)
   TURBO    =      0    0=normal 1=particle mesh
   IRESTART =      0    0=no restart 2=restart with 2 vectors
   NREBOOT  =      0    no. of reboots
   NMIN     =      0    reboot dimension
   EREF     =   0.00    reference energy to select bands
   IMIX   =      4    mixing-type and parameters
     AMIX     =   0.40;   BMIX     =  1.00
     AMIX_MAG =   1.60;   BMIX_MAG =  1.00
     AMIN     =   0.10
     WC   =   100.;   INIMIX=   1;  MIXPRE=   1;  MAXMIX= -45

 Intra band minimization:
   WEIMIN = 0.0000     energy-eigenvalue tresh-hold
   EBREAK =  0.78E-08  absolut break condition
   DEPER  =   0.30     relativ break condition  

   TIME   =   0.40     timestep for ELM

  volume/ion in A,a.u.               =      25.98       175.34
  Fermi-wavevector in a.u.,A,eV,Ry     =   0.945161  1.786095 12.154485  0.893329
  Thomas-Fermi vector in A             =   2.073036
 
 Write flags
   LWAVE        =      F    write WAVECAR
   LDOWNSAMPLE  =      F    k-point downsampling of WAVECAR
   LCHARG       =      F    write CHGCAR
   LVTOT        =      F    write LOCPOT, total local potential
   LVHAR        =      F    write LOCPOT, Hartree potential only
   LELF         =      F    write electronic localiz. function (ELF)
   LORBIT       =      0    0 simple, 1 ext, 2 COOP (PROOUT), +10 PAW based schemes


 Dipole corrections
   LMONO  =      F    monopole corrections only (constant potential shift)
   LDIPOL =      F    correct potential (dipole corrections)
   IDIPOL =      0    1-x, 2-y, 3-z, 4-all directions 
   EPSILON=  1.0000000 bulk dielectric constant

 Exchange correlation treatment:
   GGA     =    PE    GGA type
   LEXCH   =     8    internal setting for exchange type
   LIBXC   =     F    Libxc                    
   VOSKOWN =     0    Vosko Wilk Nusair interpolation
   LHFCALC =     F    Hartree Fock is set to
   LHFONE  =     F    Hartree Fock one center treatment
   AEXX    =    0.0000 exact exchange contribution

 Linear response parameters
   LEPSILON=     F    determine dielectric tensor
   LRPA    =     F    only Hartree local field effects (RPA)
   LNABLA  =     F    use nabla operator in PAW spheres
   LVEL    =     F    velocity operator in full k-point grid
   CSHIFT  =0.1000    complex shift for real part using Kramers Kronig
   OMEGAMAX=  -1.0    maximum frequency
   DEG_THRESHOLD= 0.2000000E-02 threshold for treating states as degnerate
   RTIME   =   -0.100 relaxation time in fs
  (WPLASMAI=    0.000 imaginary part of plasma frequency in eV, 0.658/RTIME)
   DFIELD  = 0.0000000 0.0000000 0.0000000 field for delta impulse in time
 
  Optional k-point grid parameters
   LKPOINTS_OPT  =     F    use optional k-point grid
   KPOINTS_OPT_MODE=     1    mode for optional k-point grid
 
 Orbital magnetization related:
   ORBITALMAG=     F  switch on orbital magnetization
   LCHIMAG   =     F  perturbation theory with respect to B field
   DQ        =  0.001000  dq finite difference perturbation B field
   LLRAUG    =     F  two centre corrections for induced B field
   LBONE     =     F  B-component reconstruction in AE one-centre
   LVGVCALC  =     T  calculate vGv susceptibility
   LVGVAPPL  =     F  apply vGv susceptibility instead of pGv for G=0

 Random number generation:
   RANDOM_GENERATOR = DEFAULT
   PCG_SEED         = not used


--------------------------------------------------------------------------------------------------------


 Static calculation
 charge density and potential will be updated during run
 non-spin polarized calculation
 Variant of blocked Davidson
 Davidson routine will perform the subspace rotation
 perform sub-space diagonalisation
    after iterative eigenvector-optimisation
 modified Broyden-mixing scheme, WC =      100.0
 initial mixing is a Kerker type mixing with AMIX =  0.4000 and BMIX =      1.0000
 Hartree-type preconditioning will be used
 using additional bands            12
 reciprocal scheme for non local part
 use partial core corrections
 calculate Harris-corrections to forces 
   (improved forces if not selfconsistent)
 use gradient corrections 
 use of overlap-Matrix (Vanderbilt PP)
 Gauss-broadening in eV      SIGMA  =   0.05


--------------------------------------------------------------------------------------------------------


  energy-cutoff  :      360.00
  volume of cell :      207.86
      direct lattice vectors                 reciprocal lattice vectors
     4.100000000  0.000000000  0.000000000     0.243902439  0.000000000  0.000000000
     0.000000000  4.550000000  0.000000000     0.000000000  0.219780220  0.000000000
     0.000000000  0.000000000 11.142221000     0.000000000  0.000000000  0.089748713

  length of vectors
     4.100000000  4.550000000 11.142221000     0.243902439  0.219780220  0.089748713


 
 k-points in units of 2pi/SCALE and weight: KPOINTS created by Atomic Simulation Env
   0.00000000  0.00000000  0.00000000       0.014
   0.04065041  0.00000000  0.00000000       0.028
   0.08130081  0.00000000  0.00000000       0.028
   0.12195122  0.00000000  0.00000000       0.014
   0.00000000  0.03663004  0.00000000       0.028
   0.04065041  0.03663004  0.00000000       0.028
   0.04065041 -0.03663004  0.00000000       0.028
   0.08130081  0.03663004  0.00000000       0.028
   0.08130081 -0.03663004  0.00000000       0.028
   0.12195122  0.03663004  0.00000000       0.028
   0.00000000  0.07326007  0.00000000       0.028
   0.04065041  0.07326007  0.00000000       0.028
   0.04065041 -0.07326007  0.00000000       0.028
   0.08130081  0.07326007  0.00000000       0.028
   0.08130081 -0.07326007  0.00000000       0.028
   0.12195122  0.07326007  0.00000000       0.028
   0.00000000  0.10989011  0.00000000       0.014
   0.04065041  0.10989011  0.00000000       0.028
   0.08130081  0.10989011  0.00000000       0.028
   0.12195122  0.10989011  0.00000000       0.014
   0.00000000  0.00000000  0.04487436       0.014
   0.04065041  0.00000000  0.04487436       0.028
   0.08130081  0.00000000  0.04487436       0.028
   0.12195122  0.00000000  0.04487436       0.014
   0.00000000  0.03663004  0.04487436       0.028
   0.04065041  0.03663004  0.04487436       0.028
   0.04065041 -0.03663004  0.04487436       0.028
   0.08130081  0.03663004  0.04487436       0.028
   0.08130081 -0.03663004  0.04487436       0.028
   0.12195122  0.03663004  0.04487436       0.028
   0.00000000  0.07326007  0.04487436       0.028
   0.04065041  0.07326007  0.04487436       0.028
   0.04065041 -0.07326007  0.04487436       0.028
   0.08130081  0.07326007  0.04487436       0.028
   0.08130081 -0.07326007  0.04487436       0.028
   0.12195122  0.07326007  0.04487436       0.028
   0.00000000  0.10989011  0.04487436       0.014
   0.04065041  0.10989011  0.04487436       0.028
   0.08130081  0.10989011  0.04487436       0.028
   0.12195122  0.10989011  0.04487436       0.014
 
 k-points in reciprocal lattice and weights: KPOINTS created by Atomic Simulation Env
   0.00000000  0.00000000  0.00000000       0.014
   0.16666667  0.00000000  0.00000000       0.028
   0.33333333  0.00000000  0.00000000       0.028
   0.50000000  0.00000000  0.00000000       0.014
   0.00000000  0.16666667  0.00000000       0.028
   0.16666667  0.16666667  0.00000000       0.028
   0.16666667 -0.16666667  0.00000000       0.028
   0.33333333  0.16666667  0.00000000       0.028
   0.33333333 -0.16666667  0.00000000       0.028
   0.50000000  0.16666667  0.00000000       0.028
   0.00000000  0.33333333  0.00000000       0.028
   0.16666667  0.33333333  0.00000000       0.028
   0.16666667 -0.33333333  0.00000000       0.028
   0.33333333  0.33333333  0.00000000       0.028
   0.33333333 -0.33333333  0.00000000       0.028
   0.50000000  0.33333333  0.00000000       0.028
   0.00000000  0.50000000  0.00000000       0.014
   0.16666667  0.50000000  0.00000000       0.028
   0.33333333  0.50000000  0.00000000       0.028
   0.50000000  0.50000000  0.00000000       0.014
   0.00000000  0.00000000  0.50000000       0.014
   0.16666667  0.00000000  0.50000000       0.028
   0.33333333  0.00000000  0.50000000       0.028
   0.50000000  0.00000000  0.50000000       0.014
   0.00000000  0.16666667  0.50000000       0.028
   0.16666667  0.16666667  0.50000000       0.028
   0.16666667 -0.16666667  0.50000000       0.028
   0.33333333  0.16666667  0.50000000       0.028
   0.33333333 -0.16666667  0.50000000       0.028
   0.50000000  0.16666667  0.50000000       0.028
   0.00000000  0.33333333  0.50000000       0.028
   0.16666667  0.33333333  0.50000000       0.028
   0.16666667 -0.33333333  0.50000000       0.028
   0.33333333  0.33333333  0.50000000       0.028
   0.33333333 -0.33333333  0.50000000       0.028
   0.50000000  0.33333333  0.50000000       0.028
   0.00000000  0.50000000  0.50000000       0.014
   0.16666667  0.50000000  0.50000000       0.028
   0.33333333  0.50000000  0.50000000       0.028
   0.50000000  0.50000000  0.50000000       0.014
 
 position of ions in fractional coordinates (direct lattice) 
   0.25000000  0.11009326  0.12782611
   0.75000000  0.61009326  0.37217389
   0.75000000  0.88990674  0.87217389
   0.25000000  0.38990674  0.62782611
   0.25000000  0.97706542  0.35232465
   0.75000000  0.47706542  0.14767535
   0.75000000  0.02293458  0.64767535
   0.25000000  0.52293458  0.85232465
 
 position of ions in cartesian coordinates  (Angst):
   1.02500000  0.50092436  1.42426674
   3.07500000  2.77592436  4.14684376
   3.07500000  4.04907564  9.71795426
   1.02500000  1.77407564  6.99537724
   1.02500000  4.44564766  3.92567911
   3.07500000  2.17064766  1.64543139
   3.07500000  0.10435234  7.21654189
   1.02500000  2.37935234  9.49678961
 


--------------------------------------------------------------------------------------------------------


 k-point   1 :   0.0000 0.0000 0.0000  plane waves:    3249
 k-point   2 :   0.1667 0.0000 0.0000  plane waves:    3225
 k-point   3 :   0.3333 0.0000 0.0000  plane waves:    3191
 k-point   4 :   0.5000 0.0000 0.0000  plane waves:    3232
 k-point   5 :   0.0000 0.1667 0.0000  plane waves:    3254
 k-point   6 :   0.1667 0.1667 0.0000  plane waves:    3220
 k-point   7 :   0.1667-0.1667 0.0000  plane waves:    3220
 k-point   8 :   0.3333 0.1667 0.0000  plane waves:    3203
 k-point   9 :   0.3333-0.1667 0.0000  plane waves:    3203
 k-point  10 :   0.5000 0.1667 0.0000  plane waves:    3204
 k-point  11 :   0.0000 0.3333 0.0000  plane waves:    3216
 k-point  12 :   0.1667 0.3333 0.0000  plane waves:    3224
 k-point  13 :   0.1667-0.3333 0.0000  plane waves:    3224
 k-point  14 :   0.3333 0.3333 0.0000  plane waves:    3243
 k-point  15 :   0.3333-0.3333 0.0000  plane waves:    3243
 k-point  16 :   0.5000 0.3333 0.0000  plane waves:    3232
 k-point  17 :   0.0000 0.5000 0.0000  plane waves:    3210
 k-point  18 :   0.1667 0.5000 0.0000  plane waves:    3232
 k-point  19 :   0.3333 0.5000 0.0000  plane waves:    3228
 k-point  20 :   0.5000 0.5000 0.0000  plane waves:    3236
 k-point  21 :   0.0000 0.0000 0.5000  plane waves:    3230
 k-point  22 :   0.1667 0.0000 0.5000  plane waves:    3234
 k-point  23 :   0.3333 0.0000 0.5000  plane waves:    3192
 k-point  24 :   0.5000 0.0000 0.5000  plane waves:    3196
 k-point  25 :   0.0000 0.1667 0.5000  plane waves:    3228
 k-point  26 :   0.1667 0.1667 0.5000  plane waves:    3220
 k-point  27 :   0.1667-0.1667 0.5000  plane waves:    3220
 k-point  28 :   0.3333 0.1667 0.5000  plane waves:    3202
 k-point  29 :   0.3333-0.1667 0.5000  plane waves:    3202
 k-point  30 :   0.5000 0.1667 0.5000  plane waves:    3232
 k-point  31 :   0.0000 0.3333 0.5000  plane waves:    3236
 k-point  32 :   0.1667 0.3333 0.5000  plane waves:    3232
 k-point  33 :   0.1667-0.3333 0.5000  plane waves:    3232
 k-point  34 :   0.3333 0.3333 0.5000  plane waves:    3232
 k-point  35 :   0.3333-0.3333 0.5000  plane waves:    3232
 k-point  36 :   0.5000 0.3333 0.5000  plane waves:    3236
 k-point  37 :   0.0000 0.5000 0.5000  plane waves:    3224
 k-point  38 :   0.1667 0.5000 0.5000  plane waves:    3248
 k-point  39 :   0.3333 0.5000 0.5000  plane waves:    3256
 k-point  40 :   0.5000 0.5000 0.5000  plane waves:    3216

 maximum and minimum number of plane-waves per node :       834      779

 maximum number of plane-waves:      3256
 maximum index in each direction: 
   IXMAX=    6   IYMAX=    7   IZMAX=   17
   IXMIN=   -6   IYMIN=   -7   IZMIN=  -17


 parallel 3D FFT for wavefunctions:
    minimum data exchange during FFTs selected (reduces bandwidth)
 parallel 3D FFT for charge:
    minimum data exchange during FFTs selected (reduces bandwidth)


 total amount of memory used by VASP MPI-rank0    39077. kBytes
=======================================================================

   base      :      30000. kBytes
   nonl-proj :       7028. kBytes
   fftplans  :        373. kBytes
   grid      :        555. kBytes
   one-center:         16. kBytes
   wavefun   :       1105. kBytes
 
     INWAV:  cpu time      0.0000: real time      0.0001
 Broyden mixing: mesh for mixing (old mesh)
   NGX = 13   NGY = 15   NGZ = 35
  (NGX  = 40   NGY  = 48   NGZ  =108)
  gives a total of   6825 points

 initial charge density was supplied:
 charge density of overlapping atoms calculated
 number of electron      40.0000000 magnetization 
 keeping initial charge density in first step


--------------------------------------------------------------------------------------------------------


 Maximum index for augmentation-charges            99 (set IRDMAX)


--------------------------------------------------------------------------------------------------------


 First call to EWALD:  gamma=   0.299
 Maximum number of real-space cells 4x 3x 2
 Maximum number of reciprocal cells 2x 2x 5

    FEWALD:  cpu time      0.0008: real time      0.0008


--------------------------------------- Ionic step        1  -------------------------------------------




--------------------------------------- Iteration      1(   1)  ---------------------------------------


    POTLOK:  cpu time      0.0062: real time      0.0066
    SETDIJ:  cpu time      0.1387: real time      0.1394
     EDDAV:  cpu time      0.2776: real time      0.2803
       DOS:  cpu time      0.0014: real time      0.0014
    --------------------------------------------
      LOOP:  cpu time      0.4239: real time      0.4276

 eigenvalue-minimisations  :  2560
 total energy-change (2. order) : 0.1309305E+03  (-0.1267619E+04)
 number of electron      40.0000000 magnetization 
 augmentation part       40.0000000 magnetization 

 Free energy of the ion-electron system (eV)
  ---------------------------------------------------
  alpha Z        PSCENC =        81.51928056
  Ewald energy   TEWEN  =     -1380.39148927
  -Hartree energ DENC   =      -141.26448777
  -exchange      EXHF   =         0.00000000
  -V(xc)+E(xc)   XCENC  =       -34.27446487
  PAW double counting   =      1193.78262552    -1080.73714043
  entropy T*S    EENTRO =        -0.00420047
  eigenvalues    EBANDS =        43.81573071
  atomic energy  EATOM  =      1448.48460880
  Solvation  Ediel_sol  =         0.00000000
  ---------------------------------------------------
  free energy    TOTEN  =       130.93046277 eV

  energy without entropy =      130.93466325  energy(sigma->0) =      130.93256301


--------------------------------------------------------------------------------------------------------




--------------------------------------- Iteration      1(   2)  ---------------------------------------


     EDDAV:  cpu time      0.3355: real time      0.3386
       DOS:  cpu time      0.0006: real time      0.0006
    --------------------------------------------
      LOOP:  cpu time      0.3360: real time      0.3392

 eigenvalue-minimisations  :  3744
 total energy-change (2. order) :-0.1560447E+03  (-0.1515674E+03)
 number of electron      40.0000000 magnetization 
 augmentation part       40.0000000 magnetization 

 Free energy of the ion-electron system (eV)
  ---------------------------------------------------
  alpha Z        PSCENC =        81.51928056
  Ewald energy   TEWEN  =     -1380.39148927
  -Hartree energ DENC   =      -141.26448777
  -exchange      EXHF   =         0.00000000
  -V(xc)+E(xc)   XCENC  =       -34.27446487
  PAW double counting   =      1193.78262552    -1080.73714043
  entropy T*S    EENTRO =        -0.00000000
  eigenvalues    EBANDS =      -112.23319831
  atomic energy  EATOM  =      1448.48460880
  Solvation  Ediel_sol  =         0.00000000
  ---------------------------------------------------
  free energy    TOTEN  =       -25.11426577 eV

  energy without entropy =      -25.11426577  energy(sigma->0) =      -25.11426577


--------------------------------------------------------------------------------------------------------




--------------------------------------- Iteration      1(   3)  ---------------------------------------


     EDDAV:  cpu time      0.2990: real time      0.3022
       DOS:  cpu time      0.0005: real time      0.0005
    --------------------------------------------
      LOOP:  cpu time      0.2996: real time      0.3028

 eigenvalue-minimisations  :  3136
 total energy-change (2. order) :-0.8994068E+01  (-0.8973448E+01)
 number of electron      40.0000000 magnetization 
 augmentation part       40.0000000 magnetization 

 Free energy of the ion-electron system (eV)
  ---------------------------------------------------
  alpha Z        PSCENC =        81.51928056
  Ewald energy   TEWEN  =     -1380.39148927
  -Hartree energ DENC   =      -141.26448777
  -exchange      EXHF   =         0.00000000
  -V(xc)+E(xc)   XCENC  =       -34.27446487
  PAW double counting   =      1193.78262552    -1080.73714043
  entropy T*S    EENTRO =        -0.00000000
  eigenvalues    EBANDS =      -121.22726624
  atomic energy  EATOM  =      1448.48460880
  Solvation  Ediel_sol  =         0.00000000
  ---------------------------------------------------
  free energy    TOTEN  =       -34.10833371 eV

  energy without entropy =      -34.10833371  energy(sigma->0) =      -34.10833371


--------------------------------------------------------------------------------------------------------




--------------------------------------- Iteration      1(   4)  ---------------------------------------


     EDDAV:  cpu time      0.3090: real time      0.3126
       DOS:  cpu time      0.0006: real time      0.0006
    --------------------------------------------
      LOOP:  cpu time      0.3096: real time      0.3131

 eigenvalue-minimisations  :  3264
 total energy-change (2. order) :-0.6452866E-01  (-0.6452070E-01)
 number of electron      40.0000000 magnetization 
 augmentation part       40.0000000 magnetization 

 Free energy of the ion-electron system (eV)
  ---------------------------------------------------
  alpha Z        PSCENC =        81.51928056
  Ewald energy   TEWEN  =     -1380.39148927
  -Hartree energ DENC   =      -141.26448777
  -exchange      EXHF   =         0.00000000
  -V(xc)+E(xc)   XCENC  =       -34.27446487
  PAW double counting   =      1193.78262552    -1080.73714043
  entropy T*S    EENTRO =        -0.00000000
  eigenvalues    EBANDS =      -121.29179490
  atomic energy  EATOM  =      1448.48460880
  Solvation  Ediel_sol  =         0.00000000
  ---------------------------------------------------
  free energy    TOTEN  =       -34.17286237 eV

  energy without entropy =      -34.17286237  energy(sigma->0) =      -34.17286237


--------------------------------------------------------------------------------------------------------




--------------------------------------- Iteration      1(   5)  ---------------------------------------


     EDDAV:  cpu time      0.3084: real time      0.3118
       DOS:  cpu time      0.0006: real time      0.0006
    CHARGE:  cpu time      0.0050: real time      0.0051
    MIXING:  cpu time      0.0007: real time      0.0007
    --------------------------------------------
      LOOP:  cpu time      0.3147: real time      0.3182

 eigenvalue-minimisations  :  3232
 total energy-change (2. order) :-0.4034157E-03  (-0.4034064E-03)
 number of electron      39.9999993 magnetization 
 augmentation part       -7.4063246 magnetization 

 Broyden mixing:
  rms(total) = 0.61752E+00    rms(broyden)= 0.61751E+00
  rms(prec ) = 0.71885E+00
  weight for this iteration     100.00

 Free energy of the ion-electron system (eV)
  ---------------------------------------------------
  alpha Z        PSCENC =        81.51928056
  Ewald energy   TEWEN  =     -1380.39148927
  -Hartree energ DENC   =      -141.26448777
  -exchange      EXHF   =         0.00000000
  -V(xc)+E(xc)   XCENC  =       -34.27446487
  PAW double counting   =      1193.78262552    -1080.73714043
  entropy T*S    EENTRO =        -0.00000000
  eigenvalues    EBANDS =      -121.29219832
  atomic energy  EATOM  =      1448.48460880
  Solvation  Ediel_sol  =         0.00000000
  ---------------------------------------------------
  free energy    TOTEN  =       -34.17326578 eV

  energy without entropy =      -34.17326578  energy(sigma->0) =      -34.17326578


--------------------------------------------------------------------------------------------------------




--------------------------------------- Iteration      1(   6)  ---------------------------------------


    POTLOK:  cpu time      0.0058: real time      0.0060
    SETDIJ:  cpu time      0.1380: real time      0.1387
     EDDAV:  cpu time      0.3057: real time      0.3089
       DOS:  cpu time      0.0009: real time      0.0009
    CHARGE:  cpu time      0.0065: real time      0.0065
    MIXING:  cpu time      0.0006: real time      0.0006
    --------------------------------------------
      LOOP:  cpu time      0.4576: real time      0.4616

 eigenvalue-minimisations  :  2992
 total energy-change (2. order) : 0.4655543E+00  (-0.9940442E-01)
 number of electron      39.9999992 magnetization 
 augmentation part       -7.3424083 magnetization 

 Broyden mixing:
  rms(total) = 0.38501E+00    rms(broyden)= 0.38501E+00
  rms(prec ) = 0.40875E+00
  weight for this iteration     100.00

 eigenvalues of (default mixing * dielectric matrix)
  average eigenvalue GAMMA=   2.0224
  2.0224

 Free energy of the ion-electron system (eV)
  ---------------------------------------------------
  alpha Z        PSCENC =        81.51928056
  Ewald energy   TEWEN  =     -1380.39148927
  -Hartree energ DENC   =      -147.71285373
  -exchange      EXHF   =         0.00000000
  -V(xc)+E(xc)   XCENC  =       -33.64427643
  PAW double counting   =      1435.76912032    -1323.01754041
  entropy T*S    EENTRO =        -0.00000000
  eigenvalues    EBANDS =      -114.71456135
  atomic energy  EATOM  =      1448.48460880
  Solvation  Ediel_sol  =         0.00000000
  ---------------------------------------------------
  free energy    TOTEN  =       -33.70771151 eV

  energy without entropy =      -33.70771151  energy(sigma->0) =      -33.70771151


--------------------------------------------------------------------------------------------------------




--------------------------------------- Iteration      1(   7)  ---------------------------------------


    POTLOK:  cpu time      0.0057: real time      0.0059
    SETDIJ:  cpu time      0.1405: real time      0.1411
     EDDAV:  cpu time      0.2841: real time      0.2869
       DOS:  cpu time      0.0006: real time      0.0006
    CHARGE:  cpu time      0.0045: real time      0.0046
    MIXING:  cpu time      0.0006: real time      0.0006
    --------------------------------------------
      LOOP:  cpu time      0.4360: real time      0.4397

 eigenvalue-minimisations  :  3008
 total energy-change (2. order) : 0.1011465E-01  (-0.2504622E-01)
 number of electron      39.9999992 magnetization 
 augmentation part       -7.3341590 magnetization 

 Broyden mixing:
  rms(total) = 0.14608E+00    rms(broyden)= 0.14608E+00
  rms(prec ) = 0.15567E+00
  weight for this iteration     100.00

 eigenvalues of (default mixing * dielectric matrix)
  average eigenvalue GAMMA=   1.7816
  1.1804  2.3827

 Free energy of the ion-electron system (eV)
  ---------------------------------------------------
  alpha Z        PSCENC =        81.51928056
  Ewald energy   TEWEN  =     -1380.39148927
  -Hartree energ DENC   =      -149.99265553
  -exchange      EXHF   =         0.00000000
  -V(xc)+E(xc)   XCENC  =       -33.22705505
  PAW double counting   =      1704.89288486    -1592.32109798
  entropy T*S    EENTRO =        -0.00000000
  eigenvalues    EBANDS =      -112.66207324
  atomic energy  EATOM  =      1448.48460880
  Solvation  Ediel_sol  =         0.00000000
  ---------------------------------------------------
  free energy    TOTEN  =       -33.69759686 eV

  energy without entropy =      -33.69759686  energy(sigma->0) =      -33.69759686


--------------------------------------------------------------------------------------------------------




--------------------------------------- Iteration      1(   8)  ---------------------------------------


    POTLOK:  cpu time      0.0056: real time      0.0058
    SETDIJ:  cpu time      0.1375: real time      0.1382
     EDDAV:  cpu time      0.3098: real time      0.3144
       DOS:  cpu time      0.0006: real time      0.0006
    CHARGE:  cpu time      0.0045: real time      0.0045
    MIXING:  cpu time      0.0006: real time      0.0006
    --------------------------------------------
      LOOP:  cpu time      0.4586: real time      0.4641

 eigenvalue-minimisations  :  3008
 total energy-change (2. order) : 0.6389995E-03  (-0.2470489E-02)
 number of electron      39.9999992 magnetization 
 augmentation part       -7.3442722 magnetization 

 Broyden mixing:
  rms(total) = 0.17733E-01    rms(broyden)= 0.17733E-01
  rms(prec ) = 0.22808E-01
  weight for this iteration     100.00

 eigenvalues of (default mixing * dielectric matrix)
  average eigenvalue GAMMA=   1.6486
  2.4645  1.2406  1.2406

 Free energy of the ion-electron system (eV)
  ---------------------------------------------------
  alpha Z        PSCENC =        81.51928056
  Ewald energy   TEWEN  =     -1380.39148927
  -Hartree energ DENC   =      -150.17070252
  -exchange      EXHF   =         0.00000000
  -V(xc)+E(xc)   XCENC  =       -33.06202998
  PAW double counting   =      1855.62707093    -1743.11512568
  entropy T*S    EENTRO =        -0.00000000
  eigenvalues    EBANDS =      -112.58857068
  atomic energy  EATOM  =      1448.48460880
  Solvation  Ediel_sol  =         0.00000000
  ---------------------------------------------------
  free energy    TOTEN  =       -33.69695786 eV

  energy without entropy =      -33.69695786  energy(sigma->0) =      -33.69695786


--------------------------------------------------------------------------------------------------------




--------------------------------------- Iteration      1(   9)  ---------------------------------------


    POTLOK:  cpu time      0.0055: real time      0.0057
    SETDIJ:  cpu time      0.1374: real time      0.1383
     EDDAV:  cpu time      0.2913: real time      0.2942
       DOS:  cpu time      0.0005: real time      0.0005
    CHARGE:  cpu time      0.0045: real time      0.0045
    MIXING:  cpu time      0.0005: real time      0.0005
    --------------------------------------------
      LOOP:  cpu time      0.4398: real time      0.4438

 eigenvalue-minimisations  :  3104
 total energy-change (2. order) :-0.9411046E-04  (-0.4150453E-03)
 number of electron      39.9999992 magnetization 
 augmentation part       -7.3413935 magnetization 

 Broyden mixing:
  rms(total) = 0.68771E-02    rms(broyden)= 0.68771E-02
  rms(prec ) = 0.79784E-02
  weight for this iteration     100.00

 eigenvalues of (default mixing * dielectric matrix)
  average eigenvalue GAMMA=   1.7625
  2.3768  2.3768  1.1482  1.1482

 Free energy of the ion-electron system (eV)
  ---------------------------------------------------
  alpha Z        PSCENC =        81.51928056
  Ewald energy   TEWEN  =     -1380.39148927
  -Hartree energ DENC   =      -150.59432662
  -exchange      EXHF   =         0.00000000
  -V(xc)+E(xc)   XCENC  =       -33.02203758
  PAW double counting   =      1866.21696773    -1753.71393303
  entropy T*S    EENTRO =        -0.00000000
  eigenvalues    EBANDS =      -112.19612256
  atomic energy  EATOM  =      1448.48460880
  Solvation  Ediel_sol  =         0.00000000
  ---------------------------------------------------
  free energy    TOTEN  =       -33.69705197 eV

  energy without entropy =      -33.69705197  energy(sigma->0) =      -33.69705197


--------------------------------------------------------------------------------------------------------




--------------------------------------- Iteration      1(  10)  ---------------------------------------


    POTLOK:  cpu time      0.0052: real time      0.0054
    SETDIJ:  cpu time      0.1382: real time      0.1386
     EDDAV:  cpu time      0.2164: real time      0.2176
       DOS:  cpu time      0.0004: real time      0.0004
    CHARGE:  cpu time      0.0038: real time      0.0038
    MIXING:  cpu time      0.0003: real time      0.0003
    --------------------------------------------
      LOOP:  cpu time      0.3643: real time      0.3661

 eigenvalue-minimisations  :  3008
 total energy-change (2. order) :-0.1177732E-03  (-0.4118099E-04)
 number of electron      39.9999992 magnetization 
 augmentation part       -7.3412048 magnetization 

 Broyden mixing:
  rms(total) = 0.23430E-02    rms(broyden)= 0.23430E-02
  rms(prec ) = 0.28851E-02
  weight for this iteration     100.00

 eigenvalues of (default mixing * dielectric matrix)
  average eigenvalue GAMMA=   1.7440
  2.7343  2.5226  1.1860  1.1860  1.0909

 Free energy of the ion-electron system (eV)
  ---------------------------------------------------
  alpha Z        PSCENC =        81.51928056
  Ewald energy   TEWEN  =     -1380.39148927
  -Hartree energ DENC   =      -150.64295329
  -exchange      EXHF   =         0.00000000
  -V(xc)+E(xc)   XCENC  =       -33.01739154
  PAW double counting   =      1860.53709582    -1748.02968052
  entropy T*S    EENTRO =        -0.00000000
  eigenvalues    EBANDS =      -112.15664030
  atomic energy  EATOM  =      1448.48460880
  Solvation  Ediel_sol  =         0.00000000
  ---------------------------------------------------
  free energy    TOTEN  =       -33.69716974 eV

  energy without entropy =      -33.69716974  energy(sigma->0) =      -33.69716974


--------------------------------------------------------------------------------------------------------




--------------------------------------- Iteration      1(  11)  ---------------------------------------


    POTLOK:  cpu time      0.0040: real time      0.0042
    SETDIJ:  cpu time      0.1366: real time      0.1369
     EDDAV:  cpu time      0.1800: real time      0.1811
       DOS:  cpu time      0.0003: real time      0.0003
    CHARGE:  cpu time      0.0059: real time      0.0059
    MIXING:  cpu time      0.0004: real time      0.0004
    --------------------------------------------
      LOOP:  cpu time      0.3272: real time      0.3288

 eigenvalue-minimisations  :  2880
 total energy-change (2. order) :-0.2190642E-04  (-0.4166905E-05)
 number of electron      39.9999992 magnetization 
 augmentation part       -7.3415155 magnetization 

 Broyden mixing:
  rms(total) = 0.13054E-02    rms(broyden)= 0.13054E-02
  rms(prec ) = 0.14850E-02
  weight for this iteration     100.00

 eigenvalues of (default mixing * dielectric matrix)
  average eigenvalue GAMMA=   1.7534
  2.6876  2.6876  1.8668  1.1214  1.1214  1.0355

 Free energy of the ion-electron system (eV)
  ---------------------------------------------------
  alpha Z        PSCENC =        81.51928056
  Ewald energy   TEWEN  =     -1380.39148927
  -Hartree energ DENC   =      -150.66221525
  -exchange      EXHF   =         0.00000000
  -V(xc)+E(xc)   XCENC  =       -33.01214606
  PAW double counting   =      1861.74199431    -1749.23472599
  entropy T*S    EENTRO =        -0.00000000
  eigenvalues    EBANDS =      -112.14249874
  atomic energy  EATOM  =      1448.48460880
  Solvation  Ediel_sol  =         0.00000000
  ---------------------------------------------------
  free energy    TOTEN  =       -33.69719165 eV

  energy without entropy =      -33.69719165  energy(sigma->0) =      -33.69719165


--------------------------------------------------------------------------------------------------------




--------------------------------------- Iteration      1(  12)  ---------------------------------------


    POTLOK:  cpu time      0.0042: real time      0.0057
    SETDIJ:  cpu time      0.1172: real time      0.1175
     EDDAV:  cpu time      0.1974: real time      0.1984
       DOS:  cpu time      0.0003: real time      0.0003
    --------------------------------------------
      LOOP:  cpu time      0.3191: real time      0.3220

 eigenvalue-minimisations  :  3248
 total energy-change (2. order) :-0.9450753E-07  (-0.7565333E-06)
 number of electron      39.9999992 magnetization 
 augmentation part       -7.3415155 magnetization 

 Free energy of the ion-electron system (eV)
  ---------------------------------------------------
  alpha Z        PSCENC =        81.51928056
  Ewald energy   TEWEN  =     -1380.39148927
  -Hartree energ DENC   =      -150.67549426
  -exchange      EXHF   =         0.00000000
  -V(xc)+E(xc)   XCENC  =       -33.01091893
  PAW double counting   =      1860.81626868    -1748.30860606
  entropy T*S    EENTRO =        -0.00000000
  eigenvalues    EBANDS =      -112.13084126
  atomic energy  EATOM  =      1448.48460880
  Solvation  Ediel_sol  =         0.00000000
  ---------------------------------------------------
  free energy    TOTEN  =       -33.69719174 eV

  energy without entropy =      -33.69719174  energy(sigma->0) =      -33.69719174


--------------------------------------------------------------------------------------------------------




 average (electrostatic) potential at core
  the test charge radii are     1.1631  1.0808
  (the norm of the test charge is              1.0000)
       1 -34.1089       2 -34.1089       3 -34.1089       4 -34.1089       5 -55.4698
       6 -55.4698       7 -55.4698       8 -55.4698
 
 
 
 E-fermi :   2.6716     XC(G=0):  -8.9823     alpha+bet : -8.1212

 Fermi energy:         2.6716479332

 k-point     1 :       0.0000    0.0000    0.0000
  band No.  band energies     occupation 
      1     -11.2110      2.00000
      2     -10.9396      2.00000
      3      -9.9791      2.00000
      4      -9.5954      2.00000
      5      -5.2804      2.00000
      6      -4.7708      2.00000
      7      -3.1749      2.00000
      8      -2.9796      2.00000
      9      -2.0756      2.00000
     10      -0.6989      2.00000
     11      -0.5291      2.00000
     12      -0.4887      2.00000
     13      -0.3406      2.00000
     14      -0.2504      2.00000
     15       0.5732      2.00000
     16       1.1181      2.00000
     17       1.3269      2.00000
     18       1.9515      2.00000
     19       2.0427      2.00000
     20       2.3686      2.00000
     21       3.8124      0.00000
     22       4.8013      0.00000
     23       4.8111      0.00000
     24       5.0594      0.00000
     25       5.2888      0.00000
     26       5.8386      0.00000
     27       5.9585      0.00000
     28       6.3982      0.00000
     29       7.3283      0.00000
     30       7.5048      0.00000
     31       8.1256      0.00000
     32       8.1548      0.00000

 k-point     2 :       0.1667    0.0000    0.0000
  band No.  band energies     occupation 
      1     -11.0535      2.00000
      2     -10.7966      2.00000
      3      -9.9098      2.00000
      4      -9.5833      2.00000
      5      -5.4649      2.00000
      6      -5.0041      2.00000
      7      -3.5962      2.00000
      8      -3.5211      2.00000
      9      -1.8937      2.00000
     10      -0.8045      2.00000
     11      -0.5223      2.00000
     12      -0.3442      2.00000
     13      -0.2873      2.00000
     14      -0.0477      2.00000
     15       0.7654      2.00000
     16       0.8424      2.00000
     17       1.4118      2.00000
     18       2.0132      2.00000
     19       2.0842      2.00000
     20       2.1880      2.00000
     21       3.9605      0.00000
     22       4.7401      0.00000
     23       5.0463      0.00000
     24       5.3975      0.00000
     25       5.4352      0.00000
     26       5.5825      0.00000
     27       5.8275      0.00000
     28       6.0908      0.00000
     29       6.5374      0.00000
     30       7.2541      0.00000
     31       7.4731      0.00000
     32       7.9252      0.00000

 k-point     3 :       0.3333    0.0000    0.0000
  band No.  band energies     occupation 
      1     -10.6224      2.00000
      2     -10.4199      2.00000
      3      -9.8245      2.00000
      4      -9.6765      2.00000
      5      -5.7703      2.00000
      6      -5.3307      2.00000
      7      -4.7419      2.00000
      8      -4.3584      2.00000
      9      -1.3783      2.00000
     10      -0.6770      2.00000
     11      -0.4162      2.00000
     12      -0.0124      2.00000
     13       0.2161      2.00000
     14       0.2421      2.00000
     15       0.6801      2.00000
     16       1.0397      2.00000
     17       1.3878      2.00000
     18       1.6081      2.00000
     19       1.8150      2.00000
     20       1.9450      2.00000
     21       3.7983      0.00000
     22       4.1615      0.00000
     23       4.4550      0.00000
     24       4.8505      0.00000
     25       4.9632      0.00000
     26       5.3367      0.00000
     27       5.3950      0.00000
     28       6.0921      0.00000
     29       6.5073      0.00000
     30       6.6204      0.00000
     31       6.8892      0.00000
     32       7.7280      0.00000

 k-point     4 :       0.5000    0.0000    0.0000
  band No.  band energies     occupation 
      1     -10.0697      2.00000
      2     -10.0697      2.00000
      3      -9.9980      2.00000
      4      -9.9980      2.00000
      5      -5.5985      2.00000
      6      -5.5985      2.00000
      7      -5.1240      2.00000
      8      -5.1240      2.00000
      9      -0.7433      2.00000
     10      -0.7433      2.00000
     11       0.0020      2.00000
     12       0.0020      2.00000
     13       0.4096      2.00000
     14       0.4096      2.00000
     15       0.9110      2.00000
     16       0.9110      2.00000
     17       1.3443      2.00000
     18       1.3443      2.00000
     19       1.5401      2.00000
     20       1.5401      2.00000
     21       3.8792      0.00000
     22       3.8792      0.00000
     23       4.3319      0.00000
     24       4.3319      0.00000
     25       4.9059      0.00000
     26       4.9059      0.00000
     27       5.3012      0.00000
     28       5.3012      0.00000
     29       6.2440      0.00000
     30       6.2440      0.00000
     31       7.2128      0.00000
     32       7.2128      0.00000

 k-point     5 :       0.0000    0.1667    0.0000
  band No.  band energies     occupation 
      1     -11.1047      2.00000
      2     -10.8404      2.00000
      3     -10.0048      2.00000
      4      -9.6583      2.00000
      5      -5.4674      2.00000
      6      -4.8022      2.00000
      7      -3.7530      2.00000
      8      -3.2942      2.00000
      9      -1.8706      2.00000
     10      -0.5609      2.00000
     11      -0.3496      2.00000
     12      -0.2158      2.00000
     13      -0.0108      2.00000
     14       0.0716      2.00000
     15       0.6050      2.00000
     16       1.0869      2.00000
     17       1.5298      2.00000
     18       1.6617      2.00000
     19       2.1840      2.00000
     20       2.2764      2.00000
     21       3.9194      0.00000
     22       4.2808      0.00000
     23       4.8110      0.00000
     24       4.8322      0.00000
     25       5.2797      0.00000
     26       5.3926      0.00000
     27       6.0756      0.00000
     28       6.3404      0.00000
     29       6.7013      0.00000
     30       7.3788      0.00000
     31       7.6169      0.00000
     32       7.8827      0.00000

 k-point     6 :       0.1667    0.1667    0.0000
  band No.  band energies     occupation 
      1     -10.9528      2.00000
      2     -10.7036      2.00000
      3      -9.9345      2.00000
      4      -9.6370      2.00000
      5      -5.5560      2.00000
      6      -4.9600      2.00000
      7      -3.9493      2.00000
      8      -3.7019      2.00000
      9      -1.7260      2.00000
     10      -1.2216      2.00000
     11      -0.9189      2.00000
     12      -0.2501      2.00000
     13       0.3613      2.00000
     14       0.4316      2.00000
     15       0.5889      2.00000
     16       0.7806      2.00000
     17       1.6510      2.00000
     18       1.7118      2.00000
     19       2.1362      2.00000
     20       2.1580      2.00000
     21       4.0334      0.00000
     22       4.4338      0.00000
     23       4.8049      0.00000
     24       4.8128      0.00000
     25       5.4956      0.00000
     26       5.5539      0.00000
     27       6.1951      0.00000
     28       6.2947      0.00000
     29       6.7355      0.00000
     30       7.1115      0.00000
     31       7.1444      0.00000
     32       7.9757      0.00000

 k-point     7 :       0.1667   -0.1667    0.0000
  band No.  band energies     occupation 
      1     -10.9528      2.00000
      2     -10.7036      2.00000
      3      -9.9345      2.00000
      4      -9.6370      2.00000
      5      -5.5560      2.00000
      6      -4.9600      2.00000
      7      -3.9493      2.00000
      8      -3.7019      2.00000
      9      -1.7260      2.00000
     10      -1.2216      2.00000
     11      -0.9189      2.00000
     12      -0.2501      2.00000
     13       0.3613      2.00000
     14       0.4316      2.00000
     15       0.5889      2.00000
     16       0.7806      2.00000
     17       1.6510      2.00000
     18       1.7118      2.00000
     19       2.1362      2.00000
     20       2.1580      2.00000
     21       4.0334      0.00000
     22       4.4338      0.00000
     23       4.8049      0.00000
     24       4.8128      0.00000
     25       5.4956      0.00000
     26       5.5539      0.00000
     27       6.1951      0.00000
     28       6.2947      0.00000
     29       6.7355      0.00000
     30       7.1115      0.00000
     31       7.1444      0.00000
     32       7.9757      0.00000

 k-point     8 :       0.3333    0.1667    0.0000
  band No.  band energies     occupation 
      1     -10.5415      2.00000
      2     -10.3485      2.00000
      3      -9.8362      2.00000
      4      -9.6943      2.00000
      5      -5.7117      2.00000
      6      -5.2386      2.00000
      7      -4.7352      2.00000
      8      -4.4549      2.00000
      9      -1.3570      2.00000
     10      -1.2813      2.00000
     11      -1.0468      2.00000
     12      -0.3789      2.00000
     13       0.2703      2.00000
     14       0.4845      2.00000
     15       0.5201      2.00000
     16       0.8468      2.00000
     17       1.0491      2.00000
     18       1.6930      2.00000
     19       1.7727      2.00000
     20       1.8418      2.00000
     21       3.8101      0.00000
     22       4.4773      0.00000
     23       4.5913      0.00000
     24       4.9320      0.00000
     25       5.5613      0.00000
     26       5.7569      0.00000
     27       6.0135      0.00000
     28       6.6424      0.00000
     29       6.7293      0.00000
     30       6.8194      0.00000
     31       7.5337      0.00000
     32       7.5781      0.00000

 k-point     9 :       0.3333   -0.1667    0.0000
  band No.  band energies     occupation 
      1     -10.5415      2.00000
      2     -10.3485      2.00000
      3      -9.8362      2.00000
      4      -9.6943      2.00000
      5      -5.7117      2.00000
      6      -5.2386      2.00000
      7      -4.7352      2.00000
      8      -4.4549      2.00000
      9      -1.3570      2.00000
     10      -1.2813      2.00000
     11      -1.0468      2.00000
     12      -0.3789      2.00000
     13       0.2703      2.00000
     14       0.4845      2.00000
     15       0.5201      2.00000
     16       0.8468      2.00000
     17       1.0491      2.00000
     18       1.6930      2.00000
     19       1.7727      2.00000
     20       1.8418      2.00000
     21       3.8101      0.00000
     22       4.4773      0.00000
     23       4.5913      0.00000
     24       4.9320      0.00000
     25       5.5613      0.00000
     26       5.7569      0.00000
     27       6.0135      0.00000
     28       6.6424      0.00000
     29       6.7293      0.00000
     30       6.8194      0.00000
     31       7.5337      0.00000
     32       7.5781      0.00000

 k-point    10 :       0.5000    0.1667    0.0000
  band No.  band energies     occupation 
      1     -10.0311      2.00000
      2     -10.0311      2.00000
      3      -9.9682      2.00000
      4      -9.9682      2.00000
      5      -5.5074      2.00000
      6      -5.5074      2.00000
      7      -5.0948      2.00000
      8      -5.0948      2.00000
      9      -0.9751      2.00000
     10      -0.9751      2.00000
     11      -0.5437      2.00000
     12      -0.5437      2.00000
     13      -0.0592      2.00000
     14      -0.0592      2.00000
     15       0.4794      2.00000
     16       0.4794      2.00000
     17       1.2327      2.00000
     18       1.2327      2.00000
     19       1.8448      2.00000
     20       1.8448      2.00000
     21       3.8656      0.00000
     22       3.8656      0.00000
     23       4.9230      0.00000
     24       4.9230      0.00000
     25       5.8287      0.00000
     26       5.8287      0.00000
     27       6.1108      0.00000
     28       6.1108      0.00000
     29       6.7894      0.00000
     30       6.7894      0.00000
     31       6.9407      0.00000
     32       6.9407      0.00000

 k-point    11 :       0.0000    0.3333    0.0000
  band No.  band energies     occupation 
      1     -10.8148      2.00000
      2     -10.5691      2.00000
      3     -10.1376      2.00000
      4      -9.8670      2.00000
      5      -5.6421      2.00000
      6      -4.8037      2.00000
      7      -4.6922      2.00000
      8      -3.9530      2.00000
      9      -1.3706      2.00000
     10      -0.1817      2.00000
     11      -0.0775      2.00000
     12       0.1205      2.00000
     13       0.5911      2.00000
     14       0.6779      2.00000
     15       0.7210      2.00000
     16       0.9109      2.00000
     17       1.2249      2.00000
     18       1.9341      2.00000
     19       1.9603      2.00000
     20       2.4553      2.00000
     21       3.4916      0.00000
     22       4.0798      0.00000
     23       4.3509      0.00000
     24       4.4938      0.00000
     25       4.8302      0.00000
     26       5.2122      0.00000
     27       5.6292      0.00000
     28       5.6621      0.00000
     29       6.3918      0.00000
     30       6.6066      0.00000
     31       7.2268      0.00000
     32       8.2102      0.00000

 k-point    12 :       0.1667    0.3333    0.0000
  band No.  band energies     occupation 
      1     -10.6802      2.00000
      2     -10.4513      2.00000
      3     -10.0569      2.00000
      4      -9.8179      2.00000
      5      -5.6084      2.00000
      6      -4.8416      2.00000
      7      -4.6978      2.00000
      8      -4.1145      2.00000
      9      -1.3086      2.00000
     10      -1.2650      2.00000
     11      -0.9649      2.00000
     12      -0.3204      2.00000
     13      -0.0859      2.00000
     14       0.4286      2.00000
     15       0.7893      2.00000
     16       1.1965      2.00000
     17       1.5904      2.00000
     18       1.7403      2.00000
     19       2.0390      2.00000
     20       2.1013      2.00000
     21       3.9592      0.00000
     22       4.3463      0.00000
     23       4.6048      0.00000
     24       4.7425      0.00000
     25       5.1813      0.00000
     26       5.7776      0.00000
     27       5.8609      0.00000
     28       6.5897      0.00000
     29       6.6677      0.00000
     30       7.1582      0.00000
     31       7.1879      0.00000
     32       7.9625      0.00000

 k-point    13 :       0.1667   -0.3333    0.0000
  band No.  band energies     occupation 
      1     -10.6802      2.00000
      2     -10.4513      2.00000
      3     -10.0569      2.00000
      4      -9.8179      2.00000
      5      -5.6084      2.00000
      6      -4.8416      2.00000
      7      -4.6978      2.00000
      8      -4.1145      2.00000
      9      -1.3086      2.00000
     10      -1.2650      2.00000
     11      -0.9649      2.00000
     12      -0.3204      2.00000
     13      -0.0859      2.00000
     14       0.4286      2.00000
     15       0.7893      2.00000
     16       1.1965      2.00000
     17       1.5904      2.00000
     18       1.7403      2.00000
     19       2.0390      2.00000
     20       2.1013      2.00000
     21       3.9592      0.00000
     22       4.3463      0.00000
     23       4.6048      0.00000
     24       4.7425      0.00000
     25       5.1813      0.00000
     26       5.7776      0.00000
     27       5.8609      0.00000
     28       6.5897      0.00000
     29       6.6677      0.00000
     30       7.1582      0.00000
     31       7.1879      0.00000
     32       7.9625      0.00000

 k-point    14 :       0.3333    0.3333    0.0000
  band No.  band energies     occupation 
      1     -10.3307      2.00000
      2     -10.1632      2.00000
      3      -9.9053      2.00000
      4      -9.7732      2.00000
      5      -5.5369      2.00000
      6      -5.0122      2.00000
      7      -4.8723      2.00000
      8      -4.6323      2.00000
      9      -1.9011      2.00000
     10      -1.4806      2.00000
     11      -1.2481      2.00000
     12      -0.9452      2.00000
     13      -0.4748      2.00000
     14       0.0179      2.00000
     15       0.1030      2.00000
     16       0.6751      2.00000
     17       0.8036      2.00000
     18       1.4189      2.00000
     19       1.7039      2.00000
     20       1.8599      2.00000
     21       3.9376      0.00000
     22       5.2092      0.00000
     23       5.8561      0.00000
     24       5.9056      0.00000
     25       6.0144      0.00000
     26       6.3210      0.00000
     27       6.7955      0.00000
     28       6.8184      0.00000
     29       7.1397      0.00000
     30       7.5786      0.00000
     31       7.7000      0.00000
     32       8.3355      0.00000

 k-point    15 :       0.3333   -0.3333    0.0000
  band No.  band energies     occupation 
      1     -10.3307      2.00000
      2     -10.1632      2.00000
      3      -9.9053      2.00000
      4      -9.7732      2.00000
      5      -5.5369      2.00000
      6      -5.0122      2.00000
      7      -4.8723      2.00000
      8      -4.6323      2.00000
      9      -1.9011      2.00000
     10      -1.4806      2.00000
     11      -1.2481      2.00000
     12      -0.9452      2.00000
     13      -0.4748      2.00000
     14       0.0179      2.00000
     15       0.1030      2.00000
     16       0.6751      2.00000
     17       0.8036      2.00000
     18       1.4189      2.00000
     19       1.7039      2.00000
     20       1.8599      2.00000
     21       3.9376      0.00000
     22       5.2092      0.00000
     23       5.8561      0.00000
     24       5.9056      0.00000
     25       6.0144      0.00000
     26       6.3210      0.00000
     27       6.7955      0.00000
     28       6.8184      0.00000
     29       7.1397      0.00000
     30       7.5786      0.00000
     31       7.7000      0.00000
     32       8.3355      0.00000

 k-point    16 :       0.5000    0.3333    0.0000
  band No.  band energies     occupation 
      1      -9.9482      2.00000
      2      -9.9482      2.00000
      3      -9.9096      2.00000
      4      -9.9096      2.00000
      5      -5.2944      2.00000
      6      -5.2944      2.00000
      7      -5.0521      2.00000
      8      -5.0521      2.00000
      9      -1.5565      2.00000
     10      -1.5565      2.00000
     11      -1.2279      2.00000
     12      -1.2279      2.00000
     13      -0.5513      2.00000
     14      -0.5513      2.00000
     15      -0.0122      2.00000
     16      -0.0122      2.00000
     17       0.8801      2.00000
     18       0.8801      2.00000
     19       1.6163      2.00000
     20       1.6163      2.00000
     21       4.8391      0.00000
     22       4.8391      0.00000
     23       6.1107      0.00000
     24       6.1107      0.00000
     25       6.6073      0.00000
     26       6.6073      0.00000
     27       6.9233      0.00000
     28       6.9233      0.00000
     29       7.4063      0.00000
     30       7.4063      0.00000
     31       8.2585      0.00000
     32       8.2585      0.00000

 k-point    17 :       0.0000    0.5000    0.0000
  band No.  band energies     occupation 
      1     -10.4389      2.00000
      2     -10.4389      2.00000
      3     -10.2052      2.00000
      4     -10.2052      2.00000
      5      -5.3955      2.00000
      6      -5.3955      2.00000
      7      -4.5300      2.00000
      8      -4.5300      2.00000
      9      -0.6568      2.00000
     10      -0.6568      2.00000
     11       0.3010      2.00000
     12       0.3010      2.00000
     13       0.5461      2.00000
     14       0.5461      2.00000
     15       1.2984      2.00000
     16       1.2984      2.00000
     17       1.4484      2.00000
     18       1.4484      2.00000
     19       1.9971      2.00000
     20       1.9971      2.00000
     21       3.6754      0.00000
     22       3.6754      0.00000
     23       4.4514      0.00000
     24       4.4514      0.00000
     25       4.8890      0.00000
     26       4.8890      0.00000
     27       5.3190      0.00000
     28       5.3190      0.00000
     29       5.8340      0.00000
     30       5.8340      0.00000
     31       8.0623      0.00000
     32       8.0623      0.00000

 k-point    18 :       0.1667    0.5000    0.0000
  band No.  band energies     occupation 
      1     -10.3321      2.00000
      2     -10.3321      2.00000
      3     -10.1188      2.00000
      4     -10.1188      2.00000
      5      -5.3322      2.00000
      6      -5.3322      2.00000
      7      -4.5600      2.00000
      8      -4.5600      2.00000
      9      -0.9897      2.00000
     10      -0.9897      2.00000
     11      -0.6261      2.00000
     12      -0.6261      2.00000
     13      -0.3012      2.00000
     14      -0.3012      2.00000
     15       1.0683      2.00000
     16       1.0683      2.00000
     17       1.7109      2.00000
     18       1.7109      2.00000
     19       2.1427      2.00000
     20       2.1427      2.00000
     21       4.0680      0.00000
     22       4.0680      0.00000
     23       4.5687      0.00000
     24       4.5687      0.00000
     25       5.6201      0.00000
     26       5.6201      0.00000
     27       6.1982      0.00000
     28       6.1982      0.00000
     29       6.6655      0.00000
     30       6.6655      0.00000
     31       7.7663      0.00000
     32       7.7663      0.00000

 k-point    19 :       0.3333    0.5000    0.0000
  band No.  band energies     occupation 
      1     -10.0816      2.00000
      2     -10.0816      2.00000
      3      -9.9420      2.00000
      4      -9.9420      2.00000
      5      -5.2360      2.00000
      6      -5.2360      2.00000
      7      -4.7789      2.00000
      8      -4.7789      2.00000
      9      -1.8256      2.00000
     10      -1.8256      2.00000
     11      -1.2711      2.00000
     12      -1.2711      2.00000
     13      -0.5273      2.00000
     14      -0.5273      2.00000
     15       0.3193      2.00000
     16       0.3193      2.00000
     17       0.8794      2.00000
     18       0.8794      2.00000
     19       1.7345      2.00000
     20       1.7345      2.00000
     21       4.8836      0.00000
     22       4.8836      0.00000
     23       6.1808      0.00000
     24       6.1808      0.00000
     25       6.7486      0.00000
     26       6.7486      0.00000
     27       7.0776      0.00000
     28       7.0776      0.00000
     29       7.5040      0.00000
     30       7.5040      0.00000
     31       8.0910      0.00000
     32       8.0910      0.00000

 k-point    20 :       0.5000    0.5000    0.0000
  band No.  band energies     occupation 
      1      -9.8990      2.00000
      2      -9.8990      2.00000
      3      -9.8852      2.00000
      4      -9.8852      2.00000
      5      -5.1500      2.00000
      6      -5.1500      2.00000
      7      -5.0596      2.00000
      8      -5.0596      2.00000
      9      -1.7807      2.00000
     10      -1.7807      2.00000
     11      -1.5683      2.00000
     12      -1.5683      2.00000
     13      -0.6550      2.00000
     14      -0.6550      2.00000
     15      -0.3873      2.00000
     16      -0.3873      2.00000
     17       0.9696      2.00000
     18       0.9696      2.00000
[...]
     32       7.3493      0.00000

 k-point    32 :       0.1667    0.3333    0.5000
  band No.  band energies     occupation 
      1     -10.5868      2.00000
      2     -10.5868      2.00000
      3      -9.9168      2.00000
      4      -9.9168      2.00000
      5      -5.3230      2.00000
      6      -5.3230      2.00000
      7      -4.3436      2.00000
      8      -4.3436      2.00000
      9      -1.1956      2.00000
     10      -1.1956      2.00000
     11      -0.5281      2.00000
     12      -0.5281      2.00000
     13       0.0042      2.00000
     14       0.0042      2.00000
     15       0.9359      2.00000
     16       0.9359      2.00000
     17       1.6271      2.00000
     18       1.6271      2.00000
     19       1.9756      2.00000
     20       1.9756      2.00000
     21       4.4074      0.00000
     22       4.4074      0.00000
     23       4.7748      0.00000
     24       4.7748      0.00000
     25       5.6885      0.00000
     26       5.6885      0.00000
     27       5.9388      0.00000
     28       5.9388      0.00000
     29       6.8327      0.00000
     30       6.8327      0.00000
     31       7.2819      0.00000
     32       7.2819      0.00000

 k-point    33 :       0.1667   -0.3333    0.5000
  band No.  band energies     occupation 
      1     -10.5868      2.00000
      2     -10.5868      2.00000
      3      -9.9168      2.00000
      4      -9.9168      2.00000
      5      -5.3230      2.00000
      6      -5.3230      2.00000
      7      -4.3436      2.00000
      8      -4.3436      2.00000
      9      -1.1956      2.00000
     10      -1.1956      2.00000
     11      -0.5281      2.00000
     12      -0.5281      2.00000
     13       0.0042      2.00000
     14       0.0042      2.00000
     15       0.9359      2.00000
     16       0.9359      2.00000
     17       1.6271      2.00000
     18       1.6271      2.00000
     19       1.9756      2.00000
     20       1.9756      2.00000
     21       4.4074      0.00000
     22       4.4074      0.00000
     23       4.7748      0.00000
     24       4.7748      0.00000
     25       5.6885      0.00000
     26       5.6885      0.00000
     27       5.9388      0.00000
     28       5.9388      0.00000
     29       6.8327      0.00000
     30       6.8327      0.00000
     31       7.2819      0.00000
     32       7.2819      0.00000

 k-point    34 :       0.3333    0.3333    0.5000
  band No.  band energies     occupation 
      1     -10.2608      2.00000
      2     -10.2608      2.00000
      3      -9.8256      2.00000
      4      -9.8256      2.00000
      5      -5.3239      2.00000
      6      -5.3239      2.00000
      7      -4.7175      2.00000
      8      -4.7175      2.00000
      9      -1.7125      2.00000
     10      -1.7125      2.00000
     11      -0.9528      2.00000
     12      -0.9528      2.00000
     13      -0.3765      2.00000
     14      -0.3765      2.00000
     15       0.2953      2.00000
     16       0.2953      2.00000
     17       1.1400      2.00000
     18       1.1400      2.00000
     19       1.8386      2.00000
     20       1.8387      2.00000
     21       4.9803      0.00000
     22       4.9803      0.00000
     23       5.6093      0.00000
     24       5.6093      0.00000
     25       5.9132      0.00000
     26       5.9132      0.00000
     27       6.7643      0.00000
     28       6.7643      0.00000
     29       6.9909      0.00000
     30       6.9909      0.00000
     31       8.2139      0.00000
     32       8.2139      0.00000

 k-point    35 :       0.3333   -0.3333    0.5000
  band No.  band energies     occupation 
      1     -10.2608      2.00000
      2     -10.2608      2.00000
      3      -9.8256      2.00000
      4      -9.8256      2.00000
      5      -5.3239      2.00000
      6      -5.3239      2.00000
      7      -4.7175      2.00000
      8      -4.7175      2.00000
      9      -1.7125      2.00000
     10      -1.7125      2.00000
     11      -0.9528      2.00000
     12      -0.9528      2.00000
     13      -0.3765      2.00000
     14      -0.3765      2.00000
     15       0.2953      2.00000
     16       0.2953      2.00000
     17       1.1400      2.00000
     18       1.1400      2.00000
     19       1.8386      2.00000
     20       1.8386      2.00000
     21       4.9803      0.00000
     22       4.9803      0.00000
     23       5.6093      0.00000
     24       5.6093      0.00000
     25       5.9132      0.00000
     26       5.9132      0.00000
     27       6.7643      0.00000
     28       6.7643      0.00000
     29       6.9909      0.00000
     30       6.9909      0.00000
     31       8.2139      0.00000
     32       8.2139      0.00000

 k-point    36 :       0.5000    0.3333    0.5000
  band No.  band energies     occupation 
      1      -9.9291      2.00000
      2      -9.9291      2.00000
      3      -9.9291      2.00000
      4      -9.9291      2.00000
      5      -5.1782      2.00000
      6      -5.1782      2.00000
      7      -5.1782      2.00000
      8      -5.1782      2.00000
      9      -1.3210      2.00000
     10      -1.3210      2.00000
     11      -1.3210      2.00000
     12      -1.3210      2.00000
     13      -0.4855      2.00000
     14      -0.4855      2.00000
     15      -0.4855      2.00000
     16      -0.4855      2.00000
     17       1.4184      2.00000
     18       1.4184      2.00000
     19       1.4184      2.00000
     20       1.4184      2.00000
     21       5.4308      0.00000
     22       5.4308      0.00000
     23       5.4308      0.00000
     24       5.4308      0.00000
     25       6.3991      0.00000
     26       6.3991      0.00000
     27       6.3991      0.00000
     28       6.3991      0.00000
     29       7.9620      0.00000
     30       7.9620      0.00000
     31       7.9620      0.00000
     32       7.9620      0.00000

 k-point    37 :       0.0000    0.5000    0.5000
  band No.  band energies     occupation 
      1     -10.4343      2.00000
      2     -10.4343      2.00000
      3     -10.2110      2.00000
      4     -10.2110      2.00000
      5      -5.2990      2.00000
      6      -5.2990      2.00000
      7      -4.6814      2.00000
      8      -4.6814      2.00000
      9      -0.0081      2.00000
     10      -0.0081      2.00000
     11       0.3088      2.00000
     12       0.3088      2.00000
     13       0.3131      2.00000
     14       0.3131      2.00000
     15       0.5362      2.00000
     16       0.5362      2.00000
     17       1.8157      2.00000
     18       1.8157      2.00000
     19       1.8237      2.00000
     20       1.8237      2.00000
     21       3.7881      0.00000
     22       3.7881      0.00000
     23       4.3139      0.00000
     24       4.3139      0.00000
     25       4.9575      0.00000
     26       4.9575      0.00000
     27       5.7352      0.00000
     28       5.7352      0.00000
     29       6.1645      0.00000
     30       6.1645      0.00000
     31       7.2060      0.00000
     32       7.2060      0.00000

 k-point    38 :       0.1667    0.5000    0.5000
  band No.  band energies     occupation 
      1     -10.3280      2.00000
      2     -10.3280      2.00000
      3     -10.1240      2.00000
      4     -10.1240      2.00000
      5      -5.2524      2.00000
      6      -5.2524      2.00000
      7      -4.6782      2.00000
      8      -4.6782      2.00000
      9      -0.8626      2.00000
     10      -0.8626      2.00000
     11      -0.7722      2.00000
     12      -0.7722      2.00000
     13       0.3286      2.00000
     14       0.3286      2.00000
     15       0.4239      2.00000
     16       0.4239      2.00000
     17       1.7173      2.00000
     18       1.7173      2.00000
     19       1.9413      2.00000
     20       1.9413      2.00000
     21       4.5210      0.00000
     22       4.5210      0.00000
     23       4.6050      0.00000
     24       4.6050      0.00000
     25       5.7408      0.00000
     26       5.7408      0.00000
     27       6.1337      0.00000
     28       6.1337      0.00000
     29       6.7021      0.00000
     30       6.7021      0.00000
     31       7.0707      0.00000
     32       7.0707      0.00000

 k-point    39 :       0.3333    0.5000    0.5000
  band No.  band energies     occupation 
      1     -10.0787      2.00000
      2     -10.0787      2.00000
      3      -9.9453      2.00000
      4      -9.9453      2.00000
      5      -5.1981      2.00000
      6      -5.1981      2.00000
      7      -4.8277      2.00000
      8      -4.8277      2.00000
      9      -1.5734      2.00000
     10      -1.5734      2.00000
     11      -1.5729      2.00000
     12      -1.5729      2.00000
     13      -0.1926      2.00000
     14      -0.1926      2.00000
     15      -0.1845      2.00000
     16      -0.1845      2.00000
     17       1.3015      2.00000
     18       1.3015      2.00000
     19       1.5581      2.00000
     20       1.5581      2.00000
     21       5.3581      0.00000
     22       5.3581      0.00000
     23       5.8207      0.00000
     24       5.8207      0.00000
     25       6.4415      0.00000
     26       6.4415      0.00000
     27       6.4442      0.00000
     28       6.4442      0.00000
     29       7.8342      0.00000
     30       7.8342      0.00000
     31       8.0828      0.00000
     32       8.0828      0.00000

 k-point    40 :       0.5000    0.5000    0.5000
  band No.  band energies     occupation 
      1      -9.8921      2.00000
      2      -9.8921      2.00000
      3      -9.8921      2.00000
      4      -9.8921      2.00000
      5      -5.1082      2.00000
      6      -5.1082      2.00000
      7      -5.1082      2.00000
      8      -5.1082      2.00000
      9      -1.5098      2.00000
     10      -1.5098      2.00000
     11      -1.5098      2.00000
     12      -1.5098      2.00000
     13      -0.8655      2.00000
     14      -0.8655      2.00000
     15      -0.8655      2.00000
     16      -0.8655      2.00000
     17       1.4618      2.00000
     18       1.4618      2.00000
     19       1.4618      2.00000
     20       1.4618      2.00000
     21       5.3661      0.00000
     22       5.3661      0.00000
     23       5.3661      0.00000
     24       5.3661      0.00000
     25       7.1313      0.00000
     26       7.1313      0.00000
     27       7.1313      0.00000
     28       7.1313      0.00000
     29       8.7974      0.00000
     30       8.7974      0.00000
     31       8.7974      0.00000
     32       8.7974      0.00000


--------------------------------------------------------------------------------------------------------


 soft charge-density along one line, spin component            1
         0         1         2         3         4         5         6         7         8         9
 total charge-density along one line
 
 pseudopotential strength for first ion, spin component:            1
 14.696  18.341   0.038   0.049   0.000   0.068   0.088   0.000
 18.341  22.904   0.048   0.061   0.000   0.086   0.111   0.000
  0.038   0.048   3.254  -0.002   0.000   5.542  -0.003   0.000
  0.049   0.061  -0.002   3.249  -0.000  -0.003   5.534  -0.000
  0.000   0.000   0.000  -0.000   3.254   0.000  -0.000   5.542
  0.068   0.086   5.542  -0.003   0.000   9.495  -0.006   0.000
  0.088   0.111  -0.003   5.534  -0.000  -0.006   9.482  -0.000
  0.000   0.000   0.000  -0.000   5.542   0.000  -0.000   9.496
  0.000   0.000   0.000   0.000   0.006   0.000   0.000   0.011
 -0.004  -0.005   0.013   0.012   0.000   0.023   0.021   0.000
 -0.006  -0.007  -0.003   0.013  -0.000  -0.006   0.023  -0.000
 -0.000  -0.000   0.000   0.000   0.013   0.000   0.000   0.023
  0.000   0.000  -0.011  -0.000   0.000  -0.020  -0.000   0.000
 total augmentation occupancy for first ion, spin component:            1
  2.598  -0.610   0.267   0.392   0.000  -0.042  -0.070  -0.000   0.000  -0.016   0.004   0.000   0.014
 -0.610   0.609  -0.371  -0.510  -0.000   0.055   0.078   0.000  -0.000   0.013  -0.003  -0.000  -0.013
  0.267  -0.371   1.098   0.024   0.000  -0.171   0.009   0.000  -0.000   0.043  -0.090  -0.000   0.014
  0.392  -0.510   0.024   1.322   0.000   0.009  -0.208  -0.000  -0.000  -0.031   0.111  -0.000  -0.003
  0.000  -0.000   0.000   0.000   1.162  -0.000   0.000  -0.195   0.127  -0.000   0.000   0.036  -0.000
 -0.042   0.055  -0.171   0.009  -0.000   0.030  -0.003   0.000   0.000  -0.007   0.015   0.000  -0.002
 -0.070   0.078   0.009  -0.208   0.000  -0.003   0.037  -0.000   0.000   0.005  -0.019  -0.000   0.001
 -0.000   0.000   0.000  -0.000  -0.195   0.000  -0.000   0.036  -0.022   0.000  -0.000  -0.006  -0.000
  0.000  -0.000  -0.000  -0.000   0.127   0.000   0.000  -0.022   0.025   0.000   0.000   0.002  -0.000
 -0.016   0.013   0.043  -0.031  -0.000  -0.007   0.005   0.000   0.000   0.011  -0.008   0.000   0.002
  0.004  -0.003  -0.090   0.111   0.000   0.015  -0.019  -0.000   0.000  -0.008   0.029   0.000  -0.004
  0.000  -0.000  -0.000  -0.000   0.036   0.000  -0.000  -0.006   0.002   0.000   0.000   0.009  -0.000
  0.014  -0.013   0.014  -0.003  -0.000  -0.002   0.001  -0.000  -0.000   0.002  -0.004  -0.000   0.008


------------------------ aborting loop because EDIFF is reached ----------------------------------------


    CHARGE:  cpu time      0.0035: real time      0.0035
    FORLOC:  cpu time      0.0002: real time      0.0002
    FORNL :  cpu time      0.0207: real time      0.0208
    STRESS:  cpu time      0.1968: real time      0.1976
    FORCOR:  cpu time      0.0037: real time      0.0037
    FORHAR:  cpu time      0.0009: real time      0.0009
    MIXING:  cpu time      0.0009: real time      0.0009
    OFIELD:  cpu time      0.0000: real time      0.0000

  FORCE on cell =-STRESS in cart. coord.  units (eV):
  Direction    XX          YY          ZZ          XY          YZ          ZX
  --------------------------------------------------------------------------------------
  Alpha Z    81.51928    81.51928    81.51928
  Ewald    -415.63653  -485.43793  -479.31866     0.00000    -0.00000    -0.00000
  Hartree    70.75023    45.50911    34.42317     0.00000     0.00000     0.00000
  E(xc)    -140.10565  -140.31385  -140.72788    -0.00000     0.00000     0.00000
  Local    -211.97764  -124.46389  -122.54184    -0.00000     0.00000    -0.00000
  n-local   238.43600   237.54500   241.56918    -0.00000    -0.00000     0.00000
  augment   -11.29672   -11.87738   -12.25041    -0.00000     0.00000    -0.00000
  Kinetic   383.91641   396.11070   397.22472     0.00000    -0.00000     0.00000
  Fock        0.00000     0.00000     0.00000     0.00000     0.00000     0.00000
  -------------------------------------------------------------------------------------
  Total      -4.39462    -1.40897    -0.10243     0.00000     0.00000     0.00000
  in kB     -33.87385   -10.86039    -0.78956     0.00000     0.00000     0.00000
  external pressure =      -15.17 kB  Pullay stress =        0.00 kB


 VOLUME and BASIS-vectors are now :
 -----------------------------------------------------------------------------
  energy-cutoff  :      360.00
  volume of cell :      207.86
      direct lattice vectors                 reciprocal lattice vectors
     4.100000000  0.000000000  0.000000000     0.243902439  0.000000000  0.000000000
     0.000000000  4.550000000  0.000000000     0.000000000  0.219780220  0.000000000
     0.000000000  0.000000000 11.142221000     0.000000000  0.000000000  0.089748713

  length of vectors
     4.100000000  4.550000000 11.142221000     0.243902439  0.219780220  0.089748713


 FORCES acting on ions
    electron-ion (+dipol)            ewald-force                    non-local-force                 convergence-correction
 -----------------------------------------------------------------------------------------------
   0.195E-05 0.128E+02 0.279E+02   -.198E-14 -.155E+02 -.310E+02   -.939E-06 0.259E+01 0.309E+01   -.112E-05 0.121E-03 -.962E-03
   0.165E-05 0.128E+02 -.279E+02   -.735E-14 -.155E+02 0.310E+02   -.876E-06 0.259E+01 -.309E+01   -.995E-06 0.120E-03 0.961E-03
   -.221E-05 -.128E+02 -.279E+02   0.472E-14 0.155E+02 0.310E+02   0.110E-05 -.259E+01 -.309E+01   0.132E-05 -.120E-03 0.961E-03
   -.107E-05 -.128E+02 0.279E+02   0.515E-14 0.155E+02 -.310E+02   0.556E-06 -.259E+01 0.309E+01   0.610E-06 -.122E-03 -.961E-03
   -.545E-05 -.117E+02 -.280E+02   0.587E-14 0.132E+02 0.298E+02   0.200E-05 -.143E+01 -.180E+01   0.317E-05 0.457E-03 0.246E-02
   -.579E-05 -.117E+02 0.280E+02   0.506E-14 0.132E+02 -.298E+02   0.177E-05 -.143E+01 0.180E+01   0.340E-05 0.456E-03 -.246E-02
   0.428E-05 0.117E+02 0.280E+02   -.605E-14 -.132E+02 -.298E+02   -.150E-05 0.143E+01 0.180E+01   -.224E-05 -.456E-03 -.246E-02
   0.514E-05 0.117E+02 -.280E+02   -.221E-14 -.132E+02 0.298E+02   -.154E-05 0.143E+01 -.180E+01   -.336E-05 -.457E-03 0.246E-02
 -----------------------------------------------------------------------------------------------
   -.149E-05 0.408E-05 -.676E-06   0.322E-14 0.355E-14 -.711E-14   0.561E-06 -.179E-05 0.146E-05   0.785E-06 -.184E-05 -.341E-06
 
 
 POSITION                                       TOTAL-FORCE (eV/Angst)
 -----------------------------------------------------------------------------------
      1.02500      0.50092      1.42427        -0.000000     -0.027345      0.012769
      3.07500      2.77592      4.14684        -0.000000     -0.027345     -0.012771
      3.07500      4.04908      9.71795         0.000000      0.027345     -0.012769
      1.02500      1.77408      6.99538         0.000000      0.027344      0.012771
      1.02500      4.44565      3.92568        -0.000000      0.049641     -0.001578
      3.07500      2.17065      1.64543        -0.000001      0.049641      0.001578
      3.07500      0.10435      7.21654         0.000001     -0.049641      0.001578
      1.02500      2.37935      9.49679         0.000000     -0.049640     -0.001578
 -----------------------------------------------------------------------------------
    total drift:                               -0.000000      0.000000      0.000000


--------------------------------------------------------------------------------------------------------



  FREE ENERGIE OF THE ION-ELECTRON SYSTEM (eV)
  ---------------------------------------------------
  free  energy   TOTEN  =       -33.69719174 eV

  energy  without entropy=      -33.69719174  energy(sigma->0) =      -33.69719174
 


--------------------------------------------------------------------------------------------------------


    POTLOK:  cpu time      0.1134: real time      0.1142


--------------------------------------------------------------------------------------------------------


     LOOP+:  cpu time      4.9381: real time      4.9820
    4ORBIT:  cpu time      0.0000: real time      0.0000

 total amount of memory used by VASP MPI-rank0    39077. kBytes
=======================================================================

   base      :      30000. kBytes
   nonl-proj :       7028. kBytes
   fftplans  :        373. kBytes
   grid      :        555. kBytes
   one-center:         16. kBytes
   wavefun   :       1105. kBytes
 
  
  
 General timing and accounting informations for this job:
 ========================================================
  
                  Total CPU time used (sec):        5.786
                            User time (sec):        5.449
                          System time (sec):        0.337
                         Elapsed time (sec):        7.145
  
                   Maximum memory used (kb):      190948.
                   Average memory used (kb):          N/A
  
                          Minor page faults:        22327
                          Major page faults:           27
                 Voluntary context switches:         3632
