72
Lattice="12.437575854397817 -1.0763134919e-06 -2.4395613112e-06 -1.0822949113e-06 12.506695326458715 1.4461057206e-06 -2.7919442924e-06 1.6458423122e-06 11.057607171164584" Properties=species:S:1:pos:R:3:forces:R:3:magmoms:R:1 energy=-300.81840595 stress="0.005526211945084451 -0.0013900454925424913 -0.0007670398531882011 -0.0013900454925424913 -0.0056164051910249915 -0.00030916814886030827 -0.0007670398531882011 -0.00030916814886030827 -0.006106331226525411" dipole="_JSON [[0.0, 0.0, 0.0]]" magmom=0.0018079 free_energy=-300.81840595 pbc="T T T"
Ge       0.50115603       0.19320268       1.15884286       0.00148428       0.46326253       0.63547482       0.00000000
Ge       3.16769473      11.00758047       4.24893126      -0.38946125       0.30235994      -0.42680190       0.00000000
Ge       7.22640634       2.75089626       4.03179751      -0.33724780       0.03155862      -0.28873211       0.00000000
Ge       6.67380480       6.46378793       4.35912742      -0.14072348      -0.22635117      -0.50790359       0.00000000
Ge       7.00360223      10.94577699       4.24564242       0.25955496      -0.34367805      -0.09590634       0.00000000
Ge      11.13541293       2.60666874       4.33059194      -0.15036548      -0.24785816      -0.46949678      -0.00000000
Ge      11.32990400       6.90822617       4.10813933      -0.21622133      -0.43855579      -0.12304502       0.00000000
Ge      10.93147713      10.65126627       3.92554467       0.09235164       0.00013517       0.25619502       0.00000000
Ge       1.11709420       1.74177747       6.88200666      -0.25444055      -0.21667585       0.35088000       0.00000000
Ge       1.15767649       6.05229592       6.86608966      -0.23514235      -0.17731512       0.41350875       0.00000000
Ge       1.12741923      10.14035486       6.97724390      -0.07537551      -0.37962661       0.21260489       0.00000000
Ge       4.93472065       1.72359345       6.90864046       0.46067741       0.00999429       0.04629625       0.00000000
Ge       5.02935045       5.96421377       7.01026362       0.07730640      -0.14513957      -1.29358742       0.00000000
Ge       5.16585297      10.16747843       7.10876174       0.17533538      -0.18446517      -0.07514869       0.00000000
Ge       9.37311112       1.86821094       6.95675112      -0.24114553      -0.12557072       0.02632119      -0.00000000
Ge       9.27703547       6.07576646       6.85709864      -0.00575660      -0.11929980      -0.02336917      -0.00000000
Ge       3.02673070       6.91973664       4.38579295      -0.53448505      -0.20212041      -0.36419778       0.00000000
Ge       2.38925705       2.33889395       4.00511724       0.55404916      -0.36860977       0.04952265       0.00000000
Ge       9.39819272      10.09579300       6.97323446      -0.29080356       0.20409809      -0.19587017      -0.00000000
Ge      11.34800054       8.12580186       9.72332939      -0.19397678      -0.12340342      -0.35421148       0.00000000
Ge      11.28019265      12.20962301       9.66734865      -0.20210684      -0.19558804      -0.24935748      -0.00000000
Ge       0.88913984       4.77604681       1.57749044      -0.26524822      -0.75841060      -0.89153016       0.00000000
Ge       0.88074776       8.98830284       1.30572547       0.24051981      -0.10248291       0.63644629       0.00000000
Ge       5.16019361       0.67235741       1.34881835       0.02244156       0.26940852       0.28476579       0.00000000
Ge       4.69778636       4.81917116       1.35490314       0.02412073      -0.64996716       0.23936611       0.00000000
Ge       9.06953408       0.56217487       1.46901728      -0.09870257       0.05625288      -0.07854477      -0.00000000
Ge       9.11313217       4.76783164       1.45331832       0.47515549      -0.40906147      -0.31780114      -0.00000000
Ge       5.02374362       8.96916510       1.34290957      -0.96408107      -0.54759107      -0.01915280       0.00000000
Ge       2.88341178       3.82976255       9.64344834       0.03050935       0.23316560      -0.00860193       0.00000000
Ge       2.98028335       7.94863335      10.05520366      -0.24865185      -0.13571575      -0.51749754       0.00000000
Ge       3.02393831      12.35047854       9.84687680      -0.00965242      -0.44566298      -0.17741048       0.00000000
Ge       6.92965976       4.03081171       9.50090255       0.41255321      -0.23625076      -0.11968368       0.00000000
Ge       7.08641554       7.93095567       9.63675543       0.58229042       0.29866823      -0.13666124       0.00000000
Ge       7.10571855      12.51832052       9.55074010       0.05709088      -0.49039309       0.54367994      -0.00000000
Ge      11.31641274       3.78520105       9.59031920      -0.10805673       0.53859554       0.09653431      -0.00000000
Ge       8.89918907       8.52790138       1.29544629      -0.28914819       0.01899439      -0.25786138      -0.00000000
Se      11.37504938       0.17294695       7.13821650       0.26892738      -0.23831236      -0.12378646      -0.00000000
Se       3.10136114       4.20339908       7.05646704      -0.22780514       0.07716957       0.15347736      -0.00000000
Se       3.22041791       8.40548892       7.46813722      -0.42717527       0.23483133      -0.24661013      -0.00000000
Se       7.17900707       0.09802905       7.12656107      -0.02434199       0.31996653      -0.63456662      -0.00000000
Se       7.07035708       4.22256181       6.93575572       0.22508119       0.18687767       0.27722968      -0.00000000
Se       7.30949243       8.43404416       7.12473233      -0.41032420       0.18261252       0.02817301      -0.00000000
Se      11.39784864       4.45766744       7.07849206       0.01051838      -0.31953855      -0.03101801      -0.00000000
Se       9.06909768       0.00526576       4.00932631      -0.11027379       0.16912355      -0.25483756      -0.00000000
Se       0.99643622       0.10412682       3.81957165       0.18733730       0.24707695      -0.01913108      -0.00000000
Se       0.66071290       4.20937208       3.99160157       0.22423029       0.19516554       0.42533305      -0.00000000
Se       0.81339649       8.53754540       4.09224828       0.69018869       0.32812884      -0.57183935      -0.00000000
Se       5.21772402       0.19327835       3.95736072      -0.46271458       0.19077720      -0.16485117      -0.00000000
Se       5.00217666       4.38325116       3.86060297       0.62157371       0.35445055       0.12875617      -0.00000000
Se       4.99451584       8.39529889       3.95342417       0.00507833       0.32065698      -0.04615603      -0.00000000
Se       3.06083115      -0.09630302       7.24727794      -0.27446237       0.51206145      -0.18316259      -0.00000000
Se      11.32231856       8.41431824       7.12937253       0.52564705      -0.00163897       0.13543692      -0.00000000
Se      11.37988954      10.66856104       1.40100265      -0.37505640      -0.14348601       0.11445415      -0.00000000
Se       3.25580407       2.38571502       1.51554850      -0.28759740       0.15961704       0.01690229      -0.00000000
Se      11.11118000       2.08749085       1.66000454       0.16652790      -0.05583371       0.18844620      -0.00000000
Se       9.27981490       4.37135398       3.96042563      -0.26993095       0.07657387       0.17716357      -0.00000000
Se       0.93176585       2.17678898       9.46617791       0.27175892      -0.22314117      -0.40169781      -0.00000000
Se       0.95555626       6.30697332       9.46786155       0.31424783       0.24560890      -0.05038614      -0.00000000
Se       0.99041455      10.50712927       9.55009298       0.02358805       0.15053103      -0.09812013      -0.00000000
Se       5.03713635       2.18322220       9.48522669       0.00802438      -0.04949952      -0.13501949      -0.00000000
Se       5.16397017       6.23399633       9.38401586      -0.20015749       0.05270365       1.25792663      -0.00000000
Se       5.12441700      10.65871016       9.59943800       0.11088447       0.13087646       0.09516939      -0.00000000
Se       9.29277497       2.19125753       9.44369571      -0.17988277       0.04648085       0.02615490      -0.00000000
Se       9.29416296       6.42114608       9.36627963      -0.20305485      -0.21845925       0.46378445      -0.00000000
Se       9.33515454      10.43086085       9.43510087       0.02143183       0.58499892       0.33417003      -0.00000000
Se       2.74376763       6.45902292       1.73447967       0.38337452       0.22940966       0.44949587      -0.00000000
Se       2.87988361      10.68083044       1.68705168       0.66007689      -0.36932707      -0.01471658      -0.00000000
Se       7.15791294       2.46767530       1.40915254       0.16255941      -0.47432234       0.44879317      -0.00000000
Se       7.26195420       6.45583428       1.57520451      -0.32369969       0.28344024       0.45971769      -0.00000000
Se       6.97025084      10.34461636       1.63160203       0.88100121       0.78079975       0.24992899      -0.00000000
Se      11.33139080       6.31934629       1.55754881      -0.16994765       0.56270660       0.11536085      -0.00000000
Se       9.34876965       8.50874590       3.72484939      -0.03028070       0.31421298       0.63080179      -0.00000000
72
Lattice="12.441639736857848 -1.0766651691e-06 -2.4403584191e-06 -1.0818616869e-06 12.501689107086305 1.4455268689e-06 -2.7906202235e-06 1.6450617778e-06 11.05236314314453" Properties=species:S:1:pos:R:3:forces:R:3:magmoms:R:1 energy=-300.59410405 stress="0.0050705036788912805 0.000872408754349488 0.0022524346711525803 0.000872408754349488 -0.006057964343003351 -0.00042016485652116687 0.0022524346711525803 -0.00042016485652116687 -0.009894113778844625" dipole="_JSON [[0.0, 0.0, 0.0]]" magmom=0.0019114 free_energy=-300.59410405 pbc="T T T"
Ge       0.52927447       0.30862204       1.66421112       0.36718411      -0.38436566      -1.18849238       0.00000000
Ge       3.13220572      11.06251964       4.06867159       0.10399552      -0.23893045       0.04070364       0.00000000
Ge       7.16165524       2.73678032       4.17120110      -0.09549984      -0.15694970       0.11738965      -0.00000000
Ge       7.01130534       6.50001300       3.97795899      -0.17975389       0.03991339       1.34919462       0.00000000
Ge       7.06298936      11.03676735       4.38522474      -0.26337556       0.07048342       0.11631536       0.00000000
Ge      11.08160765       2.55154458       4.17295740       0.16001908       0.05462700       0.06103391      -0.00000000
Ge      11.12185155       6.82196044       4.12570454       0.10555095       0.23133543      -0.04811145       0.00000000
Ge      10.85460346      10.71968518       3.99197944       0.01694462      -0.20418366       0.36210924       0.00000000
Ge       0.92670190       1.81834756       6.99464387      -0.28254725      -0.02983775      -0.26582682      -0.00000000
Ge       1.06719133       5.93337875       6.97526527      -0.36286315       0.34481845      -0.38040006       0.00000000
Ge       0.91724109      10.20361132       6.81700004       0.15781083      -0.29554909       0.49009059       0.00000000
Ge       5.03509513       1.88968179       6.85058748       0.19690412      -0.11890425       0.60289906      -0.00000000
Ge       4.92966493       6.05660383       7.08174720       0.50444683       0.50476051       0.31517368       0.00000000
Ge       4.96798241      10.10066590       6.96579780       0.06907690      -0.01107157       0.16787173      -0.00000000
Ge       9.22214831       1.90457836       6.93815384       0.30941137       0.17689099       0.10710506       0.00000000
Ge       9.26680018       6.09385066       6.84803452      -0.09662432      -0.12305997       0.18337198       0.00000000
Ge       2.99813840       7.04136488       4.19827816      -0.05573154      -0.38164612       0.13067309       0.00000000
Ge       2.72037771       2.24813946       4.27734839      -0.08296789       0.41035324      -0.75392920      -0.00000000
Ge       9.33678410      10.11668537       6.96336629      -0.06941528      -0.17965170      -0.68809943       0.00000000
Ge      11.46212996       7.91345085       9.48821329      -0.04650281       0.27070913       0.07613069       0.00000000
Ge      11.57013096      12.21873608       9.46204714      -0.56099007       0.55783075       0.42826571       0.00000000
Ge       0.68949410       4.38792071       1.60786796       0.20390281       0.11286724      -0.00751899       0.00000000
Ge       0.76840483       8.76693850       1.44919008       0.21351226       0.47354600       0.37710185       0.00000000
Ge       5.11565162       0.74348754       1.40601501      -0.63089318      -0.23732279      -0.13380587       0.00000000
Ge       4.72378865       4.49333416       1.34120415      -0.11303071      -0.22862872       0.27001087       0.00000000
Ge       8.82553103       0.21102963       1.39060273       0.28820784       0.17615384       0.11135843       0.00000000
Ge       9.27183209       4.78782648       1.06670324      -0.13555057       0.21220987       0.76614583       0.00000000
Ge       4.92255890       8.75830110       1.48956993      -0.25602119       0.33816759      -0.04312312       0.00000000
Ge       3.06618698       3.94634434       9.46778746       0.23310676      -0.30861014       0.86798980       0.00000000
Ge       2.83944466       7.76992715      10.02302332       0.31021762       0.14803379      -0.23357570       0.00000000
Ge       2.99817765      12.12434988       9.62719928       0.21938944       0.42414850       0.14056057       0.00000000
Ge       7.29115211       3.90446478       9.65432650      -0.72870584       0.31516432       0.01123849       0.00000000
Ge       7.32087159       8.01036333       9.67412914      -0.42965893       0.14925050      -0.14272068       0.00000000
Ge       7.20405525      12.09244721       9.50529580       0.18883418       0.68059192      -0.01774009       0.00000000
Ge      11.36495690       3.98945163       9.56794338      -0.08384632      -0.49882329      -0.04634282       0.00000000
Ge       8.62191374       8.62689002       1.23077440       0.59718443      -0.09132235       0.40198137       0.00000000
Se      11.25729926       0.06639256       6.98666909       0.33335606       0.36298807      -0.15293743      -0.00000000
Se       3.07847895       4.30948532       7.05078539       0.07695008      -0.46361406      -0.68283714      -0.00000000
Se       2.93209723       8.48794564       7.10981690       0.09763804      -0.08184841       0.34592482      -0.00000000
Se       7.29347212       0.28773640       6.98483800      -0.69948757      -0.44302902       0.31048710      -0.00000000
Se       7.16497854       4.56790028       7.15440551      -0.11862237      -0.48515543      -0.12067699      -0.00000000
Se       7.16429105       8.49806454       7.19588344       0.14740205      -0.11207809      -0.06862800      -0.00000000
Se      11.34139265       4.36173369       7.05668364      -0.06067607      -0.12190945       0.04560665      -0.00000000
Se       9.05615514       0.12681082       3.96820875       0.25802206      -0.05588843      -0.21999293      -0.00000000
Se       1.15082784       0.20656679       4.02277333      -0.32566808      -0.03512324       0.78926663      -0.00000000
Se       0.85677189       4.13625249       4.10709293      -0.26142077       0.07693648      -0.01207554      -0.00000000
Se       1.02274661       8.67209189       4.03495947      -0.39597907      -0.25500371      -0.36606405      -0.00000000
Se       5.08785341       0.37566188       3.94496625       0.14318490      -0.45077851       0.13420944      -0.00000000
Se       5.29020381       4.45665958       3.90925167      -0.24936924       0.04676306      -0.00591463      -0.00000000
Se       5.15811430       8.48416118       3.98524459      -0.11209711      -0.07075611       0.06620346      -0.00000000
Se       2.96522931       0.20049203       7.06021452       0.31935713      -0.36923028       0.13352512      -0.00000000
Se      11.46001140       8.34603282       6.94920357      -0.20918729       0.26813873       0.27666276      -0.00000000
Se      11.28085839      10.58510514       1.54857605       0.24523829       0.13573387      -0.27814909      -0.00000000
Se       2.95440996       2.43063972       1.59810645       0.60622346      -0.18269555       0.39303193      -0.00000000
Se      11.20407021       2.05837954       1.67804970      -0.33094749       0.41405663      -0.04237184      -0.00000000
Se       9.18474437       4.30090324       3.82853943       0.42668974       0.36182430      -0.35404190      -0.00000000
Se       1.03989605       2.20715757       9.45202321      -0.38602295       0.05787765       0.36310835      -0.00000000
Se       0.94815956       6.05535285       9.49554677      -0.07356668       0.48426653       0.30277954      -0.00000000
Se       0.95346636      10.51296983       9.59824982       0.24622156      -0.41965530      -0.75780251      -0.00000000
Se       5.10546215       2.24336263       9.54586328       0.20393502       0.04585466      -0.64887712      -0.00000000
Se       5.01070026       6.36685138       9.72936729       0.12034582       0.03296291      -0.60922170      -0.00000000
Se       5.18419907      10.56006563       9.50471029      -0.36290368      -0.33775989      -0.27477455      -0.00000000
Se       9.15864945       2.31055348       9.47866958       0.74215083      -0.49363787      -0.15237005      -0.00000000
Se       9.32625680       6.32741500       9.46960514       0.10641339       0.21924340      -0.12450486      -0.00000000
Se       9.40250616      10.61559378       9.33090486      -0.14122907      -0.37856134       0.91745327      -0.00000000
Se       2.92096700       6.30842728       1.64293506      -0.23075069       0.21222237      -0.06800739      -0.00000000
Se       3.00164857      10.55431076       1.58507054       0.14907016      -0.22568676      -0.22812094      -0.00000000
Se       7.17857255       2.19098335       1.66449582       0.17361876       0.39956856      -0.25030443      -0.00000000
Se       7.14832788       6.41869884       1.61082327       0.41117029       0.06102225      -1.49852088      -0.00000000
Se       7.14514433      10.57831302       1.83205682      -0.70304307      -0.01932200      -0.48552106      -0.00000000
Se      11.36053109       6.42042710       1.60381921      -0.15454761      -0.09753293      -0.04889089      -0.00000000
Se       9.21886285       8.62325601       3.86334193       0.23680983      -0.28319177      -0.17268181      -0.00000000
72
Lattice="12.431252870466542 -1.0757663183e-06 -2.4383210931e-06 -1.0827472057e-06 12.5119219126619 1.4467100526e-06 -2.794992909e-06 1.6476394621e-06 11.069681339247689" Properties=species:S:1:pos:R:3:forces:R:3:magmoms:R:1 energy=-300.66933773 stress="0.0031056485192721647 0.00022345757974001265 -0.0001733961889053674 0.00022345757974001265 -0.0006469383440899602 0.0007386747594713124 -0.0001733961889053674 0.0007386747594713124 -0.012192905286712819" dipole="_JSON [[0.0, 0.0, 0.0]]" magmom=0.0020106 free_energy=-300.66933773 pbc="T T T"
Ge       0.55017389       0.41868172       1.49358356       0.40289760      -0.02584727      -0.03472390       0.00000000
Ge       2.89320692      11.11907217       3.94828900       0.17675554      -0.31536335       0.68288926       0.00000000
Ge       7.06985767       2.31730993       4.15886725      -0.01274512       0.61596764       0.38707773       0.00000000
Ge       6.86530903       6.68291168       4.06041973      -0.04342627      -0.10565652       0.17781207      -0.00000000
Ge       6.91842679      10.89579604       4.02495158       0.41441501      -0.47001749       0.00192073       0.00000000
Ge      11.17988599       2.75706890       4.10734286       0.31947959      -0.65013985      -0.12055373       0.00000000
Ge      11.26152377       6.91240971       4.17654371      -0.21463203      -0.19928719       0.03792257       0.00000000
Ge      11.02797602      10.91888710       4.15554600       0.09839800      -0.33331071      -0.04434758      -0.00000000
Ge       0.77033681       1.77437221       7.09593223       0.33070495       0.19001544      -0.61911997       0.00000000
Ge       0.78237203       6.10609969       7.19360201       0.04731473      -0.23413017      -1.42684931       0.00000000
Ge       0.78584810      10.24580554       6.95786801       0.06227259      -0.33915614       0.45184896       0.00000000
Ge       5.11034165       1.88667890       6.79851002       0.05643761      -0.26925563       0.68270897       0.00000000
Ge       5.03658294       5.90487318       7.07090074      -0.14739180       0.12548197       0.40698882       0.00000000
Ge       5.06727838      10.31078442       6.87724275      -0.13344699      -0.40195210       0.03956695      -0.00000000
Ge       9.29499345       1.72225789       6.83547021      -0.34594602       0.15053218       0.36871280       0.00000000
Ge       9.27840134       6.05541199       7.03485147      -0.13996342      -0.54367843       0.18694331       0.00000000
Ge       2.53415796       6.50092082       4.01853742       0.45560378       0.39717026       0.16042418       0.00000000
Ge       2.86903838       2.62659834       4.20966945       0.18582296      -0.59453366      -0.44800473       0.00000000
Ge       9.12320168      10.11143979       7.10710477       0.23102559       0.24813795      -0.22481170      -0.00000000
Ge      11.14221185       8.09484698       9.73754224      -0.17823986       0.08745488      -0.03582022      -0.00000000
Ge      11.02472621      12.55905750       9.57967715       0.00349137      -0.29419224       0.38098058       0.00000000
Ge       0.78266209       4.78439727       1.17110122       0.00914778       0.26963130       0.32312332       0.00000000
Ge       1.02538248       8.97284263       1.45814941      -0.15903276       0.30478864       0.36649787      -0.00000000
Ge       5.07169753       0.51947618       1.48907281       0.10507757      -0.06086494      -0.09341972       0.00000000
Ge       4.76705017       4.27488570       1.48191042      -0.20435735       0.07134976      -0.10594066       0.00000000
Ge       9.09495551       0.54408923       1.36864140       0.01371188      -0.33204549       0.03201216       0.00000000
Ge       9.17873166       4.93478012       1.40803126       0.24216237      -0.06374848       0.52361414       0.00000000
Ge       4.93553783       8.57758230       1.43159652      -0.09874440       0.59486774       0.08562558       0.00000000
Ge       2.96813687       3.94879069       9.61844028       0.13409179      -0.12442392       0.07519050       0.00000000
Ge       2.81117265       8.29834012       9.27563650       0.21452395      -0.11833704       0.58936887      -0.00000000
Ge       3.06701453      12.23341672       9.50344156       0.13726014      -0.12586322       0.07893218       0.00000000
Ge       6.96003246       4.07767495       9.63475629       0.15114782       0.39614159       0.47956344       0.00000000
Ge       7.12778341       7.95087758       9.56942877       0.00507774       0.01287399       0.12023283      -0.00000000
Ge       6.95617189      12.21300364       9.69714321       0.39675046      -0.15804334       0.04454817       0.00000000
Ge      11.45846911       3.83411251       9.71138116      -0.43725954      -0.22464937      -0.33467797       0.00000000
Ge       9.03267863       8.66719067       1.72978578      -0.31040590       0.15191261      -0.57361506      -0.00000000
Se      11.41557162      -0.09950034       7.10083893      -0.03828575       0.20768300      -0.19906337      -0.00000000
Se       2.86993804       4.34482783       7.14811450       0.45570497       0.08323337      -0.20278550      -0.00000000
Se       3.15324500       8.40529855       6.82864249       0.00413095       0.11076337      -0.02289004      -0.00000000
Se       7.23988171       0.06004961       7.18170169      -0.33154766       0.25328455      -0.26466336      -0.00000000
Se       7.39446407       4.13639294       7.21374634      -0.11095478       0.34946356      -0.65703538      -0.00000000
Se       7.27914155       8.36024379       7.05074504      -0.34601046      -0.18317201       0.15701535      -0.00000000
Se      11.45720560       4.18032140       7.12238802      -0.24829446       0.14815090       0.23827926      -0.00000000
Se       9.13766125       0.09051950       3.90734656      -0.20437454      -0.06569201       0.00100180      -0.00000000
Se       1.10551437       0.35784543       4.02283071      -0.33624850       0.18176455      -0.00312435      -0.00000000
Se       0.99659411       4.22722391       3.77536026      -0.63261271       0.43166289      -0.11949679      -0.00000000
Se       0.83703669       8.54104637       4.06698181       0.53822920       0.03670493      -0.37785388      -0.00000000
Se       5.17493193       0.23126416       4.05377690      -0.29031631       0.12794128      -0.19721356      -0.00000000
Se       5.23026618       4.33895030       3.95624331       0.00908291      -0.09013294       0.26957579      -0.00000000
Se       4.96671068       8.37894534       3.93853387      -0.12019517      -0.09861439       0.06171805      -0.00000000
Se       3.12325298       0.13371933       6.96061227       0.04896522      -0.10256902       0.25154822      -0.00000000
Se      11.23201104       8.41137979       7.16105312       0.22708268       0.28863083       0.04535393      -0.00000000
Se      11.56589998      10.77818363       1.66159715      -0.46252409      -0.39276085      -0.09283923      -0.00000000
Se       3.08802176       2.13413280       1.58268466       0.25144952       0.64191618       0.33710875      -0.00000000
Se      11.08553499       2.17520929       1.48958833       0.13218353       0.32623005       0.34534334      -0.00000000
Se       9.41451654       4.38363329       4.18728095      -0.80705348       0.48067674      -0.76587163      -0.00000000
Se       1.04583512       2.12554911       9.54151075       0.02522428      -0.11265703       0.47300478      -0.00000000
Se       0.77316010       6.45700176       9.53677471       0.41535840       0.07686685       1.16150866      -0.00000000
Se       1.24565388      10.38372271       9.60509029      -0.39269234       0.20489495      -0.72984675      -0.00000000
Se       5.13859292       2.36017571       9.48985571      -0.52422244      -0.56949837      -0.43438297      -0.00000000
Se       5.14280672       6.22731966       9.70413782       0.31763438      -0.05413792      -0.83769554      -0.00000000
Se       5.10085366      10.38624728       9.41818082       0.04013077       0.24654823       0.02176340      -0.00000000
Se       9.34720130       2.03163610       9.41195047       0.36519098       0.32946815      -0.07967714      -0.00000000
Se       9.28138274       6.19991665       9.63653896       0.09896196       0.39202252      -0.21811659      -0.00000000
Se       9.31318218      10.60721680       9.57159602      -0.52930156      -0.03656810       0.32769298      -0.00000000
Se       2.94413092       6.31097161       1.49361764      -0.18071001      -0.22351091       0.03375462      -0.00000000
Se       3.04746816      10.77239160       1.53443940       0.21258902      -0.56383681      -0.54309026      -0.00000000
Se       7.21395300       2.23483136       1.72011012      -0.15355235       0.26952211      -0.67996557      -0.00000000
Se       7.22837158       6.64793823       1.54995054       0.32399081      -0.26199506      -0.02879886      -0.00000000
Se       6.95333946      10.30840213       1.50832450       0.25337476       0.38133090       0.16601547      -0.00000000
Se      11.33011749       6.67265242       1.60785460      -0.01082061      -0.61999355      -0.14289946      -0.00000000
Se       9.23245754       8.57371128       4.19195787       0.23245355       0.17454969       0.08400439      -0.00000000
72
Lattice="12.430008846668803 -1.0756586639e-06 -2.4380770847e-06 -1.0828356875e-06 12.51294438377689 1.4468282774e-06 -2.795857737e-06 1.6481492755e-06 11.073106525363295" Properties=species:S:1:pos:R:3:forces:R:3:magmoms:R:1 energy=-300.85988747 stress="0.0008674347334478344 -0.0009957535638008483 0.0018491036952721963 -0.0009957535638008483 -0.0038466878869588363 -0.0008184814102113255 0.0018491036952721963 -0.0008184814102113255 -0.009288284928642495" dipole="_JSON [[0.0, 0.0, 0.0]]" magmom=0.001909 free_energy=-300.85988747 pbc="T T T"
Ge       0.73048028       0.32895435       1.68251420      -0.32213782       0.11877192      -0.25712874       0.00000000
Ge       3.08228199      10.98712985       4.08849689       0.01330535       0.25507960      -0.24260309       0.00000000
Ge       7.17870697       2.68809165       4.27864619       0.30897771      -0.29662455      -0.49456870       0.00000000
Ge       7.04285765       6.53746166       4.08087720      -0.20712779       0.11659360      -0.07989521       0.00000000
Ge       7.04580817      10.88041416       4.23755087      -0.25742662       0.08831750      -0.27421335       0.00000000
Ge      11.26746276       2.72301263       4.00224562      -0.22768821      -0.01479621       0.46413698       0.00000000
Ge      11.11617070       6.94508282       4.32021663       0.26561494      -0.09776539      -0.33913115       0.00000000
Ge      11.11451400      10.93643721       4.09457416      -0.17512131      -0.21013754       0.06876706       0.00000000
Ge       0.91035108       1.94701223       7.05527397      -0.04396854      -0.47110248       0.38545009      -0.00000000
Ge       0.78179392       6.14752322       6.80769010       0.07146849      -0.53898562       0.85548177       0.00000000
Ge       0.53919881      10.36216490       6.92533117       0.40282097       0.29848989      -0.59100114       0.00000000