 vasp.6.4.2 20Jul23 (build Oct 12 2023 10:31:02) complex                         
 executed on              LinuxNV date 2025.05.17  23:12:00
 running  160 mpi-ranks, with    1 threads/rank, on   10 nodes
 distrk:  each k-point on   80 cores,    2 groups
 distr:  one band on NCORE=   5 cores,   16 groups


--------------------------------------------------------------------------------------------------------


 INCAR:
   ENCUT = 360.000000
   SIGMA = 0.050000
   EDIFF = 1.00e-06
   ALGO = Normal
   GGA = PE
   PREC = Normal
   SYSTEM = ./
   ICHARG = 2
   ISMEAR = 0
   ISPIN = 1
   ISTART = 0
   ISYM = 0
   KPAR = 2
   LMAXMIX = 4
   NELM = 100
   NPAR = 16
   LASPH = .TRUE.
   LCHARG = .FALSE.
   LWAVE = .FALSE.

 POTCAR:    PAW_PBE Ge 05Jan2001                  
 POTCAR:    PAW_PBE Se 06Sep2000                  
 POTCAR:    PAW_PBE Ge 05Jan2001                  
   VRHFIN =Ge: s2p2                                                                                 
   LEXCH  = PE                                                                                      
   EATOM  =   104.9960 eV,    7.7170 Ry                                                             
                                                                                                    
   TITEL  = PAW_PBE Ge 05Jan2001                                                                    
   LULTRA =        F    use ultrasoft PP ?                                                          
   IUNSCR =        1    unscreen: 0-lin 1-nonlin 2-no                                               
   RPACOR =    2.170    partial core radius                                                         
   POMASS =   72.610; ZVAL   =    4.000    mass and valenz                                          
   RCORE  =    2.300    outmost cutoff radius                                                       
   RWIGS  =    2.300; RWIGS  =    1.217    wigner-seitz radius (au A)                               
   ENMAX  =  173.807; ENMIN  =  130.355 eV                                                          
   ICORE  =        3    local potential                                                             
   LCOR   =        T    correct aug charges                                                         
   LPAW   =        T    paw PP                                                                      
   EAUG   =  385.843                                                                                
   DEXC   =    0.000                                                                                
   RMAX   =    2.342    core radius for proj-oper                                                   
   RAUG   =    1.300    factor for augmentation sphere                                              
   RDEP   =    2.318    radius for radial grids                                                     
   RDEPT  =    2.103    core radius for aug-charge                                                  
                                                                                                    
   Atomic configuration                                                                             
   10 entries                                                                                       
     n  l   j            E        occ.                                                              
     1  0  0.50    -10959.8463   2.0000                                                             
     2  0  0.50     -1371.6056   2.0000                                                             
     2  1  1.50     -1198.4791   6.0000                                                             
     3  0  0.50      -168.4733   2.0000                                                             
     3  1  1.50      -115.6019   6.0000                                                             
     3  2  2.50       -29.3106  10.0000                                                             
     4  0  0.50       -11.7309   2.0000                                                             
     4  1  0.50        -3.8952   2.0000                                                             
     4  2  1.50        -4.0817   0.0000                                                             
     4  3  2.50        -4.0817   0.0000                                                             
   Description                                                                                      
     l       E           TYP  RCUT    TYP  RCUT                                                     
     0    -11.7309493     23  2.300                                                                 
     0     -7.4578696     23  2.300                                                                 
     1     -3.8952261     23  2.300                                                                 
     1      6.1178114     23  2.300                                                                 
     2     -4.0817478     23  2.300                                                                 
     3     -1.3605826      7  2.300                                                                 
  local pseudopotential read in
  partial core-charges read in
  partial kinetic energy density read in
  atomic valenz-charges read in
  non local Contribution for L=            0  read in
    real space projection operators read in
  non local Contribution for L=            0  read in
    real space projection operators read in
  non local Contribution for L=            1  read in
    real space projection operators read in
  non local Contribution for L=            1  read in
    real space projection operators read in
  non local Contribution for L=            2  read in
    real space projection operators read in
    PAW grid and wavefunctions read in
 
   number of l-projection  operators is LMAX  =            5
   number of lm-projection operators is LMMAX =           13
 
 POTCAR:    PAW_PBE Se 06Sep2000                  
   VRHFIN =Se: s2p4                                                                                 
   LEXCH  = PE                                                                                      
   EATOM  =   257.1286 eV,   18.8984 Ry                                                             
                                                                                                    
   TITEL  = PAW_PBE Se 06Sep2000                                                                    
   LULTRA =        F    use ultrasoft PP ?                                                          
   IUNSCR =        1    unscreen: 0-lin 1-nonlin 2-no                                               
   RPACOR =    1.900    partial core radius                                                         
   POMASS =   78.960; ZVAL   =    6.000    mass and valenz                                          
   RCORE  =    2.100    outmost cutoff radius                                                       
   RWIGS  =    2.200; RWIGS  =    1.164    wigner-seitz radius (au A)                               
   ENMAX  =  211.555; ENMIN  =  158.666 eV                                                          
   ICORE  =        3    local potential                                                             
   LCOR   =        T    correct aug charges                                                         
   LPAW   =        T    paw PP                                                                      
   EAUG   =  446.842                                                                                
   DEXC   =    0.000                                                                                
   RMAX   =    2.147    core radius for proj-oper                                                   
   RAUG   =    1.300    factor for augmentation sphere                                              
   RDEP   =    2.177    radius for radial grids                                                     
   RDEPT  =    1.928    core radius for aug-charge                                                  
                                                                                                    
   Atomic configuration                                                                             
   10 entries                                                                                       
     n  l   j            E        occ.                                                              
     1  0  0.50    -12503.4787   2.0000                                                             
     2  0  0.50     -1606.9547   2.0000                                                             
     2  1  1.50     -1413.3140   6.0000                                                             
     3  0  0.50      -213.4885   2.0000                                                             
     3  1  1.50      -152.9538   6.0000                                                             
     3  2  2.50       -53.1221  10.0000                                                             
     4  0  0.50       -17.2865   2.0000                                                             
     4  1  0.50        -6.5110   4.0000                                                             
     4  2  2.50        -6.8029   0.0000                                                             
     4  3  2.50        -6.8029   0.0000                                                             
   Description                                                                                      
     l       E           TYP  RCUT    TYP  RCUT                                                     
     0    -17.2865377     23  2.100                                                                 
     0    -15.3094411     23  2.100                                                                 
     1     -6.5110275     23  2.100                                                                 
     1     -0.0695192     23  2.100                                                                 
     2     -6.8029130     23  2.100                                                                 
     3     -1.3605826      7  2.100                                                                 
  local pseudopotential read in
  partial core-charges read in
  partial kinetic energy density read in
  atomic valenz-charges read in
  non local Contribution for L=            0  read in
    real space projection operators read in
  non local Contribution for L=            0  read in
    real space projection operators read in
  non local Contribution for L=            1  read in
    real space projection operators read in
  non local Contribution for L=            1  read in
    real space projection operators read in
  non local Contribution for L=            2  read in
    real space projection operators read in
    PAW grid and wavefunctions read in
 
   number of l-projection  operators is LMAX  =            5
   number of lm-projection operators is LMMAX =           13
 
  PAW_PBE Ge 05Jan2001                  :
 energy of atom  1       EATOM= -104.9960
 kinetic energy error for atom=    0.0005 (will be added to EATOM!!)
  PAW_PBE Se 06Sep2000                  :
 energy of atom  2       EATOM= -257.1286
 kinetic energy error for atom=    0.0030 (will be added to EATOM!!)
 
 
 POSCAR: Ge Se
  positions in cartesian coordinates
  No initial velocities read in
 exchange correlation table for  LEXCH =        8
   RHO(1)=    0.500       N(1)  =     2000
   RHO(2)=  100.500       N(2)  =     4000
 


--------------------------------------------------------------------------------------------------------


 ion  position               nearest neighbor table
   1  0.250  0.815  0.116-   5 2.58   6 2.59   6 2.59
   2  0.750  0.315  0.384-   6 2.58   5 2.59   5 2.59
   3  0.750  0.881  0.884-   7 2.58   8 2.59   8 2.59
   4  0.250  0.381  0.616-   8 2.58   7 2.59   7 2.59
   5  0.250  0.691  0.355-   1 2.58   2 2.59   2 2.59
   6  0.750  0.191  0.145-   2 2.58   1 2.59   1 2.59
   7  0.750  0.005  0.645-   3 2.58   4 2.59   4 2.59
   8  0.250  0.505  0.855-   4 2.58   3 2.59   3 2.59
 

IMPORTANT INFORMATION: All symmetrisations will be switched off!
NOSYMM: (Re-)initialisation of all symmetry stuff for point group C_1.


----------------------------------------------------------------------------------------

                                     Primitive cell                                     

  volume of cell :     184.8593

  direct lattice vectors                    reciprocal lattice vectors
     3.858100176  0.000000000  0.000000000     0.259194929  0.000000000  0.000000000
     0.000000000  4.526575088  0.000000000     0.000000000  0.220917577  0.000000000
     0.000000000  0.000000000 10.585176468     0.000000000  0.000000000  0.094471736

  length of vectors
     3.858100176  4.526575088 10.585176468     0.259194929  0.220917577  0.094471736

  position of ions in fractional coordinates (direct lattice)
     0.249999709  0.814848297  0.116293234
     0.749999757  0.314848322  0.383706663
     0.749999529  0.880803548  0.883706698
     0.249998913  0.380803590  0.616293301
     0.249999781  0.690593384  0.354521754
     0.749999660  0.190593485  0.145478256
     0.749999119  0.005058363  0.645478205
     0.249999423  0.505058446  0.854521738

  ion indices of the primitive-cell ions
   primitive index   ion index
                 1           1
                 2           2
                 3           3
                 4           4
                 5           5
                 6           6
                 7           7
                 8           8

----------------------------------------------------------------------------------------

 
 
 KPOINTS: KPOINTS created by Atomic Simulation Env

Automatic generation of k-mesh.
 Grid dimensions read from file:
 generate k-points for:    6    6    2

 Generating k-lattice:

  Cartesian coordinates                     Fractional coordinates (reciprocal lattice)
     0.043199155  0.000000000  0.000000000     0.166666667  0.000000000  0.000000000
     0.000000000  0.036819596  0.000000000     0.000000000  0.166666667  0.000000000
     0.000000000  0.000000000  0.047235868     0.000000000  0.000000000  0.500000000

  Length of vectors
     0.043199155  0.036819596  0.047235868

  Shift w.r.t. Gamma in fractional coordinates (k-lattice)
     0.000000000  0.000000000  0.000000000

 
 Subroutine IBZKPT returns following result:
 ===========================================
 
 Found     40 irreducible k-points:
 
 Following reciprocal coordinates:
            Coordinates               Weight
  0.000000  0.000000  0.000000      1.000000
  0.166667  0.000000  0.000000      2.000000
  0.333333  0.000000  0.000000      2.000000
  0.500000  0.000000  0.000000      1.000000
  0.000000  0.166667  0.000000      2.000000
  0.166667  0.166667  0.000000      2.000000
  0.166667 -0.166667  0.000000      2.000000
  0.333333  0.166667  0.000000      2.000000
  0.333333 -0.166667  0.000000      2.000000
  0.500000  0.166667  0.000000      2.000000
  0.000000  0.333333  0.000000      2.000000
  0.166667  0.333333  0.000000      2.000000
  0.166667 -0.333333  0.000000      2.000000
  0.333333  0.333333  0.000000      2.000000
  0.333333 -0.333333  0.000000      2.000000
  0.500000  0.333333  0.000000      2.000000
  0.000000  0.500000  0.000000      1.000000
  0.166667  0.500000  0.000000      2.000000
  0.333333  0.500000  0.000000      2.000000
  0.500000  0.500000  0.000000      1.000000
  0.000000  0.000000  0.500000      1.000000
  0.166667  0.000000  0.500000      2.000000
  0.333333  0.000000  0.500000      2.000000
  0.500000  0.000000  0.500000      1.000000
  0.000000  0.166667  0.500000      2.000000
  0.166667  0.166667  0.500000      2.000000
  0.166667 -0.166667  0.500000      2.000000
  0.333333  0.166667  0.500000      2.000000
  0.333333 -0.166667  0.500000      2.000000
  0.500000  0.166667  0.500000      2.000000
  0.000000  0.333333  0.500000      2.000000
  0.166667  0.333333  0.500000      2.000000
  0.166667 -0.333333  0.500000      2.000000
  0.333333  0.333333  0.500000      2.000000
  0.333333 -0.333333  0.500000      2.000000
  0.500000  0.333333  0.500000      2.000000
  0.000000  0.500000  0.500000      1.000000
  0.166667  0.500000  0.500000      2.000000
  0.333333  0.500000  0.500000      2.000000
  0.500000  0.500000  0.500000      1.000000
 
 Following cartesian coordinates:
            Coordinates               Weight
  0.000000  0.000000  0.000000      1.000000
  0.043199  0.000000  0.000000      2.000000
  0.086398  0.000000  0.000000      2.000000
  0.129597  0.000000  0.000000      1.000000
  0.000000  0.036820  0.000000      2.000000
  0.043199  0.036820  0.000000      2.000000
  0.043199 -0.036820  0.000000      2.000000
  0.086398  0.036820  0.000000      2.000000
  0.086398 -0.036820  0.000000      2.000000
  0.129597  0.036820  0.000000      2.000000
  0.000000  0.073639  0.000000      2.000000
  0.043199  0.073639  0.000000      2.000000
  0.043199 -0.073639  0.000000      2.000000
  0.086398  0.073639  0.000000      2.000000
  0.086398 -0.073639  0.000000      2.000000
  0.129597  0.073639  0.000000      2.000000
  0.000000  0.110459  0.000000      1.000000
  0.043199  0.110459  0.000000      2.000000
  0.086398  0.110459  0.000000      2.000000
  0.129597  0.110459  0.000000      1.000000
  0.000000  0.000000  0.047236      1.000000
  0.043199  0.000000  0.047236      2.000000
  0.086398  0.000000  0.047236      2.000000
  0.129597  0.000000  0.047236      1.000000
  0.000000  0.036820  0.047236      2.000000
  0.043199  0.036820  0.047236      2.000000
  0.043199 -0.036820  0.047236      2.000000
  0.086398  0.036820  0.047236      2.000000
  0.086398 -0.036820  0.047236      2.000000
  0.129597  0.036820  0.047236      2.000000
  0.000000  0.073639  0.047236      2.000000
  0.043199  0.073639  0.047236      2.000000
  0.043199 -0.073639  0.047236      2.000000
  0.086398  0.073639  0.047236      2.000000
  0.086398 -0.073639  0.047236      2.000000
  0.129597  0.073639  0.047236      2.000000
  0.000000  0.110459  0.047236      1.000000
  0.043199  0.110459  0.047236      2.000000
  0.086398  0.110459  0.047236      2.000000
  0.129597  0.110459  0.047236      1.000000
 


--------------------------------------------------------------------------------------------------------




 Dimension of arrays:
   k-points           NKPTS =     40   k-points in BZ     NKDIM =     40   number of bands    NBANDS=     32
   number of dos      NEDOS =    301   number of ions     NIONS =      8
   non local maximal  LDIM  =      5   non local SUM 2l+1 LMDIM =     13
   total plane-waves  NPLWV =  21600
   max r-space proj   IRMAX =      1   max aug-charges    IRDMAX=   6549
   dimension x,y,z NGX =    18 NGY =   24 NGZ =   50
   dimension x,y,z NGXF=    36 NGYF=   48 NGZF=  100
   support grid    NGXF=    36 NGYF=   48 NGZF=  100
   ions per type =               4   4
   NGX,Y,Z   is equivalent  to a cutoff of   7.76,  8.81,  7.85 a.u.
   NGXF,Y,Z  is equivalent  to a cutoff of  15.51, 17.63, 15.71 a.u.

 SYSTEM =  ./                                      
 POSCAR =  Ge Se                                   

 Startparameter for this run:
   NWRITE =      2    write-flag & timer
   PREC   = normal    normal or accurate (medium, high low for compatibility)
   ISTART =      0    job   : 0-new  1-cont  2-samecut
   ICHARG =      2    charge: 1-file 2-atom 10-const
   ISPIN  =      1    spin polarized calculation?
   LNONCOLLINEAR =      F non collinear calculations
   LSORBIT =      F    spin-orbit coupling
   INIWAV =      1    electr: 0-lowe 1-rand  2-diag
   LASPH  =      T    aspherical Exc in radial PAW
 Electronic Relaxation 1
   ENCUT  =  360.0 eV  26.46 Ry    5.14 a.u.   5.97  7.00 16.38*2*pi/ulx,y,z
   ENINI  =  360.0     initial cutoff
   ENAUG  =  446.8 eV  augmentation charge cutoff
   NELM   =    100;   NELMIN=  2; NELMDL= -5     # of ELM steps 
   EDIFF  = 0.1E-05   stopping-criterion for ELM
   LREAL  =      F    real-space projection
   NLSPLINE    = F    spline interpolate recip. space projectors
   LCOMPAT=      F    compatible to vasp.4.4
   GGA_COMPAT  = T    GGA compatible to vasp.4.4-vasp.4.6
   LMAXPAW     = -100 max onsite density
   LMAXMIX     =    4 max onsite mixed and CHGCAR
   VOSKOWN=      0    Vosko Wilk Nusair interpolation
   ROPT   =    0.00000   0.00000
 Ionic relaxation
   EDIFFG = 0.1E-04   stopping-criterion for IOM
   NSW    =      0    number of steps for IOM
   NBLOCK =      1;   KBLOCK =      1    inner block; outer block 
   IBRION =     -1    ionic relax: 0-MD 1-quasi-New 2-CG
   NFREE  =      0    steps in history (QN), initial steepest desc. (CG)
   ISIF   =      2    stress and relaxation
   IWAVPR =     10    prediction:  0-non 1-charg 2-wave 3-comb
   ISYM   =      0    0-nonsym 1-usesym 2-fastsym
   LCORR  =      T    Harris-Foulkes like correction to forces

   POTIM  = 0.5000    time-step for ionic-motion
   TEIN   =    0.0    initial temperature
   TEBEG  =    0.0;   TEEND  =   0.0 temperature during run
   SMASS  =  -3.00    Nose mass-parameter (am)
   estimated Nose-frequenzy (Omega)   =  0.10E-29 period in steps = 0.13E+47 mass=  -0.340E-27a.u.
   SCALEE = 1.0000    scale energy and forces
   NPACO  =    256;   APACO  = 10.0  distance and # of slots for P.C.
   PSTRESS=    0.0 pullay stress

  Mass of Ions in am
   POMASS =  72.61 78.96
  Ionic Valenz
   ZVAL   =   4.00  6.00
  Atomic Wigner-Seitz radii
   RWIGS  =  -1.00 -1.00
  virtual crystal weights 
   VCA    =   1.00  1.00
   NELECT =      40.0000    total number of electrons
   NUPDOWN=      -1.0000    fix difference up-down

 DOS related values:
   EMIN   =  10.00;   EMAX   =-10.00  energy-range for DOS
   EFERMI =   0.00;   METHOD = LEGACY      
   ISMEAR =     0;   SIGMA  =   0.05  broadening in eV -4-tet -1-fermi 0-gaus

 Electronic relaxation 2 (details)
   IALGO  =     38    algorithm
   LDIAG  =      T    sub-space diagonalisation (order eigenvalues)
   LSUBROT=      F    optimize rotation matrix (better conditioning)
   TURBO    =      0    0=normal 1=particle mesh
   IRESTART =      0    0=no restart 2=restart with 2 vectors
   NREBOOT  =      0    no. of reboots
   NMIN     =      0    reboot dimension
   EREF     =   0.00    reference energy to select bands
   IMIX   =      4    mixing-type and parameters
     AMIX     =   0.40;   BMIX     =  1.00
     AMIX_MAG =   1.60;   BMIX_MAG =  1.00
     AMIN     =   0.10
     WC   =   100.;   INIMIX=   1;  MIXPRE=   1;  MAXMIX= -45

 Intra band minimization:
   WEIMIN = 0.0000     energy-eigenvalue tresh-hold
   EBREAK =  0.78E-08  absolut break condition
   DEPER  =   0.30     relativ break condition  

   TIME   =   0.40     timestep for ELM

  volume/ion in A,a.u.               =      23.11       155.94
  Fermi-wavevector in a.u.,A,eV,Ry     =   0.982836  1.857291 13.142773  0.965967
  Thomas-Fermi vector in A             =   2.113949
 
 Write flags
   LWAVE        =      F    write WAVECAR
   LDOWNSAMPLE  =      F    k-point downsampling of WAVECAR
   LCHARG       =      F    write CHGCAR
   LVTOT        =      F    write LOCPOT, total local potential
   LVHAR        =      F    write LOCPOT, Hartree potential only
   LELF         =      F    write electronic localiz. function (ELF)
   LORBIT       =      0    0 simple, 1 ext, 2 COOP (PROOUT), +10 PAW based schemes


 Dipole corrections
   LMONO  =      F    monopole corrections only (constant potential shift)
   LDIPOL =      F    correct potential (dipole corrections)
   IDIPOL =      0    1-x, 2-y, 3-z, 4-all directions 
   EPSILON=  1.0000000 bulk dielectric constant

 Exchange correlation treatment:
   GGA     =    PE    GGA type
   LEXCH   =     8    internal setting for exchange type
   LIBXC   =     F    Libxc                    
   VOSKOWN =     0    Vosko Wilk Nusair interpolation
   LHFCALC =     F    Hartree Fock is set to
   LHFONE  =     F    Hartree Fock one center treatment
   AEXX    =    0.0000 exact exchange contribution

 Linear response parameters
   LEPSILON=     F    determine dielectric tensor
   LRPA    =     F    only Hartree local field effects (RPA)
   LNABLA  =     F    use nabla operator in PAW spheres
   LVEL    =     F    velocity operator in full k-point grid
   CSHIFT  =0.1000    complex shift for real part using Kramers Kronig
   OMEGAMAX=  -1.0    maximum frequency
   DEG_THRESHOLD= 0.2000000E-02 threshold for treating states as degnerate
   RTIME   =   -0.100 relaxation time in fs
  (WPLASMAI=    0.000 imaginary part of plasma frequency in eV, 0.658/RTIME)
   DFIELD  = 0.0000000 0.0000000 0.0000000 field for delta impulse in time
 
  Optional k-point grid parameters
   LKPOINTS_OPT  =     F    use optional k-point grid
   KPOINTS_OPT_MODE=     1    mode for optional k-point grid
 
 Orbital magnetization related:
   ORBITALMAG=     F  switch on orbital magnetization
   LCHIMAG   =     F  perturbation theory with respect to B field
   DQ        =  0.001000  dq finite difference perturbation B field
   LLRAUG    =     F  two centre corrections for induced B field
   LBONE     =     F  B-component reconstruction in AE one-centre
   LVGVCALC  =     T  calculate vGv susceptibility
   LVGVAPPL  =     F  apply vGv susceptibility instead of pGv for G=0

 Random number generation:
   RANDOM_GENERATOR = DEFAULT
   PCG_SEED         = not used


--------------------------------------------------------------------------------------------------------


 Static calculation
 charge density and potential will be updated during run
 non-spin polarized calculation
 Variant of blocked Davidson
 Davidson routine will perform the subspace rotation
 perform sub-space diagonalisation
    after iterative eigenvector-optimisation
 modified Broyden-mixing scheme, WC =      100.0
 initial mixing is a Kerker type mixing with AMIX =  0.4000 and BMIX =      1.0000
 Hartree-type preconditioning will be used
 using additional bands            12
 reciprocal scheme for non local part
 use partial core corrections
 calculate Harris-corrections to forces 
   (improved forces if not selfconsistent)
 use gradient corrections 
 use of overlap-Matrix (Vanderbilt PP)
 Gauss-broadening in eV      SIGMA  =   0.05


--------------------------------------------------------------------------------------------------------


  energy-cutoff  :      360.00
  volume of cell :      184.86
      direct lattice vectors                 reciprocal lattice vectors
     3.858100176  0.000000000  0.000000000     0.259194929  0.000000000  0.000000000
     0.000000000  4.526575088  0.000000000     0.000000000  0.220917577  0.000000000
     0.000000000  0.000000000 10.585176468     0.000000000  0.000000000  0.094471736

  length of vectors
     3.858100176  4.526575088 10.585176468     0.259194929  0.220917577  0.094471736


 
 k-points in units of 2pi/SCALE and weight: KPOINTS created by Atomic Simulation Env
   0.00000000  0.00000000  0.00000000       0.014
   0.04319915  0.00000000  0.00000000       0.028
   0.08639831  0.00000000  0.00000000       0.028
   0.12959746  0.00000000  0.00000000       0.014
   0.00000000  0.03681960  0.00000000       0.028
   0.04319915  0.03681960  0.00000000       0.028
   0.04319915 -0.03681960  0.00000000       0.028
   0.08639831  0.03681960  0.00000000       0.028
   0.08639831 -0.03681960  0.00000000       0.028
   0.12959746  0.03681960  0.00000000       0.028
   0.00000000  0.07363919  0.00000000       0.028
   0.04319915  0.07363919  0.00000000       0.028
   0.04319915 -0.07363919  0.00000000       0.028
   0.08639831  0.07363919  0.00000000       0.028
   0.08639831 -0.07363919  0.00000000       0.028
   0.12959746  0.07363919  0.00000000       0.028
   0.00000000  0.11045879  0.00000000       0.014
   0.04319915  0.11045879  0.00000000       0.028
   0.08639831  0.11045879  0.00000000       0.028
   0.12959746  0.11045879  0.00000000       0.014
   0.00000000  0.00000000  0.04723587       0.014
   0.04319915  0.00000000  0.04723587       0.028
   0.08639831  0.00000000  0.04723587       0.028
   0.12959746  0.00000000  0.04723587       0.014
   0.00000000  0.03681960  0.04723587       0.028
   0.04319915  0.03681960  0.04723587       0.028
   0.04319915 -0.03681960  0.04723587       0.028
   0.08639831  0.03681960  0.04723587       0.028
   0.08639831 -0.03681960  0.04723587       0.028
   0.12959746  0.03681960  0.04723587       0.028
   0.00000000  0.07363919  0.04723587       0.028
   0.04319915  0.07363919  0.04723587       0.028
   0.04319915 -0.07363919  0.04723587       0.028
   0.08639831  0.07363919  0.04723587       0.028
   0.08639831 -0.07363919  0.04723587       0.028
   0.12959746  0.07363919  0.04723587       0.028
   0.00000000  0.11045879  0.04723587       0.014
   0.04319915  0.11045879  0.04723587       0.028
   0.08639831  0.11045879  0.04723587       0.028
   0.12959746  0.11045879  0.04723587       0.014
 
 k-points in reciprocal lattice and weights: KPOINTS created by Atomic Simulation Env
   0.00000000  0.00000000  0.00000000       0.014
   0.16666667  0.00000000  0.00000000       0.028
   0.33333333  0.00000000  0.00000000       0.028
   0.50000000  0.00000000  0.00000000       0.014
   0.00000000  0.16666667  0.00000000       0.028
   0.16666667  0.16666667  0.00000000       0.028
   0.16666667 -0.16666667  0.00000000       0.028
   0.33333333  0.16666667  0.00000000       0.028
   0.33333333 -0.16666667  0.00000000       0.028
   0.50000000  0.16666667  0.00000000       0.028
   0.00000000  0.33333333  0.00000000       0.028
   0.16666667  0.33333333  0.00000000       0.028
   0.16666667 -0.33333333  0.00000000       0.028
   0.33333333  0.33333333  0.00000000       0.028
   0.33333333 -0.33333333  0.00000000       0.028
   0.50000000  0.33333333  0.00000000       0.028
   0.00000000  0.50000000  0.00000000       0.014
   0.16666667  0.50000000  0.00000000       0.028
   0.33333333  0.50000000  0.00000000       0.028
   0.50000000  0.50000000  0.00000000       0.014
   0.00000000  0.00000000  0.50000000       0.014
   0.16666667  0.00000000  0.50000000       0.028
   0.33333333  0.00000000  0.50000000       0.028
   0.50000000  0.00000000  0.50000000       0.014
   0.00000000  0.16666667  0.50000000       0.028
   0.16666667  0.16666667  0.50000000       0.028
   0.16666667 -0.16666667  0.50000000       0.028
   0.33333333  0.16666667  0.50000000       0.028
   0.33333333 -0.16666667  0.50000000       0.028
   0.50000000  0.16666667  0.50000000       0.028
   0.00000000  0.33333333  0.50000000       0.028
   0.16666667  0.33333333  0.50000000       0.028
   0.16666667 -0.33333333  0.50000000       0.028
   0.33333333  0.33333333  0.50000000       0.028
   0.33333333 -0.33333333  0.50000000       0.028
   0.50000000  0.33333333  0.50000000       0.028
   0.00000000  0.50000000  0.50000000       0.014
   0.16666667  0.50000000  0.50000000       0.028
   0.33333333  0.50000000  0.50000000       0.028
   0.50000000  0.50000000  0.50000000       0.014
 
 position of ions in fractional coordinates (direct lattice) 
   0.24999971  0.81484830  0.11629323
   0.74999976  0.31484832  0.38370666
   0.74999953  0.88080355  0.88370670
   0.24999891  0.38080359  0.61629330
   0.24999978  0.69059338  0.35452175
   0.74999966  0.19059348  0.14547826
   0.74999912  0.00505836  0.64547820
   0.24999942  0.50505845  0.85452174
 
 position of ions in cartesian coordinates  (Angst):
   0.96452392  3.68847200  1.23098441
   2.89357419  1.42518457  4.06160274
   2.89357331  3.98702340  9.35419135
   0.96452085  1.72373604  6.52357335
   0.96452420  3.12602281  3.75267533
   2.89357382  0.86273572  1.53991301
   2.89357173  0.02289706  6.83250071
   0.96452282  2.28618498  9.04526339
 


--------------------------------------------------------------------------------------------------------


 k-point   1 :   0.0000 0.0000 0.0000  plane waves:    2825
 k-point   2 :   0.1667 0.0000 0.0000  plane waves:    2856
 k-point   3 :   0.3333 0.0000 0.0000  plane waves:    2864
 k-point   4 :   0.5000 0.0000 0.0000  plane waves:    2880
 k-point   5 :   0.0000 0.1667 0.0000  plane waves:    2850
 k-point   6 :   0.1667 0.1667 0.0000  plane waves:    2853
 k-point   7 :   0.1667-0.1667 0.0000  plane waves:    2853
 k-point   8 :   0.3333 0.1667 0.0000  plane waves:    2873
 k-point   9 :   0.3333-0.1667 0.0000  plane waves:    2873
 k-point  10 :   0.5000 0.1667 0.0000  plane waves:    2866
 k-point  11 :   0.0000 0.3333 0.0000  plane waves:    2864
 k-point  12 :   0.1667 0.3333 0.0000  plane waves:    2871
 k-point  13 :   0.1667-0.3333 0.0000  plane waves:    2871
 k-point  14 :   0.3333 0.3333 0.0000  plane waves:    2883
 k-point  15 :   0.3333-0.3333 0.0000  plane waves:    2883
 k-point  16 :   0.5000 0.3333 0.0000  plane waves:    2880
 k-point  17 :   0.0000 0.5000 0.0000  plane waves:    2874
 k-point  18 :   0.1667 0.5000 0.0000  plane waves:    2880
 k-point  19 :   0.3333 0.5000 0.0000  plane waves:    2888
 k-point  20 :   0.5000 0.5000 0.0000  plane waves:    2896
 k-point  21 :   0.0000 0.0000 0.5000  plane waves:    2828
 k-point  22 :   0.1667 0.0000 0.5000  plane waves:    2838
 k-point  23 :   0.3333 0.0000 0.5000  plane waves:    2868
 k-point  24 :   0.5000 0.0000 0.5000  plane waves:    2852
 k-point  25 :   0.0000 0.1667 0.5000  plane waves:    2846
 k-point  26 :   0.1667 0.1667 0.5000  plane waves:    2868
 k-point  27 :   0.1667-0.1667 0.5000  plane waves:    2868
 k-point  28 :   0.3333 0.1667 0.5000  plane waves:    2866
 k-point  29 :   0.3333-0.1667 0.5000  plane waves:    2866
 k-point  30 :   0.5000 0.1667 0.5000  plane waves:    2884
 k-point  31 :   0.0000 0.3333 0.5000  plane waves:    2852
 k-point  32 :   0.1667 0.3333 0.5000  plane waves:    2862
 k-point  33 :   0.1667-0.3333 0.5000  plane waves:    2862
 k-point  34 :   0.3333 0.3333 0.5000  plane waves:    2874
 k-point  35 :   0.3333-0.3333 0.5000  plane waves:    2874
 k-point  36 :   0.5000 0.3333 0.5000  plane waves:    2892
 k-point  37 :   0.0000 0.5000 0.5000  plane waves:    2872
 k-point  38 :   0.1667 0.5000 0.5000  plane waves:    2856
 k-point  39 :   0.3333 0.5000 0.5000  plane waves:    2876
 k-point  40 :   0.5000 0.5000 0.5000  plane waves:    2872

 maximum and minimum number of plane-waves per node :       592      553

 maximum number of plane-waves:      2896
 maximum index in each direction: 
   IXMAX=    5   IYMAX=    7   IZMAX=   16
   IXMIN=   -6   IYMIN=   -7   IZMIN=  -16


 parallel 3D FFT for wavefunctions:
    minimum data exchange during FFTs selected (reduces bandwidth)
 parallel 3D FFT for charge:
    minimum data exchange during FFTs selected (reduces bandwidth)


 total amount of memory used by VASP MPI-rank0    36587. kBytes
=======================================================================

   base      :      30000. kBytes
   nonl-proj :       5001. kBytes
   fftplans  :        306. kBytes
   grid      :        466. kBytes
   one-center:         16. kBytes
   wavefun   :        798. kBytes
 
     INWAV:  cpu time      0.0000: real time      0.0001
 Broyden mixing: mesh for mixing (old mesh)
   NGX = 11   NGY = 15   NGZ = 33
  (NGX  = 36   NGY  = 48   NGZ  =100)
  gives a total of   5445 points

 initial charge density was supplied:
 charge density of overlapping atoms calculated
 number of electron      40.0000000 magnetization 
 keeping initial charge density in first step


--------------------------------------------------------------------------------------------------------


 Maximum index for augmentation-charges           134 (set IRDMAX)


--------------------------------------------------------------------------------------------------------


 First call to EWALD:  gamma=   0.311
 Maximum number of real-space cells 4x 3x 2
 Maximum number of reciprocal cells 2x 2x 5

    FEWALD:  cpu time      0.0010: real time      0.0010


--------------------------------------- Ionic step        1  -------------------------------------------




--------------------------------------- Iteration      1(   1)  ---------------------------------------


    POTLOK:  cpu time      0.0079: real time      0.0081
    SETDIJ:  cpu time      0.2202: real time      0.2207
     EDDAV:  cpu time      0.3040: real time      0.3058
       DOS:  cpu time      0.0011: real time      0.0011
    --------------------------------------------
      LOOP:  cpu time      0.5332: real time      0.5356

 eigenvalue-minimisations  :  2560
 total energy-change (2. order) : 0.1302410E+03  (-0.1299623E+04)
 number of electron      40.0000000 magnetization 
 augmentation part       40.0000000 magnetization 

 Free energy of the ion-electron system (eV)
  ---------------------------------------------------
  alpha Z        PSCENC =        91.66130333
  Ewald energy   TEWEN  =     -1448.53055209
  -Hartree energ DENC   =      -115.22125238
  -exchange      EXHF   =         0.00000000
  -V(xc)+E(xc)   XCENC  =       -32.72562080
  PAW double counting   =      1193.78262552    -1080.73714043
  entropy T*S    EENTRO =        -0.00432920
  eigenvalues    EBANDS =        73.53135970
  atomic energy  EATOM  =      1448.48460880
  Solvation  Ediel_sol  =         0.00000000
  ---------------------------------------------------
  free energy    TOTEN  =       130.24100245 eV

  energy without entropy =      130.24533165  energy(sigma->0) =      130.24316705


--------------------------------------------------------------------------------------------------------




--------------------------------------- Iteration      1(   2)  ---------------------------------------


     EDDAV:  cpu time      0.4324: real time      0.4360
       DOS:  cpu time      0.0005: real time      0.0005
    --------------------------------------------
      LOOP:  cpu time      0.4329: real time      0.4365

 eigenvalue-minimisations  :  3776
 total energy-change (2. order) :-0.1553597E+03  (-0.1509814E+03)
 number of electron      40.0000000 magnetization 
 augmentation part       40.0000000 magnetization 

 Free energy of the ion-electron system (eV)
  ---------------------------------------------------
  alpha Z        PSCENC =        91.66130333
  Ewald energy   TEWEN  =     -1448.53055209
  -Hartree energ DENC   =      -115.22125238
  -exchange      EXHF   =         0.00000000
  -V(xc)+E(xc)   XCENC  =       -32.72562080
  PAW double counting   =      1193.78262552    -1080.73714043
  entropy T*S    EENTRO =        -0.00000000
  eigenvalues    EBANDS =       -81.83266755
  atomic energy  EATOM  =      1448.48460880
  Solvation  Ediel_sol  =         0.00000000
  ---------------------------------------------------
  free energy    TOTEN  =       -25.11869561 eV

  energy without entropy =      -25.11869561  energy(sigma->0) =      -25.11869561


--------------------------------------------------------------------------------------------------------




--------------------------------------- Iteration      1(   3)  ---------------------------------------


     EDDAV:  cpu time      0.3722: real time      0.3741
       DOS:  cpu time      0.0006: real time      0.0006
    --------------------------------------------
      LOOP:  cpu time      0.3728: real time      0.3747

 eigenvalue-minimisations  :  3104
 total energy-change (2. order) :-0.8196696E+01  (-0.8183239E+01)
 number of electron      40.0000000 magnetization 
 augmentation part       40.0000000 magnetization 

 Free energy of the ion-electron system (eV)
  ---------------------------------------------------
  alpha Z        PSCENC =        91.66130333
  Ewald energy   TEWEN  =     -1448.53055209
  -Hartree energ DENC   =      -115.22125238
  -exchange      EXHF   =         0.00000000
  -V(xc)+E(xc)   XCENC  =       -32.72562080
  PAW double counting   =      1193.78262552    -1080.73714043
  entropy T*S    EENTRO =        -0.00000000
  eigenvalues    EBANDS =       -90.02936387
  atomic energy  EATOM  =      1448.48460880
  Solvation  Ediel_sol  =         0.00000000
  ---------------------------------------------------
  free energy    TOTEN  =       -33.31539192 eV

  energy without entropy =      -33.31539192  energy(sigma->0) =      -33.31539192


--------------------------------------------------------------------------------------------------------




--------------------------------------- Iteration      1(   4)  ---------------------------------------


     EDDAV:  cpu time      0.4240: real time      0.4261
       DOS:  cpu time      0.0167: real time      0.0168
    --------------------------------------------
      LOOP:  cpu time      0.4407: real time      0.4429

 eigenvalue-minimisations  :  3440
 total energy-change (2. order) :-0.5388058E-01  (-0.5387204E-01)
 number of electron      40.0000000 magnetization 
 augmentation part       40.0000000 magnetization 

 Free energy of the ion-electron system (eV)
  ---------------------------------------------------
  alpha Z        PSCENC =        91.66130333
  Ewald energy   TEWEN  =     -1448.53055209
  -Hartree energ DENC   =      -115.22125238
  -exchange      EXHF   =         0.00000000
  -V(xc)+E(xc)   XCENC  =       -32.72562080
  PAW double counting   =      1193.78262552    -1080.73714043
  entropy T*S    EENTRO =        -0.00000000
  eigenvalues    EBANDS =       -90.08324445
  atomic energy  EATOM  =      1448.48460880
  Solvation  Ediel_sol  =         0.00000000
  ---------------------------------------------------
  free energy    TOTEN  =       -33.36927251 eV

  energy without entropy =      -33.36927251  energy(sigma->0) =      -33.36927251


--------------------------------------------------------------------------------------------------------




--------------------------------------- Iteration      1(   5)  ---------------------------------------


     EDDAV:  cpu time      0.3680: real time      0.3705
       DOS:  cpu time      0.0005: real time      0.0005
    CHARGE:  cpu time      0.0053: real time      0.0053
    MIXING:  cpu time      0.0004: real time      0.0004
    --------------------------------------------
      LOOP:  cpu time      0.3742: real time      0.3767

 eigenvalue-minimisations  :  3072
 total energy-change (2. order) :-0.3205721E-03  (-0.3205704E-03)
 number of electron      40.0000028 magnetization 
 augmentation part       -7.4177915 magnetization 

 Broyden mixing:
  rms(total) = 0.68849E+00    rms(broyden)= 0.68848E+00
  rms(prec ) = 0.76600E+00
  weight for this iteration     100.00

 Free energy of the ion-electron system (eV)
  ---------------------------------------------------
  alpha Z        PSCENC =        91.66130333
  Ewald energy   TEWEN  =     -1448.53055209
  -Hartree energ DENC   =      -115.22125238
  -exchange      EXHF   =         0.00000000
  -V(xc)+E(xc)   XCENC  =       -32.72562080
  PAW double counting   =      1193.78262552    -1080.73714043
  entropy T*S    EENTRO =        -0.00000000
  eigenvalues    EBANDS =       -90.08356502
  atomic energy  EATOM  =      1448.48460880
  Solvation  Ediel_sol  =         0.00000000
  ---------------------------------------------------
  free energy    TOTEN  =       -33.36959308 eV

  energy without entropy =      -33.36959308  energy(sigma->0) =      -33.36959308


--------------------------------------------------------------------------------------------------------




--------------------------------------- Iteration      1(   6)  ---------------------------------------


    POTLOK:  cpu time      0.0073: real time      0.0074
    SETDIJ:  cpu time      0.2156: real time      0.2162
     EDDAV:  cpu time      0.3927: real time      0.3951
       DOS:  cpu time      0.0005: real time      0.0006
    CHARGE:  cpu time      0.0051: real time      0.0051
    MIXING:  cpu time      0.0004: real time      0.0004
    --------------------------------------------
      LOOP:  cpu time      0.6217: real time      0.6249

 eigenvalue-minimisations  :  3280
 total energy-change (2. order) : 0.3315071E+00  (-0.6736926E-01)
 number of electron      40.0000028 magnetization 
 augmentation part       -7.3677756 magnetization 

 Broyden mixing:
  rms(total) = 0.43184E+00    rms(broyden)= 0.43183E+00
  rms(prec ) = 0.45334E+00
  weight for this iteration     100.00

 eigenvalues of (default mixing * dielectric matrix)
  average eigenvalue GAMMA=   2.2935
  2.2935

 Free energy of the ion-electron system (eV)
  ---------------------------------------------------
  alpha Z        PSCENC =        91.66130333
  Ewald energy   TEWEN  =     -1448.53055209
  -Hartree energ DENC   =      -120.65589939
  -exchange      EXHF   =         0.00000000
  -V(xc)+E(xc)   XCENC  =       -32.15328684
  PAW double counting   =      1476.76054494    -1364.04571621
  entropy T*S    EENTRO =        -0.00000000
  eigenvalues    EBANDS =       -84.55908854
  atomic energy  EATOM  =      1448.48460880
  Solvation  Ediel_sol  =         0.00000000
  ---------------------------------------------------
  free energy    TOTEN  =       -33.03808602 eV

  energy without entropy =      -33.03808602  energy(sigma->0) =      -33.03808602


--------------------------------------------------------------------------------------------------------




--------------------------------------- Iteration      1(   7)  ---------------------------------------


    POTLOK:  cpu time      0.0072: real time      0.0073
    SETDIJ:  cpu time      0.2178: real time      0.2186
     EDDAV:  cpu time      0.3394: real time      0.3441
       DOS:  cpu time      0.0005: real time      0.0006
    CHARGE:  cpu time      0.0051: real time      0.0051
    MIXING:  cpu time      0.0004: real time      0.0004
    --------------------------------------------
      LOOP:  cpu time      0.5705: real time      0.5760

 eigenvalue-minimisations  :  2912
 total energy-change (2. order) : 0.1729724E-01  (-0.1999762E-01)
 number of electron      40.0000028 magnetization 
 augmentation part       -7.3517555 magnetization 

 Broyden mixing:
  rms(total) = 0.11745E+00    rms(broyden)= 0.11745E+00
  rms(prec ) = 0.12606E+00
  weight for this iteration     100.00

 eigenvalues of (default mixing * dielectric matrix)
  average eigenvalue GAMMA=   1.7858
  1.1824  2.3892

 Free energy of the ion-electron system (eV)
  ---------------------------------------------------
  alpha Z        PSCENC =        91.66130333
  Ewald energy   TEWEN  =     -1448.53055209
  -Hartree energ DENC   =      -123.51853139
  -exchange      EXHF   =         0.00000000
  -V(xc)+E(xc)   XCENC  =       -31.67731685
  PAW double counting   =      1847.30496993    -1734.86286457
  entropy T*S    EENTRO =        -0.00000000
  eigenvalues    EBANDS =       -81.88240594
  atomic energy  EATOM  =      1448.48460880
  Solvation  Ediel_sol  =         0.00000000
  ---------------------------------------------------
  free energy    TOTEN  =       -33.02078879 eV

  energy without entropy =      -33.02078879  energy(sigma->0) =      -33.02078879


--------------------------------------------------------------------------------------------------------




--------------------------------------- Iteration      1(   8)  ---------------------------------------


    POTLOK:  cpu time      0.0073: real time      0.0074
    SETDIJ:  cpu time      0.2163: real time      0.2169
     EDDAV:  cpu time      0.3961: real time      0.3989
       DOS:  cpu time      0.0006: real time      0.0006
    CHARGE:  cpu time      0.0052: real time      0.0052
    MIXING:  cpu time      0.0005: real time      0.0005
    --------------------------------------------
      LOOP:  cpu time      0.6259: real time      0.6295

 eigenvalue-minimisations  :  2896
 total energy-change (2. order) : 0.1799676E-02  (-0.1845313E-02)
 number of electron      40.0000028 magnetization 
 augmentation part       -7.3581935 magnetization 

 Broyden mixing:
  rms(total) = 0.17847E-01    rms(broyden)= 0.17847E-01
  rms(prec ) = 0.21226E-01
  weight for this iteration     100.00

 eigenvalues of (default mixing * dielectric matrix)
  average eigenvalue GAMMA=   1.6989
  2.5183  1.2892  1.2892

 Free energy of the ion-electron system (eV)
  ---------------------------------------------------
  alpha Z        PSCENC =        91.66130333
  Ewald energy   TEWEN  =     -1448.53055209
  -Hartree energ DENC   =      -123.61271025
  -exchange      EXHF   =         0.00000000
  -V(xc)+E(xc)   XCENC  =       -31.56275675
  PAW double counting   =      1975.58672861    -1863.20396872
  entropy T*S    EENTRO =        -0.00000000
  eigenvalues    EBANDS =       -81.84164204
  atomic energy  EATOM  =      1448.48460880
  Solvation  Ediel_sol  =         0.00000000
  ---------------------------------------------------
  free energy    TOTEN  =       -33.01898911 eV

  energy without entropy =      -33.01898911  energy(sigma->0) =      -33.01898911


--------------------------------------------------------------------------------------------------------




--------------------------------------- Iteration      1(   9)  ---------------------------------------


    POTLOK:  cpu time      0.0075: real time      0.0076
    SETDIJ:  cpu time      0.2156: real time      0.2163
     EDDAV:  cpu time      0.3617: real time      0.3641
       DOS:  cpu time      0.0006: real time      0.0006
    CHARGE:  cpu time      0.0052: real time      0.0052
    MIXING:  cpu time      0.0005: real time      0.0005
    --------------------------------------------
      LOOP:  cpu time      0.5910: real time      0.5942

 eigenvalue-minimisations  :  3072
 total energy-change (2. order) :-0.3289472E-03  (-0.2522263E-03)
 number of electron      40.0000028 magnetization 
 augmentation part       -7.3580117 magnetization 

 Broyden mixing:
  rms(total) = 0.66492E-02    rms(broyden)= 0.66492E-02
  rms(prec ) = 0.73400E-02
  weight for this iteration     100.00

 eigenvalues of (default mixing * dielectric matrix)
  average eigenvalue GAMMA=   1.6815
  2.1820  2.1820  1.1811  1.1811

 Free energy of the ion-electron system (eV)
  ---------------------------------------------------
  alpha Z        PSCENC =        91.66130333
  Ewald energy   TEWEN  =     -1448.53055209
  -Hartree energ DENC   =      -123.83175288
  -exchange      EXHF   =         0.00000000
  -V(xc)+E(xc)   XCENC  =       -31.52843017
  PAW double counting   =      1990.91961515    -1878.54539806
  entropy T*S    EENTRO =        -0.00000000
  eigenvalues    EBANDS =       -81.64871214
  atomic energy  EATOM  =      1448.48460880
  Solvation  Ediel_sol  =         0.00000000
  ---------------------------------------------------
  free energy    TOTEN  =       -33.01931806 eV

  energy without entropy =      -33.01931806  energy(sigma->0) =      -33.01931806


--------------------------------------------------------------------------------------------------------




--------------------------------------- Iteration      1(  10)  ---------------------------------------


    POTLOK:  cpu time      0.0072: real time      0.0074
    SETDIJ:  cpu time      0.2186: real time      0.2192
     EDDAV:  cpu time      0.3926: real time      0.3950
       DOS:  cpu time      0.0006: real time      0.0006
    CHARGE:  cpu time      0.0050: real time      0.0051
    MIXING:  cpu time      0.0005: real time      0.0005
    --------------------------------------------
      LOOP:  cpu time      0.6245: real time      0.6277

 eigenvalue-minimisations  :  3472
 total energy-change (2. order) :-0.7916431E-04  (-0.1959501E-04)
 number of electron      40.0000028 magnetization 
 augmentation part       -7.3579838 magnetization 

 Broyden mixing:
  rms(total) = 0.23249E-02    rms(broyden)= 0.23249E-02
  rms(prec ) = 0.29227E-02
  weight for this iteration     100.00

 eigenvalues of (default mixing * dielectric matrix)
  average eigenvalue GAMMA=   1.7372
  2.6652  2.3165  1.1333  1.2854  1.2854

 Free energy of the ion-electron system (eV)
  ---------------------------------------------------
  alpha Z        PSCENC =        91.66130333
  Ewald energy   TEWEN  =     -1448.53055209
  -Hartree energ DENC   =      -123.86940926
  -exchange      EXHF   =         0.00000000
  -V(xc)+E(xc)   XCENC  =       -31.52488631
  PAW double counting   =      1984.81536521    -1872.43683135
  entropy T*S    EENTRO =        -0.00000000
  eigenvalues    EBANDS =       -81.61899555
  atomic energy  EATOM  =      1448.48460880
  Solvation  Ediel_sol  =         0.00000000
  ---------------------------------------------------
  free energy    TOTEN  =       -33.01939722 eV

  energy without entropy =      -33.01939722  energy(sigma->0) =      -33.01939722


--------------------------------------------------------------------------------------------------------




--------------------------------------- Iteration      1(  11)  ---------------------------------------


    POTLOK:  cpu time      0.0072: real time      0.0073
    SETDIJ:  cpu time      0.2157: real time      0.2163
     EDDAV:  cpu time      0.3441: real time      0.3459
       DOS:  cpu time      0.0006: real time      0.0006
    CHARGE:  cpu time      0.0051: real time      0.0051
    MIXING:  cpu time      0.0005: real time      0.0005
    --------------------------------------------
      LOOP:  cpu time      0.5731: real time      0.5757

 eigenvalue-minimisations  :  2832
 total energy-change (2. order) :-0.2734517E-04  (-0.3752711E-05)
 number of electron      40.0000028 magnetization 
 augmentation part       -7.3581069 magnetization 

 Broyden mixing:
  rms(total) = 0.10821E-02    rms(broyden)= 0.10821E-02
  rms(prec ) = 0.11972E-02
  weight for this iteration     100.00

 eigenvalues of (default mixing * dielectric matrix)
  average eigenvalue GAMMA=   1.6952
  2.6404  2.1500  2.0238  1.2317  1.2317  0.8936

 Free energy of the ion-electron system (eV)
  ---------------------------------------------------
  alpha Z        PSCENC =        91.66130333
  Ewald energy   TEWEN  =     -1448.53055209
  -Hartree energ DENC   =      -123.89920290
  -exchange      EXHF   =         0.00000000
  -V(xc)+E(xc)   XCENC  =       -31.51899588
  PAW double counting   =      1986.05051677    -1873.67200299
  entropy T*S    EENTRO =        -0.00000000
  eigenvalues    EBANDS =       -81.59509960
  atomic energy  EATOM  =      1448.48460880
  Solvation  Ediel_sol  =         0.00000000
  ---------------------------------------------------
  free energy    TOTEN  =       -33.01942457 eV

  energy without entropy =      -33.01942457  energy(sigma->0) =      -33.01942457


--------------------------------------------------------------------------------------------------------




--------------------------------------- Iteration      1(  12)  ---------------------------------------


    POTLOK:  cpu time      0.0083: real time      0.0084
    SETDIJ:  cpu time      0.2148: real time      0.2156
     EDDAV:  cpu time      0.4263: real time      0.4288
       DOS:  cpu time      0.0006: real time      0.0006
    CHARGE:  cpu time      0.0057: real time      0.0058
    MIXING:  cpu time      0.0005: real time      0.0005
    --------------------------------------------
      LOOP:  cpu time      0.6564: real time      0.6597

 eigenvalue-minimisations  :  3520
 total energy-change (2. order) :-0.1140225E-05  (-0.4550365E-06)
 number of electron      40.0000028 magnetization 
 augmentation part       -7.3579963 magnetization 

 Broyden mixing:
  rms(total) = 0.42232E-03    rms(broyden)= 0.42232E-03
  rms(prec ) = 0.45480E-03
  weight for this iteration     100.00

 eigenvalues of (default mixing * dielectric matrix)
  average eigenvalue GAMMA=   1.7287
  2.9788  2.5201  1.7956  0.9900  1.4187  1.1989  1.1989

 Free energy of the ion-electron system (eV)
  ---------------------------------------------------
  alpha Z        PSCENC =        91.66130333
  Ewald energy   TEWEN  =     -1448.53055209
  -Hartree energ DENC   =      -123.91383356
  -exchange      EXHF   =         0.00000000
  -V(xc)+E(xc)   XCENC  =       -31.51794966
  PAW double counting   =      1985.54137265    -1873.16270936
  entropy T*S    EENTRO =        -0.00000000
  eigenvalues    EBANDS =       -81.58166581
  atomic energy  EATOM  =      1448.48460880
  Solvation  Ediel_sol  =         0.00000000
  ---------------------------------------------------
  free energy    TOTEN  =       -33.01942571 eV

  energy without entropy =      -33.01942571  energy(sigma->0) =      -33.01942571


--------------------------------------------------------------------------------------------------------




--------------------------------------- Iteration      1(  13)  ---------------------------------------


    POTLOK:  cpu time      0.0073: real time      0.0075
    SETDIJ:  cpu time      0.2190: real time      0.2194
     EDDAV:  cpu time      0.2605: real time      0.2623
       DOS:  cpu time      0.0007: real time      0.0007
    --------------------------------------------
      LOOP:  cpu time      0.4874: real time      0.4899

 eigenvalue-minimisations  :  1504
 total energy-change (2. order) : 0.1113785E-06  (-0.8451371E-07)
 number of electron      40.0000028 magnetization 
 augmentation part       -7.3579963 magnetization 

 Free energy of the ion-electron system (eV)
  ---------------------------------------------------
  alpha Z        PSCENC =        91.66130333
  Ewald energy   TEWEN  =     -1448.53055209
  -Hartree energ DENC   =      -123.91751031
  -exchange      EXHF   =         0.00000000
  -V(xc)+E(xc)   XCENC  =       -31.51764503
  PAW double counting   =      1985.09031086    -1872.71132278
  entropy T*S    EENTRO =        -0.00000000
  eigenvalues    EBANDS =       -81.57861837
  atomic energy  EATOM  =      1448.48460880
  Solvation  Ediel_sol  =         0.00000000
  ---------------------------------------------------
  free energy    TOTEN  =       -33.01942560 eV

  energy without entropy =      -33.01942560  energy(sigma->0) =      -33.01942560


--------------------------------------------------------------------------------------------------------




 average (electrostatic) potential at core
  the test charge radii are     1.1631  1.0808
  (the norm of the test charge is              1.0000)
       1 -33.0466       2 -33.0466       3 -33.0466       4 -33.0466       5 -54.6338
       6 -54.6338       7 -54.6338       8 -54.6338
 
 
 
 E-fermi :   4.0076     XC(G=0):  -9.4925     alpha+bet : -9.1315

 Fermi energy:         4.0075574119

 k-point     1 :       0.0000    0.0000    0.0000
  band No.  band energies     occupation 
      1     -10.7667      2.00000
      2     -10.3037      2.00000
      3      -9.4781      2.00000
      4      -8.8616      2.00000
      5      -4.7885      2.00000
      6      -3.5366      2.00000
      7      -2.9095      2.00000
      8      -2.0094      2.00000
      9      -1.2770      2.00000
     10      -0.0811      2.00000
     11       0.2947      2.00000
     12       0.3130      2.00000
     13       0.5304      2.00000
     14       0.9082      2.00000
     15       1.5213      2.00000
     16       1.9528      2.00000
     17       2.3509      2.00000
     18       2.7017      2.00000
     19       2.9693      2.00000
     20       3.3324      2.00000
     21       4.4394      0.00000
     22       5.4052      0.00000
     23       6.0488      0.00000
     24       6.4043      0.00000
     25       6.7530      0.00000
     26       6.8133      0.00000
     27       7.9742      0.00000
     28       7.9886      0.00000
     29       8.4420      0.00000
     30       8.5168      0.00000
     31       9.0401      0.00000
     32       9.5770      0.00000

 k-point     2 :       0.1667    0.0000    0.0000
  band No.  band energies     occupation 
      1     -10.5721      2.00000
      2     -10.1305      2.00000
      3      -9.3500      2.00000
      4      -8.8215      2.00000
      5      -4.9383      2.00000
      6      -3.8389      2.00000
      7      -2.9422      2.00000
      8      -2.6651      2.00000
      9      -1.3484      2.00000
     10      -0.0634      2.00000
     11       0.0676      2.00000
     12       0.5146      2.00000
     13       0.5436      2.00000
     14       0.6319      2.00000
     15       1.5275      2.00000
     16       1.6464      2.00000
     17       2.4846      2.00000
     18       2.4951      2.00000
     19       3.1127      2.00000
     20       3.3951      2.00000
     21       4.6096      0.00000
     22       5.4090      0.00000
     23       5.9915      0.00000
     24       6.6372      0.00000
     25       6.6800      0.00000
     26       7.0759      0.00000
     27       7.3188      0.00000
     28       7.5702      0.00000
     29       8.3143      0.00000
     30       8.3625      0.00000
     31       8.6591      0.00000
     32       8.7951      0.00000

 k-point     3 :       0.3333    0.0000    0.0000
  band No.  band energies     occupation 
      1     -10.0354      2.00000
      2      -9.6754      2.00000
      3      -9.1131      2.00000
      4      -8.8791      2.00000
      5      -5.2496      2.00000
      6      -4.3449      2.00000
      7      -4.0193      2.00000
      8      -3.4482      2.00000
      9      -1.1541      2.00000
     10      -0.1542      2.00000
     11       0.1301      2.00000
     12       0.7868      2.00000
     13       0.8807      2.00000
     14       1.1588      2.00000
     15       1.3351      2.00000
     16       1.7048      2.00000
     17       1.8718      2.00000
     18       2.5168      2.00000
     19       3.1807      2.00000
     20       3.2087      2.00000
     21       4.3308      0.00000
     22       4.9896      0.00000
     23       5.2641      0.00000
     24       5.5921      0.00000
     25       5.8242      0.00000
     26       5.9178      0.00000
     27       6.5756      0.00000
     28       7.3374      0.00000
     29       7.4977      0.00000
     30       8.2787      0.00000
     31       8.3671      0.00000
     32       9.0241      0.00000

 k-point     4 :       0.5000    0.0000    0.0000
  band No.  band energies     occupation 
      1      -9.3432      2.00000
      2      -9.3432      2.00000
      3      -9.1951      2.00000
      4      -9.1951      2.00000
      5      -5.0636      2.00000
      6      -5.0636      2.00000
      7      -4.2053      2.00000
      8      -4.2053      2.00000
      9      -0.4884      2.00000
     10      -0.4884      2.00000
     11       0.6073      2.00000
     12       0.6073      2.00000
     13       1.4189      2.00000
     14       1.4189      2.00000
     15       1.5069      2.00000
     16       1.5069      2.00000
     17       1.9599      2.00000
     18       1.9599      2.00000
     19       2.9066      2.00000
     20       2.9066      2.00000
     21       4.6108      0.00000
     22       4.6108      0.00000
     23       4.9034      0.00000
     24       4.9034      0.00000
     25       5.8929      0.00000
     26       5.8929      0.00000
     27       6.1269      0.00000
     28       6.1269      0.00000
     29       7.2255      0.00000
     30       7.2255      0.00000
     31       8.5893      0.00000
     32       8.5893      0.00000

 k-point     5 :       0.0000    0.1667    0.0000
  band No.  band energies     occupation 
      1     -10.6422      2.00000
      2     -10.2056      2.00000
      3      -9.4613      2.00000
      4      -8.9647      2.00000
      5      -4.9961      2.00000
      6      -3.7317      2.00000
      7      -3.4760      2.00000
      8      -2.1306      2.00000
      9      -1.4686      2.00000
     10       0.2767      2.00000
     11       0.4582      2.00000
     12       0.7867      2.00000
     13       1.0265      2.00000
     14       1.0426      2.00000
     15       1.5795      2.00000
     16       1.9417      2.00000
     17       2.2925      2.00000
     18       2.4559      2.00000
     19       3.1807      2.00000
     20       3.7273      2.00000
     21       4.5281      0.00000
     22       5.6860      0.00000
     23       5.6915      0.00000
     24       6.2670      0.00000
     25       6.4224      0.00000
     26       6.4225      0.00000
     27       7.4861      0.00000
     28       7.5003      0.00000
     29       7.6852      0.00000
     30       9.0290      0.00000
     31       9.1448      0.00000
     32       9.2580      0.00000

 k-point     6 :       0.1667    0.1667    0.0000
  band No.  band energies     occupation 
      1     -10.4531      2.00000
      2     -10.0379      2.00000
      3      -9.3366      2.00000
      4      -8.9115      2.00000
      5      -5.0609      2.00000
      6      -3.8691      2.00000
      7      -3.5002      2.00000
      8      -2.6059      2.00000
      9      -1.3509      2.00000
     10      -0.6030      2.00000
     11      -0.1129      2.00000
     12       0.6233      2.00000
     13       1.0587      2.00000
     14       1.1448      2.00000
     15       1.5204      2.00000
     16       1.7608      2.00000
     17       2.0342      2.00000
     18       2.8014      2.00000
     19       3.2487      2.00000
     20       3.5724      2.00000
     21       4.7514      0.00000
     22       5.3176      0.00000
     23       5.5766      0.00000
     24       5.9811      0.00000
     25       6.8471      0.00000
     26       7.1082      0.00000
     27       7.2811      0.00000
     28       7.8822      0.00000
     29       8.0078      0.00000
     30       8.1935      0.00000
     31       9.0054      0.00000
     32       9.0714      0.00000

 k-point     7 :       0.1667   -0.1667    0.0000
  band No.  band energies     occupation 
      1     -10.4531      2.00000
      2     -10.0379      2.00000
      3      -9.3366      2.00000
      4      -8.9115      2.00000
      5      -5.0609      2.00000
      6      -3.8691      2.00000
      7      -3.5002      2.00000
      8      -2.6059      2.00000
      9      -1.3509      2.00000
     10      -0.6030      2.00000
     11      -0.1129      2.00000
     12       0.6233      2.00000
     13       1.0587      2.00000
     14       1.1448      2.00000
     15       1.5204      2.00000
     16       1.7608      2.00000
     17       2.0342      2.00000
     18       2.8014      2.00000
     19       3.2487      2.00000
     20       3.5723      2.00000
     21       4.7514      0.00000
     22       5.3176      0.00000
     23       5.5766      0.00000
     24       5.9811      0.00000
     25       6.8471      0.00000
     26       7.1082      0.00000
     27       7.2811      0.00000
     28       7.8822      0.00000
     29       8.0078      0.00000
     30       8.1935      0.00000
     31       9.0054      0.00000
     32       9.0714      0.00000

 k-point     8 :       0.3333    0.1667    0.0000
  band No.  band energies     occupation 
      1      -9.9377      2.00000
      2      -9.6028      2.00000
      3      -9.1032      2.00000
      4      -8.9160      2.00000
      5      -5.2162      2.00000
      6      -4.2363      2.00000
      7      -4.0561      2.00000
      8      -3.5358      2.00000
      9      -1.0737      2.00000
     10      -0.8192      2.00000
     11      -0.4792      2.00000
     12       0.2776      2.00000
     13       0.9551      2.00000
     14       0.9609      2.00000
     15       1.4244      2.00000
     16       1.6574      2.00000
     17       1.9108      2.00000
     18       2.3597      2.00000
     19       3.0380      2.00000
     20       3.2408      2.00000
     21       4.5694      0.00000
     22       4.9804      0.00000
     23       5.1106      0.00000
     24       6.2608      0.00000
     25       6.5687      0.00000
     26       6.5976      0.00000
     27       6.7582      0.00000
     28       7.6549      0.00000
     29       8.1540      0.00000
     30       8.5468      0.00000
     31       8.9584      0.00000
     32       9.0371      0.00000

 k-point     9 :       0.3333   -0.1667    0.0000
  band No.  band energies     occupation 
      1      -9.9377      2.00000
      2      -9.6028      2.00000
      3      -9.1032      2.00000
      4      -8.9160      2.00000
      5      -5.2162      2.00000
      6      -4.2363      2.00000
      7      -4.0561      2.00000
      8      -3.5358      2.00000
      9      -1.0737      2.00000
     10      -0.8192      2.00000
     11      -0.4792      2.00000
     12       0.2776      2.00000
     13       0.9551      2.00000
     14       0.9609      2.00000
     15       1.4244      2.00000
     16       1.6574      2.00000
     17       1.9108      2.00000
     18       2.3597      2.00000
     19       3.0380      2.00000
     20       3.2408      2.00000
     21       4.5694      0.00000
     22       4.9804      0.00000
     23       5.1106      0.00000
     24       6.2608      0.00000
     25       6.5687      0.00000
     26       6.5976      0.00000
     27       6.7582      0.00000
     28       7.6550      0.00000
     29       8.1540      0.00000
     30       8.5468      0.00000
     31       8.9584      0.00000
     32       9.0371      0.00000

 k-point    10 :       0.5000    0.1667    0.0000
  band No.  band energies     occupation 
      1      -9.2983      2.00000
      2      -9.2983      2.00000
      3      -9.1598      2.00000
      4      -9.1598      2.00000
      5      -4.9758      2.00000
      6      -4.9758      2.00000
      7      -4.1740      2.00000
      8      -4.1740      2.00000
      9      -0.6648      2.00000
     10      -0.6648      2.00000
     11       0.1201      2.00000
     12       0.1201      2.00000
     13       0.5359      2.00000
     14       0.5359      2.00000
     15       1.1249      2.00000
     16       1.1249      2.00000
     17       2.1627      2.00000
     18       2.1627      2.00000
     19       3.1470      2.00000
     20       3.1470      2.00000
     21       4.5950      0.00000
     22       4.5950      0.00000
     23       5.4076      0.00000
     24       5.4076      0.00000
     25       6.7213      0.00000
     26       6.7213      0.00000
     27       6.9964      0.00000
     28       6.9964      0.00000
     29       7.8550      0.00000
     30       7.8550      0.00000
     31       8.5254      0.00000
     32       8.5254      0.00000

 k-point    11 :       0.0000    0.3333    0.0000
  band No.  band energies     occupation 
      1     -10.2919      2.00000
      2      -9.9480      2.00000
      3      -9.4833      2.00000
      4      -9.2886      2.00000
      5      -5.2581      2.00000
      6      -4.4248      2.00000
      7      -3.8952      2.00000
      8      -2.8998      2.00000
      9      -1.1075      2.00000
     10       0.5519      2.00000
     11       0.8628      2.00000
     12       1.3328      2.00000
     13       1.4390      2.00000
     14       1.6502      2.00000
     15       1.8050      2.00000
     16       1.8651      2.00000
     17       2.0419      2.00000
     18       3.1317      2.00000
     19       3.6349      2.00000
     20       3.6589      2.00000
     21       5.0122      0.00000
     22       5.0258      0.00000
     23       5.2316      0.00000
     24       5.8170      0.00000
     25       5.9424      0.00000
     26       6.3590      0.00000
     27       6.5536      0.00000
     28       6.9638      0.00000
     29       7.0904      0.00000
     30       7.9752      0.00000
     31       9.4074      0.00000
     32       9.6904      0.00000

 k-point    12 :       0.1667    0.3333    0.0000
  band No.  band energies     occupation 
      1     -10.1208      2.00000
      2      -9.7964      2.00000
      3      -9.3616      2.00000
      4      -9.1982      2.00000
      5      -5.1974      2.00000
      6      -4.3442      2.00000
      7      -3.8554      2.00000
      8      -3.0351      2.00000
      9      -0.9621      2.00000
     10      -0.6479      2.00000
     11      -0.0491      2.00000
     12       0.2888      2.00000
     13       0.7947      2.00000
     14       0.9529      2.00000
     15       1.7432      2.00000
     16       2.0269      2.00000
     17       2.6909      2.00000
     18       2.8182      2.00000
     19       3.3123      2.00000
     20       3.6201      2.00000
     21       4.8775      0.00000
     22       5.2618      0.00000
     23       5.7810      0.00000
     24       6.2839      0.00000
     25       6.4202      0.00000
     26       6.7593      0.00000
     27       6.8120      0.00000
     28       7.8492      0.00000
     29       7.9669      0.00000
     30       8.2463      0.00000
     31       9.4656      0.00000
     32       9.5476      0.00000

 k-point    13 :       0.1667   -0.3333    0.0000
  band No.  band energies     occupation 
      1     -10.1208      2.00000
      2      -9.7964      2.00000
      3      -9.3616      2.00000
      4      -9.1982      2.00000
      5      -5.1974      2.00000
      6      -4.3442      2.00000
      7      -3.8554      2.00000
      8      -3.0351      2.00000
      9      -0.9621      2.00000
     10      -0.6479      2.00000
     11      -0.0491      2.00000
     12       0.2888      2.00000
     13       0.7947      2.00000
     14       0.9529      2.00000
     15       1.7432      2.00000
     16       2.0269      2.00000
     17       2.6909      2.00000
     18       2.8182      2.00000
     19       3.3123      2.00000
     20       3.6201      2.00000
     21       4.8775      0.00000
     22       5.2618      0.00000
     23       5.7810      0.00000
     24       6.2839      0.00000
     25       6.4202      0.00000
     26       6.7593      0.00000
     27       6.8120      0.00000
     28       7.8492      0.00000
     29       7.9669      0.00000
     30       8.2463      0.00000
     31       9.4656      0.00000
     32       9.5476      0.00000

 k-point    14 :       0.3333    0.3333    0.0000
  band No.  band energies     occupation 
      1      -9.6751      2.00000
      2      -9.4196      2.00000
      3      -9.1183      2.00000
      4      -9.0571      2.00000
      5      -5.0869      2.00000
      6      -4.3439      2.00000
      7      -3.9757      2.00000
      8      -3.6272      2.00000
      9      -1.4437      2.00000
     10      -1.0259      2.00000
     11      -0.8404      2.00000
     12      -0.4051      2.00000
     13       0.3962      2.00000
     14       0.4736      2.00000
     15       0.7956      2.00000
     16       1.3816      2.00000
     17       1.4815      2.00000
     18       2.4171      2.00000
     19       3.0933      2.00000
     20       3.2478      2.00000
     21       4.6124      0.00000
     22       5.7650      0.00000
     23       6.0917      0.00000
     24       6.9986      0.00000
     25       7.1866      0.00000
     26       7.6556      0.00000
     27       8.1804      0.00000
     28       8.3448      0.00000
     29       8.6580      0.00000
     30       9.2553      0.00000
     31       9.4183      0.00000
     32       9.8490      0.00000

 k-point    15 :       0.3333   -0.3333    0.0000
  band No.  band energies     occupation 
      1      -9.6751      2.00000
      2      -9.4196      2.00000
      3      -9.1183      2.00000
      4      -9.0571      2.00000
      5      -5.0869      2.00000
      6      -4.3439      2.00000
      7      -3.9757      2.00000
      8      -3.6272      2.00000
      9      -1.4437      2.00000
     10      -1.0259      2.00000
     11      -0.8404      2.00000
     12      -0.4051      2.00000
     13       0.3962      2.00000
     14       0.4736      2.00000
     15       0.7956      2.00000
     16       1.3816      2.00000
     17       1.4815      2.00000
     18       2.4171      2.00000
     19       3.0933      2.00000
     20       3.2477      2.00000
     21       4.6124      0.00000
     22       5.7650      0.00000
     23       6.0917      0.00000
     24       6.9986      0.00000
     25       7.1866      0.00000
     26       7.6556      0.00000
     27       8.1804      0.00000
     28       8.3449      0.00000
     29       8.6580      0.00000
     30       9.2553      0.00000
     31       9.4183      0.00000
     32       9.8483      0.00000

 k-point    16 :       0.5000    0.3333    0.0000
  band No.  band energies     occupation 
      1      -9.2036      2.00000
      2      -9.2036      2.00000
      3      -9.0871      2.00000
      4      -9.0871      2.00000
      5      -4.7999      2.00000
      6      -4.7999      2.00000
      7      -4.0905      2.00000
      8      -4.0905      2.00000
      9      -1.1424      2.00000
     10      -1.1424      2.00000
     11      -0.7173      2.00000
     12      -0.7173      2.00000
     13      -0.0110      2.00000
     14      -0.0110      2.00000
     15       0.8200      2.00000
     16       0.8200      2.00000
     17       1.3897      2.00000
     18       1.3897      2.00000
     19       3.0711      2.00000
     20       3.0711      2.00000
     21       5.3542      0.00000
     22       5.3542      0.00000
     23       6.5581      0.00000
     24       6.5581      0.00000
     25       7.8890      0.00000
     26       7.8890      0.00000
     27       8.3549      0.00000
     28       8.3549      0.00000
     29       9.0606      0.00000
     30       9.0606      0.00000
     31       9.4764      0.00000
     32       9.4764      0.00000

 k-point    17 :       0.0000    0.5000    0.0000
  band No.  band energies     occupation 
      1      -9.7979      2.00000
      2      -9.7979      2.00000
      3      -9.6460      2.00000
      4      -9.6460      2.00000
      5      -5.0997      2.00000
      6      -5.0997      2.00000
      7      -3.6084      2.00000
      8      -3.6084      2.00000
      9      -0.3467      2.00000
     10      -0.3467      2.00000
     11       1.3966      2.00000
     12       1.3966      2.00000
     13       1.6798      2.00000
     14       1.6798      2.00000
     15       2.1833      2.00000
     16       2.1833      2.00000
     17       2.6950      2.00000
     18       2.6950      2.00000
     19       3.5214      2.00000
     20       3.5214      2.00000
     21       5.0323      0.00000
     22       5.0323      0.00000
     23       5.5526      0.00000
     24       5.5526      0.00000
     25       5.9278      0.00000
     26       5.9278      0.00000
     27       6.2607      0.00000
     28       6.2607      0.00000
     29       7.1489      0.00000
     30       7.1489      0.00000
     31       9.9205      0.00000
     32       9.9205      0.00000

 k-point    18 :       0.1667    0.5000    0.0000
  band No.  band energies     occupation 
      1      -9.6592      2.00000
      2      -9.6592      2.00000
      3      -9.5164      2.00000
      4      -9.5164      2.00000
      5      -4.9858      2.00000
      6      -4.9858      2.00000
      7      -3.5736      2.00000
      8      -3.5736      2.00000
      9      -0.2389      2.00000
     10      -0.2389      2.00000
     11      -0.2183      2.00000
     12      -0.2183      2.00000
     13       0.5070      2.00000
     14       0.5070      2.00000
     15       1.9161      2.00000
     16       1.9161      2.00000
     17       3.0259      2.00000
     18       3.0259      2.00000
     19       3.4474      2.00000
     20       3.4474      2.00000
     21       5.1569      0.00000
     22       5.1569      0.00000
     23       5.9106      0.00000
     24       5.9106      0.00000
     25       6.7238      0.00000
     26       6.7238      0.00000
     27       7.2428      0.00000
     28       7.2428      0.00000
     29       8.0954      0.00000
     30       8.0954      0.00000
     31       9.6588      0.00000
     32       9.6588      0.00000

[...]
     32       8.9050      0.00000

 k-point    32 :       0.1667    0.3333    0.5000
  band No.  band energies     occupation 
      1      -9.9878      2.00000
      2      -9.9878      2.00000
      3      -9.2500      2.00000
      4      -9.2500      2.00000
      5      -4.8353      2.00000
      6      -4.8353      2.00000
      7      -3.4991      2.00000
      8      -3.4991      2.00000
      9      -0.4555      2.00000
     10      -0.4555      2.00000
     11       0.1322      2.00000
     12       0.1322      2.00000
     13       0.8654      2.00000
     14       0.8654      2.00000
     15       1.5905      2.00000
     16       1.5905      2.00000
     17       2.8215      2.00000
     18       2.8215      2.00000
     19       3.0360      2.00000
     20       3.0360      2.00000
     21       5.5694      0.00000
     22       5.5694      0.00000
     23       6.0908      0.00000
     24       6.0908      0.00000
     25       6.7791      0.00000
     26       6.7791      0.00000
     27       7.1543      0.00000
     28       7.1543      0.00000
     29       8.2855      0.00000
     30       8.2855      0.00000
     31       8.8102      0.00000
     32       8.8102      0.00000

 k-point    33 :       0.1667   -0.3333    0.5000
  band No.  band energies     occupation 
      1      -9.9878      2.00000
      2      -9.9878      2.00000
      3      -9.2500      2.00000
      4      -9.2500      2.00000
      5      -4.8353      2.00000
      6      -4.8353      2.00000
      7      -3.4991      2.00000
      8      -3.4991      2.00000
      9      -0.4555      2.00000
     10      -0.4555      2.00000
     11       0.1322      2.00000
     12       0.1322      2.00000
     13       0.8654      2.00000
     14       0.8654      2.00000
     15       1.5905      2.00000
     16       1.5905      2.00000
     17       2.8215      2.00000
     18       2.8215      2.00000
     19       3.0360      2.00000
     20       3.0360      2.00000
     21       5.5694      0.00000
     22       5.5694      0.00000
     23       6.0908      0.00000
     24       6.0908      0.00000
     25       6.7791      0.00000
     26       6.7791      0.00000
     27       7.1543      0.00000
     28       7.1543      0.00000
     29       8.2855      0.00000
     30       8.2855      0.00000
     31       8.8102      0.00000
     32       8.8102      0.00000

 k-point    34 :       0.3333    0.3333    0.5000
  band No.  band energies     occupation 
      1      -9.5666      2.00000
      2      -9.5666      2.00000
      3      -9.0702      2.00000
      4      -9.0702      2.00000
      5      -4.7126      2.00000
      6      -4.7126      2.00000
      7      -3.8848      2.00000
      8      -3.8848      2.00000
      9      -1.1731      2.00000
     10      -1.1731      2.00000
     11      -0.3948      2.00000
     12      -0.3948      2.00000
     13       0.3059      2.00000
     14       0.3059      2.00000
     15       0.8767      2.00000
     16       0.8767      2.00000
     17       2.1803      2.00000
     18       2.1803      2.00000
     19       2.7923      2.00000
     20       2.7923      2.00000
     21       5.9473      0.00000
     22       5.9473      0.00000
     23       6.2111      0.00000
     24       6.2111      0.00000
     25       7.1813      0.00000
     26       7.1813      0.00000
     27       8.2452      0.00000
     28       8.2452      0.00000
     29       8.4548      0.00000
     30       8.4548      0.00000
     31       9.8583      0.00000
     32       9.8583      0.00000

 k-point    35 :       0.3333   -0.3333    0.5000
  band No.  band energies     occupation 
      1      -9.5666      2.00000
      2      -9.5666      2.00000
      3      -9.0702      2.00000
      4      -9.0702      2.00000
      5      -4.7126      2.00000
      6      -4.7126      2.00000
      7      -3.8848      2.00000
      8      -3.8848      2.00000
      9      -1.1731      2.00000
     10      -1.1731      2.00000
     11      -0.3948      2.00000
     12      -0.3948      2.00000
     13       0.3059      2.00000
     14       0.3059      2.00000
     15       0.8767      2.00000
     16       0.8767      2.00000
     17       2.1803      2.00000
     18       2.1803      2.00000
     19       2.7923      2.00000
     20       2.7923      2.00000
     21       5.9473      0.00000
     22       5.9473      0.00000
     23       6.2111      0.00000
     24       6.2111      0.00000
     25       7.1813      0.00000
     26       7.1813      0.00000
     27       8.2452      0.00000
     28       8.2452      0.00000
     29       8.4548      0.00000
     30       8.4548      0.00000
     31       9.8583      0.00000
     32       9.8583      0.00000

 k-point    36 :       0.5000    0.3333    0.5000
  band No.  band energies     occupation 
      1      -9.1472      2.00000
      2      -9.1472      2.00000
      3      -9.1472      2.00000
      4      -9.1472      2.00000
      5      -4.4795      2.00000
      6      -4.4795      2.00000
      7      -4.4795      2.00000
      8      -4.4795      2.00000
      9      -0.7735      2.00000
     10      -0.7735      2.00000
     11      -0.7735      2.00000
     12      -0.7735      2.00000
     13       0.0931      2.00000
     14       0.0931      2.00000
     15       0.0931      2.00000
     16       0.0931      2.00000
     17       2.3484      2.00000
     18       2.3484      2.00000
     19       2.3484      2.00000
     20       2.3484      2.00000
     21       6.1866      0.00000
     22       6.1866      0.00000
     23       6.1866      0.00000
     24       6.1866      0.00000
     25       7.5937      0.00000
     26       7.5937      0.00000
     27       7.5937      0.00000
     28       7.5937      0.00000
     29       9.3696      0.00000
     30       9.3696      0.00000
     31       9.3696      0.00000
     32       9.3696      0.00000

 k-point    37 :       0.0000    0.5000    0.5000
  band No.  band energies     occupation 
      1      -9.7576      2.00000
      2      -9.7576      2.00000
      3      -9.6912      2.00000
      4      -9.6912      2.00000
      5      -4.9450      2.00000
      6      -4.9450      2.00000
      7      -3.9162      2.00000
      8      -3.9162      2.00000
      9       0.7159      2.00000
     10       0.7159      2.00000
     11       0.9613      2.00000
     12       0.9614      2.00000
     13       1.4138      2.00000
     14       1.4138      2.00000
     15       1.6574      2.00000
     16       1.6574      2.00000
     17       2.9210      2.00000
     18       2.9210      2.00000
     19       3.1647      2.00000
     20       3.1647      2.00000
     21       5.2614      0.00000
     22       5.2614      0.00000
     23       5.3600      0.00000
     24       5.3600      0.00000
     25       6.0338      0.00000
     26       6.0338      0.00000
     27       6.9909      0.00000
     28       6.9909      0.00000
     29       7.4948      0.00000
     30       7.4948      0.00000
     31       8.8419      0.00000
     32       8.8419      0.00000

 k-point    38 :       0.1667    0.5000    0.5000
  band No.  band energies     occupation 
      1      -9.6182      2.00000
      2      -9.6182      2.00000
      3      -9.5618      2.00000
      4      -9.5618      2.00000
      5      -4.8426      2.00000
      6      -4.8426      2.00000
      7      -3.8470      2.00000
      8      -3.8470      2.00000
      9      -0.1829      2.00000
     10      -0.1829      2.00000
     11       0.1814      2.00000
     12       0.1814      2.00000
     13       1.0477      2.00000
     14       1.0477      2.00000
     15       1.0563      2.00000
     16       1.0563      2.00000
     17       2.8752      2.00000
     18       2.8752      2.00000
     19       3.0237      2.00000
     20       3.0237      2.00000
     21       5.9232      0.00000
     22       5.9232      0.00000
     23       6.2083      0.00000
     24       6.2083      0.00000
     25       6.7528      0.00000
     26       6.7529      0.00000
     27       6.9645      0.00000
     28       6.9645      0.00000
     29       8.4205      0.00000
     30       8.4205      0.00000
     31       8.6246      0.00000
     32       8.6246      0.00000

 k-point    39 :       0.3333    0.5000    0.5000
  band No.  band energies     occupation 
      1      -9.2979      2.00000
      2      -9.2979      2.00000
      3      -9.2678      2.00000
      4      -9.2678      2.00000
      5      -4.6471      2.00000
      6      -4.6471      2.00000
      7      -3.9619      2.00000
      8      -3.9619      2.00000
      9      -1.1545      2.00000
     10      -1.1545      2.00000
     11      -0.8527      2.00000
     12      -0.8527      2.00000
     13       0.3137      2.00000
     14       0.3137      2.00000
     15       0.5965      2.00000
     16       0.5965      2.00000
     17       2.1860      2.00000
     18       2.1860      2.00000
     19       2.5411      2.00000
     20       2.5411      2.00000
     21       6.3637      0.00000
     22       6.3637      0.00000
     23       6.6115      0.00000
     24       6.6115      0.00000
     25       7.8150      0.00000
     26       7.8150      0.00000
     27       7.9277      0.00000
     28       7.9277      0.00000
     29       9.5135      0.00000
     30       9.5135      0.00000
     31       9.6975      0.00000
     32       9.6975      0.00000

 k-point    40 :       0.5000    0.5000    0.5000
  band No.  band energies     occupation 
      1      -9.1029      2.00000
      2      -9.1029      2.00000
      3      -9.1029      2.00000
      4      -9.1029      2.00000
      5      -4.4132      2.00000
      6      -4.4132      2.00000
      7      -4.4132      2.00000
      8      -4.4132      2.00000
      9      -0.8745      2.00000
     10      -0.8745      2.00000
     11      -0.8745      2.00000
     12      -0.8745      2.00000
     13      -0.4095      2.00000
     14      -0.4095      2.00000
     15      -0.4095      2.00000
     16      -0.4095      2.00000
     17       2.4065      2.00000
     18       2.4065      2.00000
     19       2.4065      2.00000
     20       2.4065      2.00000
     21       6.1768      0.00000
     22       6.1768      0.00000
     23       6.1768      0.00000
     24       6.1768      0.00000
     25       8.4213      0.00000
     26       8.4213      0.00000
     27       8.4213      0.00000
     28       8.4213      0.00000
     29      10.3964      0.00000
     30      10.3964      0.00000
     31      10.3964      0.00000
     32      10.3964      0.00000


--------------------------------------------------------------------------------------------------------


 soft charge-density along one line, spin component            1
         0         1         2         3         4         5         6         7         8         9
 total charge-density along one line
 
 pseudopotential strength for first ion, spin component:            1
 14.397  17.959   0.036   0.037  -0.000   0.066   0.068  -0.000
 17.959  22.416   0.046   0.047  -0.000   0.083   0.085  -0.000
  0.036   0.046   3.207  -0.002  -0.000   5.457  -0.003  -0.000
  0.037   0.047  -0.002   3.202  -0.000  -0.003   5.450  -0.000
 -0.000  -0.000  -0.000  -0.000   3.208  -0.000  -0.000   5.459
  0.066   0.083   5.457  -0.003  -0.000   9.345  -0.005  -0.000
  0.068   0.085  -0.003   5.450  -0.000  -0.005   9.332  -0.000
 -0.000  -0.000  -0.000  -0.000   5.459  -0.000  -0.000   9.348
 -0.000  -0.000  -0.000   0.000   0.006  -0.000   0.000   0.011
 -0.004  -0.004   0.009   0.012   0.000   0.017   0.021   0.000
 -0.006  -0.007  -0.003   0.009  -0.000  -0.005   0.017  -0.000
 -0.000  -0.000   0.000  -0.000   0.009   0.000  -0.000   0.017
  0.001   0.001  -0.011   0.000   0.000  -0.020   0.000   0.000
 total augmentation occupancy for first ion, spin component:            1
  2.873  -0.805   0.327   0.297   0.000  -0.064  -0.049  -0.000   0.000  -0.000   0.007  -0.000   0.014
 -0.805   0.732  -0.402  -0.410  -0.000   0.065   0.057   0.000  -0.000  -0.008  -0.005   0.000  -0.008
  0.327  -0.402   1.245   0.052   0.000  -0.208  -0.002  -0.000   0.000   0.045  -0.104   0.000   0.005
  0.297  -0.410   0.052   1.476   0.000  -0.003  -0.243   0.000   0.000  -0.021   0.086   0.000  -0.008
  0.000  -0.000   0.000   0.000   1.302  -0.000  -0.000  -0.233   0.145   0.000  -0.000   0.031  -0.000
 -0.064   0.065  -0.208  -0.003  -0.000   0.039  -0.001   0.000  -0.000  -0.007   0.018  -0.000  -0.001
 -0.049   0.057  -0.002  -0.243  -0.000  -0.001   0.047   0.000   0.000   0.004  -0.014  -0.000   0.001
 -0.000   0.000  -0.000   0.000  -0.233   0.000   0.000   0.046  -0.026  -0.000   0.000  -0.004  -0.000
  0.000  -0.000   0.000   0.000   0.145  -0.000   0.000  -0.026   0.031   0.000  -0.000   0.004  -0.000
 -0.000  -0.008   0.045  -0.021   0.000  -0.007   0.004  -0.000   0.000   0.014  -0.006   0.000   0.000
  0.007  -0.005  -0.104   0.086  -0.000   0.018  -0.014   0.000  -0.000  -0.006   0.032  -0.000  -0.002
 -0.000   0.000   0.000   0.000   0.031  -0.000  -0.000  -0.004   0.004   0.000  -0.000   0.014  -0.000
  0.014  -0.008   0.005  -0.008  -0.000  -0.001   0.001  -0.000  -0.000   0.000  -0.002  -0.000   0.009


------------------------ aborting loop because EDIFF is reached ----------------------------------------


    CHARGE:  cpu time      0.0051: real time      0.0052
    FORLOC:  cpu time      0.0002: real time      0.0002
    FORNL :  cpu time      0.0238: real time      0.0239
    STRESS:  cpu time      0.2512: real time      0.2525
    FORCOR:  cpu time      0.0063: real time      0.0063
    FORHAR:  cpu time      0.0016: real time      0.0016
    MIXING:  cpu time      0.0005: real time      0.0006
    OFIELD:  cpu time      0.0000: real time      0.0000

  FORCE on cell =-STRESS in cart. coord.  units (eV):
  Direction    XX          YY          ZZ          XY          YZ          ZX
  --------------------------------------------------------------------------------------
  Alpha Z    91.66130    91.66130    91.66130
  Ewald    -462.64766  -514.68845  -471.19624     0.00006     0.00009     0.00005
  Hartree    50.13742    33.88390    39.89789     0.00002     0.00002     0.00001
  E(xc)    -141.90288  -141.92858  -142.01066    -0.00000    -0.00000     0.00000
  Local    -157.00391   -95.85148  -146.71841    -0.00008    -0.00010    -0.00005
  n-local   242.05322   240.85207   243.43424     0.00000     0.00000     0.00000
  augment   -11.38359   -11.81797   -12.01896    -0.00000     0.00000     0.00000
  Kinetic   391.44485   400.25597   404.10162     0.00001    -0.00001    -0.00002
  Fock        0.00000     0.00000     0.00000     0.00000     0.00000     0.00000
  -------------------------------------------------------------------------------------
  Total       2.35875     2.36676     7.15078     0.00001     0.00000    -0.00001
  in kB      20.44330    20.51273    61.97592     0.00006     0.00002    -0.00008
  external pressure =       34.31 kB  Pullay stress =        0.00 kB


 VOLUME and BASIS-vectors are now :
 -----------------------------------------------------------------------------
  energy-cutoff  :      360.00
  volume of cell :      184.86
      direct lattice vectors                 reciprocal lattice vectors
     3.858100176  0.000000000  0.000000000     0.259194929  0.000000000  0.000000000
     0.000000000  4.526575088  0.000000000     0.000000000  0.220917577  0.000000000
     0.000000000  0.000000000 10.585176468     0.000000000  0.000000000  0.094471736

  length of vectors
     3.858100176  4.526575088 10.585176468     0.259194929  0.220917577  0.094471736


 FORCES acting on ions
    electron-ion (+dipol)            ewald-force                    non-local-force                 convergence-correction
 -----------------------------------------------------------------------------------------------
   0.913E-05 0.129E+02 0.149E+02   -.102E-04 -.151E+02 -.171E+02   0.550E-06 0.214E+01 0.284E+01   0.361E-06 0.780E-04 -.437E-03
   0.556E-05 0.129E+02 -.149E+02   -.532E-05 -.151E+02 0.171E+02   -.445E-06 0.214E+01 -.284E+01   0.681E-07 0.778E-04 0.437E-03
   0.124E-05 -.129E+02 -.149E+02   -.343E-05 0.151E+02 0.171E+02   0.440E-06 -.214E+01 -.284E+01   -.137E-06 -.777E-04 0.437E-03
   -.228E-04 -.129E+02 0.149E+02   0.266E-04 0.151E+02 -.171E+02   -.515E-06 -.214E+01 0.284E+01   -.197E-06 -.781E-04 -.437E-03
   -.262E-05 -.188E+02 -.186E+02   -.103E-05 0.203E+02 0.201E+02   0.184E-05 -.113E+01 -.184E+01   0.818E-06 -.507E-03 0.651E-03
   -.805E-05 -.188E+02 0.186E+02   0.702E-05 0.203E+02 -.201E+02   0.133E-05 -.113E+01 0.184E+01   0.651E-06 -.506E-03 -.652E-03
   0.379E-04 0.188E+02 0.186E+02   -.363E-04 -.203E+02 -.201E+02   -.127E-05 0.113E+01 0.184E+01   -.101E-05 0.506E-03 -.652E-03
   -.195E-04 0.188E+02 -.186E+02   0.226E-04 -.203E+02 0.201E+02   -.249E-05 0.113E+01 -.184E+01   -.946E-06 0.506E-03 0.652E-03
 -----------------------------------------------------------------------------------------------
   0.878E-06 0.265E-04 -.100E-05   0.353E-14 -.711E-14 0.000E+00   -.562E-06 0.545E-03 -.919E-06   -.393E-06 0.862E-07 -.887E-06
 
 
 POSITION                                       TOTAL-FORCE (eV/Angst)
 -----------------------------------------------------------------------------------
      0.96452      3.68847      1.23098        -0.000000     -0.013460      0.600761
      2.89357      1.42518      4.06160        -0.000000     -0.013463     -0.600754
      2.89357      3.98702      9.35419        -0.000002      0.013535     -0.600726
      0.96452      1.72374      6.52357         0.000003      0.013533      0.600722
      0.96452      3.12602      3.75268        -0.000001      0.384382     -0.363196
      2.89357      0.86274      1.53991         0.000001      0.384377      0.363191
      2.89357      0.02290      6.83250        -0.000001     -0.384450      0.363239
      0.96452      2.28618      9.04526        -0.000000     -0.384454     -0.363236
 -----------------------------------------------------------------------------------
    total drift:                               -0.000000      0.000572     -0.000003


--------------------------------------------------------------------------------------------------------



  FREE ENERGIE OF THE ION-ELECTRON SYSTEM (eV)
  ---------------------------------------------------
  free  energy   TOTEN  =       -33.01942560 eV

  energy  without entropy=      -33.01942560  energy(sigma->0) =      -33.01942560
 


--------------------------------------------------------------------------------------------------------


    POTLOK:  cpu time      0.2244: real time      0.2250


--------------------------------------------------------------------------------------------------------


     LOOP+:  cpu time      7.6287: real time      7.6744
    4ORBIT:  cpu time      0.0000: real time      0.0000

 total amount of memory used by VASP MPI-rank0    36587. kBytes
=======================================================================

   base      :      30000. kBytes
   nonl-proj :       5001. kBytes
   fftplans  :        306. kBytes
   grid      :        466. kBytes
   one-center:         16. kBytes
   wavefun   :        798. kBytes
 
  
  
 General timing and accounting informations for this job:
 ========================================================
  
                  Total CPU time used (sec):        9.211
                            User time (sec):        8.950
                          System time (sec):        0.261
                         Elapsed time (sec):        9.598
  
                   Maximum memory used (kb):      174516.
                   Average memory used (kb):          N/A
  
                          Minor page faults:        16593
                          Major page faults:           47
                 Voluntary context switches:         2098
