 vasp.6.4.2 20Jul23 (build Oct 12 2023 10:31:02) complex                         
 executed on              LinuxNV date 2025.05.28  16:03:14
 running  128 mpi-ranks, with    1 threads/rank, on    2 nodes
 distrk:  each k-point on   64 cores,    2 groups
 distr:  one band on NCORE=   4 cores,   16 groups


--------------------------------------------------------------------------------------------------------


 INCAR:
   ENCUT = 360.000000
   SIGMA = 0.050000
   EDIFF = 1.00e-06
   ALGO = Normal
   GGA = PE
   PREC = Normal
   SYSTEM = ./
   ICHARG = 2
   ISMEAR = 0
   ISPIN = 1
   ISTART = 0
   ISYM = 0
   KPAR = 2
   LMAXMIX = 4
   NELM = 100
   NPAR = 16
   LASPH = .TRUE.
   LCHARG = .FALSE.
   LWAVE = .FALSE.

 POTCAR:    PAW_PBE Ge 05Jan2001                  
 POTCAR:    PAW_PBE Se 06Sep2000                  
 POTCAR:    PAW_PBE Ge 05Jan2001                  
   VRHFIN =Ge: s2p2                                                                                 
   LEXCH  = PE                                                                                      
   EATOM  =   104.9960 eV,    7.7170 Ry                                                             
                                                                                                    
   TITEL  = PAW_PBE Ge 05Jan2001                                                                    
   LULTRA =        F    use ultrasoft PP ?                                                          
   IUNSCR =        1    unscreen: 0-lin 1-nonlin 2-no                                               
   RPACOR =    2.170    partial core radius                                                         
   POMASS =   72.610; ZVAL   =    4.000    mass and valenz                                          
   RCORE  =    2.300    outmost cutoff radius                                                       
   RWIGS  =    2.300; RWIGS  =    1.217    wigner-seitz radius (au A)                               
   ENMAX  =  173.807; ENMIN  =  130.355 eV                                                          
   ICORE  =        3    local potential                                                             
   LCOR   =        T    correct aug charges                                                         
   LPAW   =        T    paw PP                                                                      
   EAUG   =  385.843                                                                                
   DEXC   =    0.000                                                                                
   RMAX   =    2.342    core radius for proj-oper                                                   
   RAUG   =    1.300    factor for augmentation sphere                                              
   RDEP   =    2.318    radius for radial grids                                                     
   RDEPT  =    2.103    core radius for aug-charge                                                  
                                                                                                    
   Atomic configuration                                                                             
   10 entries                                                                                       
     n  l   j            E        occ.                                                              
     1  0  0.50    -10959.8463   2.0000                                                             
     2  0  0.50     -1371.6056   2.0000                                                             
     2  1  1.50     -1198.4791   6.0000                                                             
     3  0  0.50      -168.4733   2.0000                                                             
     3  1  1.50      -115.6019   6.0000                                                             
     3  2  2.50       -29.3106  10.0000                                                             
     4  0  0.50       -11.7309   2.0000                                                             
     4  1  0.50        -3.8952   2.0000                                                             
     4  2  1.50        -4.0817   0.0000                                                             
     4  3  2.50        -4.0817   0.0000                                                             
   Description                                                                                      
     l       E           TYP  RCUT    TYP  RCUT                                                     
     0    -11.7309493     23  2.300                                                                 
     0     -7.4578696     23  2.300                                                                 
     1     -3.8952261     23  2.300                                                                 
     1      6.1178114     23  2.300                                                                 
     2     -4.0817478     23  2.300                                                                 
     3     -1.3605826      7  2.300                                                                 
  local pseudopotential read in
  partial core-charges read in
  partial kinetic energy density read in
  atomic valenz-charges read in
  non local Contribution for L=            0  read in
    real space projection operators read in
  non local Contribution for L=            0  read in
    real space projection operators read in
  non local Contribution for L=            1  read in
    real space projection operators read in
  non local Contribution for L=            1  read in
    real space projection operators read in
  non local Contribution for L=            2  read in
    real space projection operators read in
    PAW grid and wavefunctions read in
 
   number of l-projection  operators is LMAX  =            5
   number of lm-projection operators is LMMAX =           13
 
 POTCAR:    PAW_PBE Se 06Sep2000                  
   VRHFIN =Se: s2p4                                                                                 
   LEXCH  = PE                                                                                      
   EATOM  =   257.1286 eV,   18.8984 Ry                                                             
                                                                                                    
   TITEL  = PAW_PBE Se 06Sep2000                                                                    
   LULTRA =        F    use ultrasoft PP ?                                                          
   IUNSCR =        1    unscreen: 0-lin 1-nonlin 2-no                                               
   RPACOR =    1.900    partial core radius                                                         
   POMASS =   78.960; ZVAL   =    6.000    mass and valenz                                          
   RCORE  =    2.100    outmost cutoff radius                                                       
   RWIGS  =    2.200; RWIGS  =    1.164    wigner-seitz radius (au A)                               
   ENMAX  =  211.555; ENMIN  =  158.666 eV                                                          
   ICORE  =        3    local potential                                                             
   LCOR   =        T    correct aug charges                                                         
   LPAW   =        T    paw PP                                                                      
   EAUG   =  446.842                                                                                
   DEXC   =    0.000                                                                                
   RMAX   =    2.147    core radius for proj-oper                                                   
   RAUG   =    1.300    factor for augmentation sphere                                              
   RDEP   =    2.177    radius for radial grids                                                     
   RDEPT  =    1.928    core radius for aug-charge                                                  
                                                                                                    
   Atomic configuration                                                                             
   10 entries                                                                                       
     n  l   j            E        occ.                                                              
     1  0  0.50    -12503.4787   2.0000                                                             
     2  0  0.50     -1606.9547   2.0000                                                             
     2  1  1.50     -1413.3140   6.0000                                                             
     3  0  0.50      -213.4885   2.0000                                                             
     3  1  1.50      -152.9538   6.0000                                                             
     3  2  2.50       -53.1221  10.0000                                                             
     4  0  0.50       -17.2865   2.0000                                                             
     4  1  0.50        -6.5110   4.0000                                                             
     4  2  2.50        -6.8029   0.0000                                                             
     4  3  2.50        -6.8029   0.0000                                                             
   Description                                                                                      
     l       E           TYP  RCUT    TYP  RCUT                                                     
     0    -17.2865377     23  2.100                                                                 
     0    -15.3094411     23  2.100                                                                 
     1     -6.5110275     23  2.100                                                                 
     1     -0.0695192     23  2.100                                                                 
     2     -6.8029130     23  2.100                                                                 
     3     -1.3605826      7  2.100                                                                 
  local pseudopotential read in
  partial core-charges read in
  partial kinetic energy density read in
  atomic valenz-charges read in
  non local Contribution for L=            0  read in
    real space projection operators read in
  non local Contribution for L=            0  read in
    real space projection operators read in
  non local Contribution for L=            1  read in
    real space projection operators read in
  non local Contribution for L=            1  read in
    real space projection operators read in
  non local Contribution for L=            2  read in
    real space projection operators read in
    PAW grid and wavefunctions read in
 
   number of l-projection  operators is LMAX  =            5
   number of lm-projection operators is LMMAX =           13
 
  PAW_PBE Ge 05Jan2001                  :
 energy of atom  1       EATOM= -104.9960
 kinetic energy error for atom=    0.0005 (will be added to EATOM!!)
  PAW_PBE Se 06Sep2000                  :
 energy of atom  2       EATOM= -257.1286
 kinetic energy error for atom=    0.0030 (will be added to EATOM!!)
 
 
 POSCAR: Ge Se
  positions in cartesian coordinates
  No initial velocities read in
 exchange correlation table for  LEXCH =        8
   RHO(1)=    0.500       N(1)  =     2000
   RHO(2)=  100.500       N(2)  =     4000
 


--------------------------------------------------------------------------------------------------------


 ion  position               nearest neighbor table
   1  0.105  0.250  0.123-   6 2.57   6 2.57   5 2.60
   2  0.605  0.750  0.377-   5 2.57   5 2.57   6 2.60
   3  0.895  0.750  0.877-   8 2.57   8 2.57   7 2.60
   4  0.395  0.250  0.623-   7 2.57   7 2.57   8 2.60
   5  0.987  0.250  0.352-   2 2.57   2 2.57   1 2.60
   6  0.487  0.750  0.148-   1 2.57   1 2.57   2 2.60
   7  0.013  0.750  0.648-   4 2.57   4 2.57   3 2.60
   8  0.513  0.250  0.852-   3 2.57   3 2.57   4 2.60
 

IMPORTANT INFORMATION: All symmetrisations will be switched off!
NOSYMM: (Re-)initialisation of all symmetry stuff for point group C_1.


----------------------------------------------------------------------------------------

                                     Primitive cell                                     

  volume of cell :     190.1141

  direct lattice vectors                    reciprocal lattice vectors
     4.550000000  0.000000000  0.000000000     0.219780220  0.000000000  0.000000000
     0.000000000  3.750000000  0.000000000     0.000000000  0.266666667  0.000000000
     0.000000000  0.000000000 11.142221000     0.000000000  0.000000000  0.089748713

  length of vectors
     4.550000000  3.750000000 11.142221000     0.219780220  0.266666667  0.089748713

  position of ions in fractional coordinates (direct lattice)
     0.105356845  0.250000000  0.123288311
     0.605356845  0.750000000  0.376711689
     0.894643155  0.750000000  0.876711689
     0.394643155  0.250000000  0.623288311
     0.987019027  0.250000000  0.351715598
     0.487019027  0.750000000  0.148284402
     0.012980973  0.750000000  0.648284402
     0.512980973  0.250000000  0.851715598

  ion indices of the primitive-cell ions
   primitive index   ion index
                 1           1
                 2           2
                 3           3
                 4           4
                 5           5
                 6           6
                 7           7
                 8           8

----------------------------------------------------------------------------------------

 
 
 KPOINTS: KPOINTS created by Atomic Simulation Env

Automatic generation of k-mesh.
 Grid dimensions read from file:
 generate k-points for:    6    6    2

 Generating k-lattice:

  Cartesian coordinates                     Fractional coordinates (reciprocal lattice)
     0.036630037  0.000000000  0.000000000     0.166666667  0.000000000  0.000000000
     0.000000000  0.044444444  0.000000000     0.000000000  0.166666667  0.000000000
     0.000000000  0.000000000  0.044874357     0.000000000  0.000000000  0.500000000

  Length of vectors
     0.036630037  0.044444444  0.044874357

  Shift w.r.t. Gamma in fractional coordinates (k-lattice)
     0.000000000  0.000000000  0.000000000

 
 Subroutine IBZKPT returns following result:
 ===========================================
 
 Found     40 irreducible k-points:
 
 Following reciprocal coordinates:
            Coordinates               Weight
  0.000000  0.000000  0.000000      1.000000
  0.166667  0.000000  0.000000      2.000000
  0.333333  0.000000  0.000000      2.000000
  0.500000  0.000000  0.000000      1.000000
  0.000000  0.166667  0.000000      2.000000
  0.166667  0.166667  0.000000      2.000000
 -0.166667  0.166667  0.000000      2.000000
  0.333333  0.166667  0.000000      2.000000
 -0.333333  0.166667  0.000000      2.000000
  0.500000  0.166667  0.000000      2.000000
  0.000000  0.333333  0.000000      2.000000
  0.166667  0.333333  0.000000      2.000000
 -0.166667  0.333333  0.000000      2.000000
  0.333333  0.333333  0.000000      2.000000
 -0.333333  0.333333  0.000000      2.000000
  0.500000  0.333333  0.000000      2.000000
  0.000000  0.500000  0.000000      1.000000
  0.166667  0.500000  0.000000      2.000000
  0.333333  0.500000  0.000000      2.000000
  0.500000  0.500000  0.000000      1.000000
  0.000000  0.000000  0.500000      1.000000
  0.166667  0.000000  0.500000      2.000000
  0.333333  0.000000  0.500000      2.000000
  0.500000  0.000000  0.500000      1.000000
  0.000000  0.166667  0.500000      2.000000
  0.166667  0.166667  0.500000      2.000000
 -0.166667  0.166667  0.500000      2.000000
  0.333333  0.166667  0.500000      2.000000
 -0.333333  0.166667  0.500000      2.000000
  0.500000  0.166667  0.500000      2.000000
  0.000000  0.333333  0.500000      2.000000
  0.166667  0.333333  0.500000      2.000000
 -0.166667  0.333333  0.500000      2.000000
  0.333333  0.333333  0.500000      2.000000
 -0.333333  0.333333  0.500000      2.000000
  0.500000  0.333333  0.500000      2.000000
  0.000000  0.500000  0.500000      1.000000
  0.166667  0.500000  0.500000      2.000000
  0.333333  0.500000  0.500000      2.000000
  0.500000  0.500000  0.500000      1.000000
 
 Following cartesian coordinates:
            Coordinates               Weight
  0.000000  0.000000  0.000000      1.000000
  0.036630  0.000000  0.000000      2.000000
  0.073260  0.000000  0.000000      2.000000
  0.109890  0.000000  0.000000      1.000000
  0.000000  0.044444  0.000000      2.000000
  0.036630  0.044444  0.000000      2.000000
 -0.036630  0.044444  0.000000      2.000000
  0.073260  0.044444  0.000000      2.000000
 -0.073260  0.044444  0.000000      2.000000
  0.109890  0.044444  0.000000      2.000000
  0.000000  0.088889  0.000000      2.000000
  0.036630  0.088889  0.000000      2.000000
 -0.036630  0.088889  0.000000      2.000000
  0.073260  0.088889  0.000000      2.000000
 -0.073260  0.088889  0.000000      2.000000
  0.109890  0.088889  0.000000      2.000000
  0.000000  0.133333  0.000000      1.000000
  0.036630  0.133333  0.000000      2.000000
  0.073260  0.133333  0.000000      2.000000
  0.109890  0.133333  0.000000      1.000000
  0.000000  0.000000  0.044874      1.000000
  0.036630  0.000000  0.044874      2.000000
  0.073260  0.000000  0.044874      2.000000
  0.109890  0.000000  0.044874      1.000000
  0.000000  0.044444  0.044874      2.000000
  0.036630  0.044444  0.044874      2.000000
 -0.036630  0.044444  0.044874      2.000000
  0.073260  0.044444  0.044874      2.000000
 -0.073260  0.044444  0.044874      2.000000
  0.109890  0.044444  0.044874      2.000000
  0.000000  0.088889  0.044874      2.000000
  0.036630  0.088889  0.044874      2.000000
 -0.036630  0.088889  0.044874      2.000000
  0.073260  0.088889  0.044874      2.000000
 -0.073260  0.088889  0.044874      2.000000
  0.109890  0.088889  0.044874      2.000000
  0.000000  0.133333  0.044874      1.000000
  0.036630  0.133333  0.044874      2.000000
  0.073260  0.133333  0.044874      2.000000
  0.109890  0.133333  0.044874      1.000000
 


--------------------------------------------------------------------------------------------------------




 Dimension of arrays:
   k-points           NKPTS =     40   k-points in BZ     NKDIM =     40   number of bands    NBANDS=     32
   number of dos      NEDOS =    301   number of ions     NIONS =      8
   non local maximal  LDIM  =      5   non local SUM 2l+1 LMDIM =     13
   total plane-waves  NPLWV =  23328
   max r-space proj   IRMAX =      1   max aug-charges    IRDMAX=   6868
   dimension x,y,z NGX =    24 NGY =   18 NGZ =   54
   dimension x,y,z NGXF=    48 NGYF=   36 NGZF=  108
   support grid    NGXF=    48 NGYF=   36 NGZF=  108
   ions per type =               4   4
   NGX,Y,Z   is equivalent  to a cutoff of   8.77,  7.98,  8.06 a.u.
   NGXF,Y,Z  is equivalent  to a cutoff of  17.54, 15.96, 16.11 a.u.

 SYSTEM =  ./                                      
 POSCAR =  Ge Se                                   

 Startparameter for this run:
   NWRITE =      2    write-flag & timer
   PREC   = normal    normal or accurate (medium, high low for compatibility)
   ISTART =      0    job   : 0-new  1-cont  2-samecut
   ICHARG =      2    charge: 1-file 2-atom 10-const
   ISPIN  =      1    spin polarized calculation?
   LNONCOLLINEAR =      F non collinear calculations
   LSORBIT =      F    spin-orbit coupling
   INIWAV =      1    electr: 0-lowe 1-rand  2-diag
   LASPH  =      T    aspherical Exc in radial PAW
 Electronic Relaxation 1
   ENCUT  =  360.0 eV  26.46 Ry    5.14 a.u.   7.04  5.80 17.24*2*pi/ulx,y,z
   ENINI  =  360.0     initial cutoff
   ENAUG  =  446.8 eV  augmentation charge cutoff
   NELM   =    100;   NELMIN=  2; NELMDL= -5     # of ELM steps 
   EDIFF  = 0.1E-05   stopping-criterion for ELM
   LREAL  =      F    real-space projection
   NLSPLINE    = F    spline interpolate recip. space projectors
   LCOMPAT=      F    compatible to vasp.4.4
   GGA_COMPAT  = T    GGA compatible to vasp.4.4-vasp.4.6
   LMAXPAW     = -100 max onsite density
   LMAXMIX     =    4 max onsite mixed and CHGCAR
   VOSKOWN=      0    Vosko Wilk Nusair interpolation
   ROPT   =    0.00000   0.00000
 Ionic relaxation
   EDIFFG = 0.1E-04   stopping-criterion for IOM
   NSW    =      0    number of steps for IOM
   NBLOCK =      1;   KBLOCK =      1    inner block; outer block 
   IBRION =     -1    ionic relax: 0-MD 1-quasi-New 2-CG
   NFREE  =      0    steps in history (QN), initial steepest desc. (CG)
   ISIF   =      2    stress and relaxation
   IWAVPR =     10    prediction:  0-non 1-charg 2-wave 3-comb
   ISYM   =      0    0-nonsym 1-usesym 2-fastsym
   LCORR  =      T    Harris-Foulkes like correction to forces

   POTIM  = 0.5000    time-step for ionic-motion
   TEIN   =    0.0    initial temperature
   TEBEG  =    0.0;   TEEND  =   0.0 temperature during run
   SMASS  =  -3.00    Nose mass-parameter (am)
   estimated Nose-frequenzy (Omega)   =  0.10E-29 period in steps = 0.13E+47 mass=  -0.473E-27a.u.
   SCALEE = 1.0000    scale energy and forces
   NPACO  =    256;   APACO  = 10.0  distance and # of slots for P.C.
   PSTRESS=    0.0 pullay stress

  Mass of Ions in am
   POMASS =  72.61 78.96
  Ionic Valenz
   ZVAL   =   4.00  6.00
  Atomic Wigner-Seitz radii
   RWIGS  =  -1.00 -1.00
  virtual crystal weights 
   VCA    =   1.00  1.00
   NELECT =      40.0000    total number of electrons
   NUPDOWN=      -1.0000    fix difference up-down

 DOS related values:
   EMIN   =  10.00;   EMAX   =-10.00  energy-range for DOS
   EFERMI =   0.00;   METHOD = LEGACY      
   ISMEAR =     0;   SIGMA  =   0.05  broadening in eV -4-tet -1-fermi 0-gaus

 Electronic relaxation 2 (details)
   IALGO  =     38    algorithm
   LDIAG  =      T    sub-space diagonalisation (order eigenvalues)
   LSUBROT=      F    optimize rotation matrix (better conditioning)
   TURBO    =      0    0=normal 1=particle mesh
   IRESTART =      0    0=no restart 2=restart with 2 vectors
   NREBOOT  =      0    no. of reboots
   NMIN     =      0    reboot dimension
   EREF     =   0.00    reference energy to select bands
   IMIX   =      4    mixing-type and parameters
     AMIX     =   0.40;   BMIX     =  1.00
     AMIX_MAG =   1.60;   BMIX_MAG =  1.00
     AMIN     =   0.10
     WC   =   100.;   INIMIX=   1;  MIXPRE=   1;  MAXMIX= -45

 Intra band minimization:
   WEIMIN = 0.0000     energy-eigenvalue tresh-hold
   EBREAK =  0.78E-08  absolut break condition
   DEPER  =   0.30     relativ break condition  

   TIME   =   0.40     timestep for ELM

  volume/ion in A,a.u.               =      23.76       160.37
  Fermi-wavevector in a.u.,A,eV,Ry     =   0.973696  1.840018 12.899462  0.948084
  Thomas-Fermi vector in A             =   2.104096
 
 Write flags
   LWAVE        =      F    write WAVECAR
   LDOWNSAMPLE  =      F    k-point downsampling of WAVECAR
   LCHARG       =      F    write CHGCAR
   LVTOT        =      F    write LOCPOT, total local potential
   LVHAR        =      F    write LOCPOT, Hartree potential only
   LELF         =      F    write electronic localiz. function (ELF)
   LORBIT       =      0    0 simple, 1 ext, 2 COOP (PROOUT), +10 PAW based schemes


 Dipole corrections
   LMONO  =      F    monopole corrections only (constant potential shift)
   LDIPOL =      F    correct potential (dipole corrections)
   IDIPOL =      0    1-x, 2-y, 3-z, 4-all directions 
   EPSILON=  1.0000000 bulk dielectric constant

 Exchange correlation treatment:
   GGA     =    PE    GGA type
   LEXCH   =     8    internal setting for exchange type
   LIBXC   =     F    Libxc                    
   VOSKOWN =     0    Vosko Wilk Nusair interpolation
   LHFCALC =     F    Hartree Fock is set to
   LHFONE  =     F    Hartree Fock one center treatment
   AEXX    =    0.0000 exact exchange contribution

 Linear response parameters
   LEPSILON=     F    determine dielectric tensor
   LRPA    =     F    only Hartree local field effects (RPA)
   LNABLA  =     F    use nabla operator in PAW spheres
   LVEL    =     F    velocity operator in full k-point grid
   CSHIFT  =0.1000    complex shift for real part using Kramers Kronig
   OMEGAMAX=  -1.0    maximum frequency
   DEG_THRESHOLD= 0.2000000E-02 threshold for treating states as degnerate
   RTIME   =   -0.100 relaxation time in fs
  (WPLASMAI=    0.000 imaginary part of plasma frequency in eV, 0.658/RTIME)
   DFIELD  = 0.0000000 0.0000000 0.0000000 field for delta impulse in time
 
  Optional k-point grid parameters
   LKPOINTS_OPT  =     F    use optional k-point grid
   KPOINTS_OPT_MODE=     1    mode for optional k-point grid
 
 Orbital magnetization related:
   ORBITALMAG=     F  switch on orbital magnetization
   LCHIMAG   =     F  perturbation theory with respect to B field
   DQ        =  0.001000  dq finite difference perturbation B field
   LLRAUG    =     F  two centre corrections for induced B field
   LBONE     =     F  B-component reconstruction in AE one-centre
   LVGVCALC  =     T  calculate vGv susceptibility
   LVGVAPPL  =     F  apply vGv susceptibility instead of pGv for G=0

 Random number generation:
   RANDOM_GENERATOR = DEFAULT
   PCG_SEED         = not used


--------------------------------------------------------------------------------------------------------


 Static calculation
 charge density and potential will be updated during run
 non-spin polarized calculation
 Variant of blocked Davidson
 Davidson routine will perform the subspace rotation
 perform sub-space diagonalisation
    after iterative eigenvector-optimisation
 modified Broyden-mixing scheme, WC =      100.0
 initial mixing is a Kerker type mixing with AMIX =  0.4000 and BMIX =      1.0000
 Hartree-type preconditioning will be used
 using additional bands            12
 reciprocal scheme for non local part
 use partial core corrections
 calculate Harris-corrections to forces 
   (improved forces if not selfconsistent)
 use gradient corrections 
 use of overlap-Matrix (Vanderbilt PP)
 Gauss-broadening in eV      SIGMA  =   0.05


--------------------------------------------------------------------------------------------------------


  energy-cutoff  :      360.00
  volume of cell :      190.11
      direct lattice vectors                 reciprocal lattice vectors
     4.550000000  0.000000000  0.000000000     0.219780220  0.000000000  0.000000000
     0.000000000  3.750000000  0.000000000     0.000000000  0.266666667  0.000000000
     0.000000000  0.000000000 11.142221000     0.000000000  0.000000000  0.089748713

  length of vectors
     4.550000000  3.750000000 11.142221000     0.219780220  0.266666667  0.089748713


 
 k-points in units of 2pi/SCALE and weight: KPOINTS created by Atomic Simulation Env
   0.00000000  0.00000000  0.00000000       0.014
   0.03663004  0.00000000  0.00000000       0.028
   0.07326007  0.00000000  0.00000000       0.028
   0.10989011  0.00000000  0.00000000       0.014
   0.00000000  0.04444444  0.00000000       0.028
   0.03663004  0.04444444  0.00000000       0.028
  -0.03663004  0.04444444  0.00000000       0.028
   0.07326007  0.04444444  0.00000000       0.028
  -0.07326007  0.04444444  0.00000000       0.028
   0.10989011  0.04444444  0.00000000       0.028
   0.00000000  0.08888889  0.00000000       0.028
   0.03663004  0.08888889  0.00000000       0.028
  -0.03663004  0.08888889  0.00000000       0.028
   0.07326007  0.08888889  0.00000000       0.028
  -0.07326007  0.08888889  0.00000000       0.028
   0.10989011  0.08888889  0.00000000       0.028
   0.00000000  0.13333333  0.00000000       0.014
   0.03663004  0.13333333  0.00000000       0.028
   0.07326007  0.13333333  0.00000000       0.028
   0.10989011  0.13333333  0.00000000       0.014
   0.00000000  0.00000000  0.04487436       0.014
   0.03663004  0.00000000  0.04487436       0.028
   0.07326007  0.00000000  0.04487436       0.028
   0.10989011  0.00000000  0.04487436       0.014
   0.00000000  0.04444444  0.04487436       0.028
   0.03663004  0.04444444  0.04487436       0.028
  -0.03663004  0.04444444  0.04487436       0.028
   0.07326007  0.04444444  0.04487436       0.028
  -0.07326007  0.04444444  0.04487436       0.028
   0.10989011  0.04444444  0.04487436       0.028
   0.00000000  0.08888889  0.04487436       0.028
   0.03663004  0.08888889  0.04487436       0.028
  -0.03663004  0.08888889  0.04487436       0.028
   0.07326007  0.08888889  0.04487436       0.028
  -0.07326007  0.08888889  0.04487436       0.028
   0.10989011  0.08888889  0.04487436       0.028
   0.00000000  0.13333333  0.04487436       0.014
   0.03663004  0.13333333  0.04487436       0.028
   0.07326007  0.13333333  0.04487436       0.028
   0.10989011  0.13333333  0.04487436       0.014
 
 k-points in reciprocal lattice and weights: KPOINTS created by Atomic Simulation Env
   0.00000000  0.00000000  0.00000000       0.014
   0.16666667  0.00000000  0.00000000       0.028
   0.33333333  0.00000000  0.00000000       0.028
   0.50000000  0.00000000  0.00000000       0.014
   0.00000000  0.16666667  0.00000000       0.028
   0.16666667  0.16666667  0.00000000       0.028
  -0.16666667  0.16666667  0.00000000       0.028
   0.33333333  0.16666667  0.00000000       0.028
  -0.33333333  0.16666667  0.00000000       0.028
   0.50000000  0.16666667  0.00000000       0.028
   0.00000000  0.33333333  0.00000000       0.028
   0.16666667  0.33333333  0.00000000       0.028
  -0.16666667  0.33333333  0.00000000       0.028
   0.33333333  0.33333333  0.00000000       0.028
  -0.33333333  0.33333333  0.00000000       0.028
   0.50000000  0.33333333  0.00000000       0.028
   0.00000000  0.50000000  0.00000000       0.014
   0.16666667  0.50000000  0.00000000       0.028
   0.33333333  0.50000000  0.00000000       0.028
   0.50000000  0.50000000  0.00000000       0.014
   0.00000000  0.00000000  0.50000000       0.014
   0.16666667  0.00000000  0.50000000       0.028
   0.33333333  0.00000000  0.50000000       0.028
   0.50000000  0.00000000  0.50000000       0.014
   0.00000000  0.16666667  0.50000000       0.028
   0.16666667  0.16666667  0.50000000       0.028
  -0.16666667  0.16666667  0.50000000       0.028
   0.33333333  0.16666667  0.50000000       0.028
  -0.33333333  0.16666667  0.50000000       0.028
   0.50000000  0.16666667  0.50000000       0.028
   0.00000000  0.33333333  0.50000000       0.028
   0.16666667  0.33333333  0.50000000       0.028
  -0.16666667  0.33333333  0.50000000       0.028
   0.33333333  0.33333333  0.50000000       0.028
  -0.33333333  0.33333333  0.50000000       0.028
   0.50000000  0.33333333  0.50000000       0.028
   0.00000000  0.50000000  0.50000000       0.014
   0.16666667  0.50000000  0.50000000       0.028
   0.33333333  0.50000000  0.50000000       0.028
   0.50000000  0.50000000  0.50000000       0.014
 
 position of ions in fractional coordinates (direct lattice) 
   0.10535684  0.25000000  0.12328831
   0.60535684  0.75000000  0.37671169
   0.89464316  0.75000000  0.87671169
   0.39464316  0.25000000  0.62328831
   0.98701903  0.25000000  0.35171560
   0.48701903  0.75000000  0.14828440
   0.01298097  0.75000000  0.64828440
   0.51298097  0.25000000  0.85171560
 
 position of ions in cartesian coordinates  (Angst):
   0.47937364  0.93750000  1.37370561
   2.75437364  2.81250000  4.19740489
   4.07062636  2.81250000  9.76851539
   1.79562636  0.93750000  6.94481611
   4.49093658  0.93750000  3.91889292
   2.21593658  2.81250000  1.65221758
   0.05906342  2.81250000  7.22332808
   2.33406342  0.93750000  9.49000342
 


--------------------------------------------------------------------------------------------------------


 k-point   1 :   0.0000 0.0000 0.0000  plane waves:    2931
 k-point   2 :   0.1667 0.0000 0.0000  plane waves:    2952
 k-point   3 :   0.3333 0.0000 0.0000  plane waves:    2946
 k-point   4 :   0.5000 0.0000 0.0000  plane waves:    2930
 k-point   5 :   0.0000 0.1667 0.0000  plane waves:    2931
 k-point   6 :   0.1667 0.1667 0.0000  plane waves:    2940
 k-point   7 :  -0.1667 0.1667 0.0000  plane waves:    2940
 k-point   8 :   0.3333 0.1667 0.0000  plane waves:    2935
 k-point   9 :  -0.3333 0.1667 0.0000  plane waves:    2935
 k-point  10 :   0.5000 0.1667 0.0000  plane waves:    2944
 k-point  11 :   0.0000 0.3333 0.0000  plane waves:    2954
 k-point  12 :   0.1667 0.3333 0.0000  plane waves:    2957
 k-point  13 :  -0.1667 0.3333 0.0000  plane waves:    2957
 k-point  14 :   0.3333 0.3333 0.0000  plane waves:    2951
 k-point  15 :  -0.3333 0.3333 0.0000  plane waves:    2951
 k-point  16 :   0.5000 0.3333 0.0000  plane waves:    2962
 k-point  17 :   0.0000 0.5000 0.0000  plane waves:    2948
 k-point  18 :   0.1667 0.5000 0.0000  plane waves:    2954
 k-point  19 :   0.3333 0.5000 0.0000  plane waves:    2982
 k-point  20 :   0.5000 0.5000 0.0000  plane waves:    2944
 k-point  21 :   0.0000 0.0000 0.5000  plane waves:    2930
 k-point  22 :   0.1667 0.0000 0.5000  plane waves:    2948
 k-point  23 :   0.3333 0.0000 0.5000  plane waves:    2960
 k-point  24 :   0.5000 0.0000 0.5000  plane waves:    2976
 k-point  25 :   0.0000 0.1667 0.5000  plane waves:    2926
 k-point  26 :   0.1667 0.1667 0.5000  plane waves:    2932
 k-point  27 :  -0.1667 0.1667 0.5000  plane waves:    2932
 k-point  28 :   0.3333 0.1667 0.5000  plane waves:    2960
 k-point  29 :  -0.3333 0.1667 0.5000  plane waves:    2960
 k-point  30 :   0.5000 0.1667 0.5000  plane waves:    2960
 k-point  31 :   0.0000 0.3333 0.5000  plane waves:    2936
 k-point  32 :   0.1667 0.3333 0.5000  plane waves:    2954
 k-point  33 :  -0.1667 0.3333 0.5000  plane waves:    2954
 k-point  34 :   0.3333 0.3333 0.5000  plane waves:    2954
 k-point  35 :  -0.3333 0.3333 0.5000  plane waves:    2954
 k-point  36 :   0.5000 0.3333 0.5000  plane waves:    2956
 k-point  37 :   0.0000 0.5000 0.5000  plane waves:    2968
 k-point  38 :   0.1667 0.5000 0.5000  plane waves:    2956
 k-point  39 :   0.3333 0.5000 0.5000  plane waves:    2944
 k-point  40 :   0.5000 0.5000 0.5000  plane waves:    2944

 maximum and minimum number of plane-waves per node :       764      714

 maximum number of plane-waves:      2982
 maximum index in each direction: 
   IXMAX=    7   IYMAX=    5   IZMAX=   17
   IXMIN=   -7   IYMIN=   -6   IZMIN=  -17


 parallel 3D FFT for wavefunctions:
    minimum data exchange during FFTs selected (reduces bandwidth)
 parallel 3D FFT for charge:
    minimum data exchange during FFTs selected (reduces bandwidth)


 total amount of memory used by VASP MPI-rank0    38146. kBytes
=======================================================================

   base      :      30000. kBytes
   nonl-proj :       6352. kBytes
   fftplans  :        320. kBytes
   grid      :        455. kBytes
   one-center:         16. kBytes
   wavefun   :       1003. kBytes
 
     INWAV:  cpu time      0.0000: real time      0.0001
 Broyden mixing: mesh for mixing (old mesh)
   NGX = 15   NGY = 11   NGZ = 35
  (NGX  = 48   NGY  = 36   NGZ  =108)
  gives a total of   5775 points

 initial charge density was supplied:
 charge density of overlapping atoms calculated
 number of electron      40.0000000 magnetization 
 keeping initial charge density in first step


--------------------------------------------------------------------------------------------------------


 Maximum index for augmentation-charges           343 (set IRDMAX)


--------------------------------------------------------------------------------------------------------


 First call to EWALD:  gamma=   0.308
 Maximum number of real-space cells 3x 4x 2
 Maximum number of reciprocal cells 2x 2x 5

    FEWALD:  cpu time      0.0009: real time      0.0009


--------------------------------------- Ionic step        1  -------------------------------------------




--------------------------------------- Iteration      1(   1)  ---------------------------------------


    POTLOK:  cpu time      0.0058: real time      0.0061
    SETDIJ:  cpu time      0.1380: real time      0.1386
     EDDAV:  cpu time      0.2780: real time      0.2807
       DOS:  cpu time      0.0010: real time      0.0010
    --------------------------------------------
      LOOP:  cpu time      0.4228: real time      0.4263

 eigenvalue-minimisations  :  2560
 total energy-change (2. order) : 0.1301476E+03  (-0.1289846E+04)
 number of electron      40.0000000 magnetization 
 augmentation part       40.0000000 magnetization 

 Free energy of the ion-electron system (eV)
  ---------------------------------------------------
  alpha Z        PSCENC =        89.12774674
  Ewald energy   TEWEN  =     -1427.98298216
  -Hartree energ DENC   =      -125.51636724
  -exchange      EXHF   =         0.00000000
  -V(xc)+E(xc)   XCENC  =       -33.16282445
  PAW double counting   =      1193.78262552    -1080.73714043
  entropy T*S    EENTRO =        -0.00272417
  eigenvalues    EBANDS =        66.15463524
  atomic energy  EATOM  =      1448.48460880
  Solvation  Ediel_sol  =         0.00000000
  ---------------------------------------------------
  free energy    TOTEN  =       130.14757783 eV

  energy without entropy =      130.15030201  energy(sigma->0) =      130.14893992


--------------------------------------------------------------------------------------------------------




--------------------------------------- Iteration      1(   2)  ---------------------------------------


     EDDAV:  cpu time      0.3259: real time      0.3291
       DOS:  cpu time      0.0007: real time      0.0007
    --------------------------------------------
      LOOP:  cpu time      0.3266: real time      0.3298

 eigenvalue-minimisations  :  3776
 total energy-change (2. order) :-0.1559234E+03  (-0.1514045E+03)
 number of electron      40.0000000 magnetization 
 augmentation part       40.0000000 magnetization 

 Free energy of the ion-electron system (eV)
  ---------------------------------------------------
  alpha Z        PSCENC =        89.12774674
  Ewald energy   TEWEN  =     -1427.98298216
  -Hartree energ DENC   =      -125.51636724
  -exchange      EXHF   =         0.00000000
  -V(xc)+E(xc)   XCENC  =       -33.16282445
  PAW double counting   =      1193.78262552    -1080.73714043
  entropy T*S    EENTRO =        -0.00000000
  eigenvalues    EBANDS =       -89.77151338
  atomic energy  EATOM  =      1448.48460880
  Solvation  Ediel_sol  =         0.00000000
  ---------------------------------------------------
  free energy    TOTEN  =       -25.77584661 eV

  energy without entropy =      -25.77584661  energy(sigma->0) =      -25.77584661


--------------------------------------------------------------------------------------------------------




--------------------------------------- Iteration      1(   3)  ---------------------------------------


     EDDAV:  cpu time      0.2957: real time      0.2990
       DOS:  cpu time      0.0005: real time      0.0005
    --------------------------------------------
      LOOP:  cpu time      0.2963: real time      0.2996

 eigenvalue-minimisations  :  3216
 total energy-change (2. order) :-0.8298270E+01  (-0.8282961E+01)
 number of electron      40.0000000 magnetization 
 augmentation part       40.0000000 magnetization 

 Free energy of the ion-electron system (eV)
  ---------------------------------------------------
  alpha Z        PSCENC =        89.12774674
  Ewald energy   TEWEN  =     -1427.98298216
  -Hartree energ DENC   =      -125.51636724
  -exchange      EXHF   =         0.00000000
  -V(xc)+E(xc)   XCENC  =       -33.16282445
  PAW double counting   =      1193.78262552    -1080.73714043
  entropy T*S    EENTRO =        -0.00000000
  eigenvalues    EBANDS =       -98.06978374
  atomic energy  EATOM  =      1448.48460880
  Solvation  Ediel_sol  =         0.00000000
  ---------------------------------------------------
  free energy    TOTEN  =       -34.07411697 eV

  energy without entropy =      -34.07411697  energy(sigma->0) =      -34.07411697


--------------------------------------------------------------------------------------------------------




--------------------------------------- Iteration      1(   4)  ---------------------------------------


     EDDAV:  cpu time      0.3016: real time      0.3047
       DOS:  cpu time      0.0005: real time      0.0006
    --------------------------------------------
      LOOP:  cpu time      0.3022: real time      0.3053

 eigenvalue-minimisations  :  3232
 total energy-change (2. order) :-0.5397677E-01  (-0.5396918E-01)
 number of electron      40.0000000 magnetization 
 augmentation part       40.0000000 magnetization 

 Free energy of the ion-electron system (eV)
  ---------------------------------------------------
  alpha Z        PSCENC =        89.12774674
  Ewald energy   TEWEN  =     -1427.98298216
  -Hartree energ DENC   =      -125.51636724
  -exchange      EXHF   =         0.00000000
  -V(xc)+E(xc)   XCENC  =       -33.16282445
  PAW double counting   =      1193.78262552    -1080.73714043
  entropy T*S    EENTRO =        -0.00000000
  eigenvalues    EBANDS =       -98.12376051
  atomic energy  EATOM  =      1448.48460880
  Solvation  Ediel_sol  =         0.00000000
  ---------------------------------------------------
  free energy    TOTEN  =       -34.12809374 eV

  energy without entropy =      -34.12809374  energy(sigma->0) =      -34.12809374


--------------------------------------------------------------------------------------------------------




--------------------------------------- Iteration      1(   5)  ---------------------------------------


     EDDAV:  cpu time      0.2957: real time      0.2988
       DOS:  cpu time      0.0006: real time      0.0006
    CHARGE:  cpu time      0.0040: real time      0.0040
    MIXING:  cpu time      0.0008: real time      0.0008
    --------------------------------------------
      LOOP:  cpu time      0.3010: real time      0.3041

 eigenvalue-minimisations  :  3168
 total energy-change (2. order) :-0.3218859E-03  (-0.3218830E-03)
 number of electron      39.9999978 magnetization 
 augmentation part       -7.3977473 magnetization 

 Broyden mixing:
  rms(total) = 0.66195E+00    rms(broyden)= 0.66194E+00
  rms(prec ) = 0.73979E+00
  weight for this iteration     100.00

 Free energy of the ion-electron system (eV)
  ---------------------------------------------------
  alpha Z        PSCENC =        89.12774674
  Ewald energy   TEWEN  =     -1427.98298216
  -Hartree energ DENC   =      -125.51636724
  -exchange      EXHF   =         0.00000000
  -V(xc)+E(xc)   XCENC  =       -33.16282445
  PAW double counting   =      1193.78262552    -1080.73714043
  entropy T*S    EENTRO =        -0.00000000
  eigenvalues    EBANDS =       -98.12408240
  atomic energy  EATOM  =      1448.48460880
  Solvation  Ediel_sol  =         0.00000000
  ---------------------------------------------------
  free energy    TOTEN  =       -34.12841563 eV

  energy without entropy =      -34.12841563  energy(sigma->0) =      -34.12841563


--------------------------------------------------------------------------------------------------------




--------------------------------------- Iteration      1(   6)  ---------------------------------------


    POTLOK:  cpu time      0.0054: real time      0.0056
    SETDIJ:  cpu time      0.1382: real time      0.1389
     EDDAV:  cpu time      0.2889: real time      0.2956
       DOS:  cpu time      0.0006: real time      0.0006
    CHARGE:  cpu time      0.0039: real time      0.0039
    MIXING:  cpu time      0.0010: real time      0.0010
    --------------------------------------------
      LOOP:  cpu time      0.4380: real time      0.4457

 eigenvalue-minimisations  :  3104
 total energy-change (2. order) : 0.3552094E+00  (-0.7018344E-01)
 number of electron      39.9999978 magnetization 
 augmentation part       -7.3442077 magnetization 

 Broyden mixing:
  rms(total) = 0.41710E+00    rms(broyden)= 0.41710E+00
  rms(prec ) = 0.43863E+00
  weight for this iteration     100.00

 eigenvalues of (default mixing * dielectric matrix)
  average eigenvalue GAMMA=   2.2599
  2.2599

 Free energy of the ion-electron system (eV)
  ---------------------------------------------------
  alpha Z        PSCENC =        89.12774674
  Ewald energy   TEWEN  =     -1427.98298216
  -Hartree energ DENC   =      -131.13763292
  -exchange      EXHF   =         0.00000000
  -V(xc)+E(xc)   XCENC  =       -32.56431434
  PAW double counting   =      1466.95634450    -1354.24394328
  entropy T*S    EENTRO =        -0.00000000
  eigenvalues    EBANDS =       -92.41303354
  atomic energy  EATOM  =      1448.48460880
  Solvation  Ediel_sol  =         0.00000000
  ---------------------------------------------------
  free energy    TOTEN  =       -33.77320621 eV

  energy without entropy =      -33.77320621  energy(sigma->0) =      -33.77320621


--------------------------------------------------------------------------------------------------------




--------------------------------------- Iteration      1(   7)  ---------------------------------------


    POTLOK:  cpu time      0.0056: real time      0.0059
    SETDIJ:  cpu time      0.1393: real time      0.1401
     EDDAV:  cpu time      0.2756: real time      0.2787
       DOS:  cpu time      0.0006: real time      0.0006
    CHARGE:  cpu time      0.0068: real time      0.0069
    MIXING:  cpu time      0.0005: real time      0.0005
    --------------------------------------------
      LOOP:  cpu time      0.4284: real time      0.4325

 eigenvalue-minimisations  :  2960
 total energy-change (2. order) : 0.1450481E-01  (-0.2286074E-01)
 number of electron      39.9999978 magnetization 
 augmentation part       -7.3296594 magnetization 

 Broyden mixing:
  rms(total) = 0.12219E+00    rms(broyden)= 0.12219E+00
  rms(prec ) = 0.13073E+00
  weight for this iteration     100.00

 eigenvalues of (default mixing * dielectric matrix)
  average eigenvalue GAMMA=   1.7964
  1.1990  2.3937

 Free energy of the ion-electron system (eV)
  ---------------------------------------------------
  alpha Z        PSCENC =        89.12774674
  Ewald energy   TEWEN  =     -1427.98298216
  -Hartree energ DENC   =      -133.87788094
  -exchange      EXHF   =         0.00000000
  -V(xc)+E(xc)   XCENC  =       -32.06023615
  PAW double counting   =      1821.05604989    -1708.61339948
  entropy T*S    EENTRO =        -0.00000000
  eigenvalues    EBANDS =       -89.89260810
  atomic energy  EATOM  =      1448.48460880
  Solvation  Ediel_sol  =         0.00000000
  ---------------------------------------------------
  free energy    TOTEN  =       -33.75870140 eV

  energy without entropy =      -33.75870140  energy(sigma->0) =      -33.75870140


--------------------------------------------------------------------------------------------------------




--------------------------------------- Iteration      1(   8)  ---------------------------------------


    POTLOK:  cpu time      0.0051: real time      0.0053
    SETDIJ:  cpu time      0.1376: real time      0.1383
     EDDAV:  cpu time      0.2661: real time      0.2689
       DOS:  cpu time      0.0006: real time      0.0006
    CHARGE:  cpu time      0.0036: real time      0.0036
    MIXING:  cpu time      0.0005: real time      0.0005
    --------------------------------------------
      LOOP:  cpu time      0.4135: real time      0.4173

 eigenvalue-minimisations  :  2912
 total energy-change (2. order) : 0.2000898E-02  (-0.2242270E-02)
 number of electron      39.9999978 magnetization 
 augmentation part       -7.3377926 magnetization 

 Broyden mixing:
  rms(total) = 0.18358E-01    rms(broyden)= 0.18358E-01
  rms(prec ) = 0.21862E-01
  weight for this iteration     100.00

 eigenvalues of (default mixing * dielectric matrix)
  average eigenvalue GAMMA=   1.7147
  2.5264  1.3088  1.3088

 Free energy of the ion-electron system (eV)
  ---------------------------------------------------
  alpha Z        PSCENC =        89.12774674
  Ewald energy   TEWEN  =     -1427.98298216
  -Hartree energ DENC   =      -133.90022985
  -exchange      EXHF   =         0.00000000
  -V(xc)+E(xc)   XCENC  =       -31.93217960
  PAW double counting   =      1953.13991124    -1840.75731955
  entropy T*S    EENTRO =        -0.00000000
  eigenvalues    EBANDS =       -89.93625612
  atomic energy  EATOM  =      1448.48460880
  Solvation  Ediel_sol  =         0.00000000
  ---------------------------------------------------
  free energy    TOTEN  =       -33.75670050 eV

  energy without entropy =      -33.75670050  energy(sigma->0) =      -33.75670050


--------------------------------------------------------------------------------------------------------




--------------------------------------- Iteration      1(   9)  ---------------------------------------


    POTLOK:  cpu time      0.0051: real time      0.0053
    SETDIJ:  cpu time      0.1379: real time      0.1387
     EDDAV:  cpu time      0.2968: real time      0.2996
       DOS:  cpu time      0.0006: real time      0.0006
    CHARGE:  cpu time      0.0036: real time      0.0036
    MIXING:  cpu time      0.0005: real time      0.0005
    --------------------------------------------
      LOOP:  cpu time      0.4444: real time      0.4483

 eigenvalue-minimisations  :  3232
 total energy-change (2. order) :-0.2821404E-03  (-0.3464693E-03)
 number of electron      39.9999978 magnetization 
 augmentation part       -7.3362597 magnetization 

 Broyden mixing:
  rms(total) = 0.64641E-02    rms(broyden)= 0.64641E-02
  rms(prec ) = 0.70836E-02
  weight for this iteration     100.00

 eigenvalues of (default mixing * dielectric matrix)
  average eigenvalue GAMMA=   1.7001
  2.2262  2.2262  1.1741  1.1741

 Free energy of the ion-electron system (eV)
  ---------------------------------------------------
  alpha Z        PSCENC =        89.12774674
  Ewald energy   TEWEN  =     -1427.98298216
  -Hartree energ DENC   =      -134.22120357
  -exchange      EXHF   =         0.00000000
  -V(xc)+E(xc)   XCENC  =       -31.89296679
  PAW double counting   =      1968.63512852    -1856.26272590
  entropy T*S    EENTRO =        -0.00000000
  eigenvalues    EBANDS =       -89.64458829
  atomic energy  EATOM  =      1448.48460880
  Solvation  Ediel_sol  =         0.00000000
  ---------------------------------------------------
  free energy    TOTEN  =       -33.75698264 eV

  energy without entropy =      -33.75698264  energy(sigma->0) =      -33.75698264


--------------------------------------------------------------------------------------------------------




--------------------------------------- Iteration      1(  10)  ---------------------------------------


    POTLOK:  cpu time      0.0050: real time      0.0052
    SETDIJ:  cpu time      0.1376: real time      0.1382
     EDDAV:  cpu time      0.2619: real time      0.2632
       DOS:  cpu time      0.0003: real time      0.0003
    CHARGE:  cpu time      0.0029: real time      0.0029
    MIXING:  cpu time      0.0003: real time      0.0003
    --------------------------------------------
      LOOP:  cpu time      0.4079: real time      0.4102

 eigenvalue-minimisations  :  3120
 total energy-change (2. order) :-0.6394020E-04  (-0.2084611E-04)
 number of electron      39.9999978 magnetization 
 augmentation part       -7.3362097 magnetization 

 Broyden mixing:
  rms(total) = 0.24120E-02    rms(broyden)= 0.24119E-02
  rms(prec ) = 0.29147E-02
  weight for this iteration     100.00

 eigenvalues of (default mixing * dielectric matrix)
  average eigenvalue GAMMA=   1.7448
  2.6908  2.3616  1.1504  1.2607  1.2607

 Free energy of the ion-electron system (eV)
  ---------------------------------------------------
  alpha Z        PSCENC =        89.12774674
  Ewald energy   TEWEN  =     -1427.98298216
  -Hartree energ DENC   =      -134.23852024
  -exchange      EXHF   =         0.00000000
  -V(xc)+E(xc)   XCENC  =       -31.89181340
  PAW double counting   =      1961.90354689    -1849.52606272
  entropy T*S    EENTRO =        -0.00000000
  eigenvalues    EBANDS =       -89.63357050
  atomic energy  EATOM  =      1448.48460880
  Solvation  Ediel_sol  =         0.00000000
  ---------------------------------------------------
  free energy    TOTEN  =       -33.75704658 eV

  energy without entropy =      -33.75704658  energy(sigma->0) =      -33.75704658


--------------------------------------------------------------------------------------------------------




--------------------------------------- Iteration      1(  11)  ---------------------------------------


    POTLOK:  cpu time      0.0034: real time      0.0035
    SETDIJ:  cpu time      0.1370: real time      0.1375
     EDDAV:  cpu time      0.1828: real time      0.1837
       DOS:  cpu time      0.0003: real time      0.0003
    CHARGE:  cpu time      0.0028: real time      0.0029
    MIXING:  cpu time      0.0003: real time      0.0003
    --------------------------------------------
      LOOP:  cpu time      0.3266: real time      0.3283

 eigenvalue-minimisations  :  2928
 total energy-change (2. order) :-0.2717379E-04  (-0.3657873E-05)
 number of electron      39.9999978 magnetization 
 augmentation part       -7.3364201 magnetization 

 Broyden mixing:
  rms(total) = 0.12103E-02    rms(broyden)= 0.12103E-02
  rms(prec ) = 0.13208E-02
  weight for this iteration     100.00

 eigenvalues of (default mixing * dielectric matrix)
  average eigenvalue GAMMA=   1.6991
  2.5279  2.1993  2.1993  1.1924  1.1924  0.8833

 Free energy of the ion-electron system (eV)
  ---------------------------------------------------
  alpha Z        PSCENC =        89.12774674
  Ewald energy   TEWEN  =     -1427.98298216
  -Hartree energ DENC   =      -134.26265089
  -exchange      EXHF   =         0.00000000
  -V(xc)+E(xc)   XCENC  =       -31.88529533
  PAW double counting   =      1963.43644758    -1851.05930610
  entropy T*S    EENTRO =        -0.00000000
  eigenvalues    EBANDS =       -89.61564239
  atomic energy  EATOM  =      1448.48460880
  Solvation  Ediel_sol  =         0.00000000
  ---------------------------------------------------
  free energy    TOTEN  =       -33.75707376 eV

  energy without entropy =      -33.75707376  energy(sigma->0) =      -33.75707376


--------------------------------------------------------------------------------------------------------




--------------------------------------- Iteration      1(  12)  ---------------------------------------


    POTLOK:  cpu time      0.0034: real time      0.0036
    SETDIJ:  cpu time      0.1359: real time      0.1363
     EDDAV:  cpu time      0.2079: real time      0.2089
       DOS:  cpu time      0.0003: real time      0.0003
    --------------------------------------------
      LOOP:  cpu time      0.3476: real time      0.3491

 eigenvalue-minimisations  :  3344
 total energy-change (2. order) :-0.1192125E-06  (-0.4388639E-06)
 number of electron      39.9999978 magnetization 
 augmentation part       -7.3364201 magnetization 

 Free energy of the ion-electron system (eV)
  ---------------------------------------------------
  alpha Z        PSCENC =        89.12774674
  Ewald energy   TEWEN  =     -1427.98298216
  -Hartree energ DENC   =      -134.27478357
  -exchange      EXHF   =         0.00000000
  -V(xc)+E(xc)   XCENC  =       -31.88448037
  PAW double counting   =      1962.70155967    -1850.32423281
  entropy T*S    EENTRO =        -0.00000000
  eigenvalues    EBANDS =       -89.60451018
  atomic energy  EATOM  =      1448.48460880
  Solvation  Ediel_sol  =         0.00000000
  ---------------------------------------------------
  free energy    TOTEN  =       -33.75707388 eV

  energy without entropy =      -33.75707388  energy(sigma->0) =      -33.75707388


--------------------------------------------------------------------------------------------------------




 average (electrostatic) potential at core
  the test charge radii are     1.1631  1.0808
  (the norm of the test charge is              1.0000)
       1 -33.3066       2 -33.3066       3 -33.3066       4 -33.3066       5 -54.8355
       6 -54.8355       7 -54.8355       8 -54.8355
 
 
 
 E-fermi :   3.7571     XC(G=0):  -9.3799     alpha+bet : -8.8791

 Fermi energy:         3.7570851910

 k-point     1 :       0.0000    0.0000    0.0000
  band No.  band energies     occupation 
      1     -10.9419      2.00000
      2     -10.6308      2.00000
      3      -9.6489      2.00000
      4      -9.1716      2.00000
      5      -4.6258      2.00000
      6      -4.0461      2.00000
      7      -2.5642      2.00000
      8      -1.9924      2.00000
      9      -1.7533      2.00000
     10      -0.4290      2.00000
     11      -0.2374      2.00000
     12      -0.1035      2.00000
     13       0.5084      2.00000
     14       0.8717      2.00000
     15       1.4411      2.00000
     16       1.7058      2.00000
     17       2.2361      2.00000
     18       2.2821      2.00000
     19       2.5434      2.00000
     20       3.5303      2.00000
     21       4.0216      0.00000
     22       5.8844      0.00000
     23       6.2805      0.00000
     24       6.2878      0.00000
     25       6.5298      0.00000
     26       6.6660      0.00000
     27       7.0783      0.00000
     28       7.7367      0.00000
     29       8.4321      0.00000
     30       8.7349      0.00000
     31       8.9490      0.00000
     32       9.3700      0.00000

 k-point     2 :       0.1667    0.0000    0.0000
  band No.  band energies     occupation 
      1     -10.8247      2.00000
      2     -10.5210      2.00000
      3      -9.6601      2.00000
      4      -9.2311      2.00000
      5      -4.9729      2.00000
      6      -4.1880      2.00000
      7      -3.2841      2.00000
      8      -2.5520      2.00000
      9      -1.5739      2.00000
     10      -0.0501      2.00000
     11       0.4445      2.00000
     12       0.4952      2.00000
     13       0.6469      2.00000
     14       0.9963      2.00000
     15       1.7458      2.00000
     16       1.9337      2.00000
     17       2.0791      2.00000
     18       2.2178      2.00000
     19       2.7189      2.00000
     20       3.3252      2.00000
     21       4.1869      0.00000
     22       5.6194      0.00000
     23       6.1917      0.00000
     24       6.2297      0.00000
     25       6.3421      0.00000
     26       6.6175      0.00000
     27       7.0401      0.00000
     28       7.4028      0.00000
     29       7.8303      0.00000
     30       8.2061      0.00000
     31       8.8394      0.00000
     32       8.8806      0.00000

 k-point     3 :       0.3333    0.0000    0.0000
  band No.  band energies     occupation 
      1     -10.5036      2.00000
      2     -10.2196      2.00000
      3      -9.7716      2.00000
      4      -9.4463      2.00000
      5      -5.3456      2.00000
      6      -4.3984      2.00000
      7      -4.3627      2.00000
      8      -3.4327      2.00000
      9      -1.1096      2.00000
     10       0.4297      2.00000
     11       1.0248      2.00000
     12       1.2859      2.00000
     13       1.3294      2.00000
     14       1.4125      2.00000
     15       1.7560      2.00000
     16       1.8162      2.00000
     17       2.0760      2.00000
     18       2.8949      2.00000
     19       2.9977      2.00000
     20       3.4073      2.00000
     21       4.7167      0.00000
     22       4.7913      0.00000
     23       5.2109      0.00000
     24       5.8912      0.00000
     25       6.0202      0.00000
     26       6.4637      0.00000
     27       6.7768      0.00000
     28       6.9527      0.00000
     29       7.0156      0.00000
     30       7.8375      0.00000
     31       7.9717      0.00000
     32       9.2158      0.00000

 k-point     4 :       0.5000    0.0000    0.0000
  band No.  band energies     occupation 
      1     -10.0877      2.00000
      2     -10.0877      2.00000
      3      -9.8154      2.00000
      4      -9.8154      2.00000
      5      -5.1653      2.00000
      6      -5.1653      2.00000
      7      -4.1234      2.00000
      8      -4.1234      2.00000
      9      -0.3445      2.00000
     10      -0.3445      2.00000
     11       1.4950      2.00000
     12       1.4950      2.00000
     13       1.7418      2.00000
     14       1.7418      2.00000
     15       1.9194      2.00000
     16       1.9194      2.00000
     17       2.5481      2.00000
     18       2.5481      2.00000
     19       3.1937      2.00000
     20       3.1937      2.00000
     21       4.9743      0.00000
     22       4.9743      0.00000
     23       5.4674      0.00000
     24       5.4674      0.00000
     25       5.9238      0.00000
     26       5.9238      0.00000
     27       6.0502      0.00000
     28       6.0502      0.00000
     29       7.0843      0.00000
     30       7.0843      0.00000
     31       8.9626      0.00000
     32       8.9626      0.00000

 k-point     5 :       0.0000    0.1667    0.0000
  band No.  band energies     occupation 
      1     -10.7349      2.00000
      2     -10.4383      2.00000
      3      -9.5130      2.00000
      4      -9.0922      2.00000
      5      -4.7870      2.00000
      6      -4.2744      2.00000
      7      -2.7853      2.00000
      8      -2.6236      2.00000
      9      -1.5755      2.00000
     10      -0.1951      2.00000
     11      -0.1833      2.00000
     12      -0.0548      2.00000
     13       0.3416      2.00000
     14       0.3607      2.00000
     15       1.4812      2.00000
     16       1.5029      2.00000
     17       1.6962      2.00000
     18       2.5771      2.00000
     19       2.5945      2.00000
     20       3.2711      2.00000
     21       4.2298      0.00000
     22       5.5068      0.00000
     23       6.0989      0.00000
     24       6.2084      0.00000
     25       6.8118      0.00000
     26       7.0601      0.00000
     27       7.2731      0.00000
     28       7.2929      0.00000
     29       7.5961      0.00000
     30       8.4985      0.00000
     31       8.5365      0.00000
     32       8.6108      0.00000

 k-point     6 :       0.1667    0.1667    0.0000
  band No.  band energies     occupation 
      1     -10.6227      2.00000
      2     -10.3342      2.00000
      3      -9.5258      2.00000
      4      -9.1456      2.00000
      5      -5.0019      2.00000
      6      -4.2944      2.00000
      7      -3.3486      2.00000
      8      -2.8699      2.00000
      9      -1.4081      2.00000
     10      -0.6617      2.00000
     11      -0.3838      2.00000
     12       0.2604      2.00000
     13       0.8991      2.00000
     14       1.0466      2.00000
     15       1.2547      2.00000
     16       1.4516      2.00000
     17       2.1799      2.00000
     18       2.2539      2.00000
     19       2.8212      2.00000
     20       3.1899      2.00000
     21       4.3789      0.00000
     22       5.3747      0.00000
     23       5.7347      0.00000
     24       5.9021      0.00000
     25       6.5411      0.00000
     26       6.9004      0.00000
     27       7.3849      0.00000
     28       7.5144      0.00000
     29       7.9428      0.00000
     30       8.0520      0.00000
     31       8.2801      0.00000
     32       9.0582      0.00000

 k-point     7 :      -0.1667    0.1667    0.0000
  band No.  band energies     occupation 
      1     -10.6227      2.00000
      2     -10.3342      2.00000
      3      -9.5258      2.00000
      4      -9.1456      2.00000
      5      -5.0019      2.00000
      6      -4.2944      2.00000
      7      -3.3486      2.00000
      8      -2.8699      2.00000
      9      -1.4081      2.00000
     10      -0.6617      2.00000
     11      -0.3838      2.00000
     12       0.2604      2.00000
     13       0.8991      2.00000
     14       1.0466      2.00000
     15       1.2547      2.00000
     16       1.4516      2.00000
     17       2.1799      2.00000
     18       2.2539      2.00000
     19       2.8212      2.00000
     20       3.1899      2.00000
     21       4.3789      0.00000
     22       5.3747      0.00000
     23       5.7347      0.00000
     24       5.9021      0.00000
     25       6.5411      0.00000
     26       6.9004      0.00000
     27       7.3849      0.00000
     28       7.5144      0.00000
     29       7.9428      0.00000
     30       8.0520      0.00000
     31       8.2801      0.00000
     32       9.0582      0.00000

 k-point     8 :       0.3333    0.1667    0.0000
  band No.  band energies     occupation 
      1     -10.3178      2.00000
      2     -10.0503      2.00000
      3      -9.6334      2.00000
      4      -9.3386      2.00000
      5      -5.2324      2.00000
      6      -4.3071      2.00000
      7      -4.3024      2.00000
      8      -3.4806      2.00000
      9      -0.9264      2.00000
     10      -0.6168      2.00000
     11      -0.3060      2.00000
     12       0.4634      2.00000
     13       0.5911      2.00000
     14       0.9921      2.00000
     15       1.4220      2.00000
     16       1.9919      2.00000
     17       2.3469      2.00000
     18       2.4151      2.00000
     19       2.8522      2.00000
     20       3.0095      2.00000
     21       4.6843      0.00000
     22       5.4122      0.00000
     23       5.8704      0.00000
     24       6.0270      0.00000
     25       6.2141      0.00000
     26       6.5133      0.00000
     27       7.0957      0.00000
     28       7.8359      0.00000
     29       7.8705      0.00000
     30       8.0480      0.00000
     31       8.4549      0.00000
     32       9.0552      0.00000

 k-point     9 :      -0.3333    0.1667    0.0000
  band No.  band energies     occupation 
      1     -10.3178      2.00000
      2     -10.0503      2.00000
      3      -9.6334      2.00000
      4      -9.3386      2.00000
      5      -5.2324      2.00000
      6      -4.3071      2.00000
      7      -4.3024      2.00000
      8      -3.4806      2.00000
      9      -0.9264      2.00000
     10      -0.6168      2.00000
     11      -0.3060      2.00000
     12       0.4634      2.00000
     13       0.5911      2.00000
     14       0.9921      2.00000
     15       1.4220      2.00000
     16       1.9919      2.00000
     17       2.3469      2.00000
     18       2.4151      2.00000
     19       2.8522      2.00000
     20       3.0095      2.00000
     21       4.6843      0.00000
     22       5.4122      0.00000
     23       5.8704      0.00000
     24       6.0270      0.00000
     25       6.2141      0.00000
     26       6.5133      0.00000
     27       7.0957      0.00000
     28       7.8359      0.00000
     29       7.8705      0.00000
     30       8.0480      0.00000
     31       8.4549      0.00000
     32       9.0552      0.00000

 k-point    10 :       0.5000    0.1667    0.0000
  band No.  band energies     occupation 
      1      -9.9278      2.00000
      2      -9.9278      2.00000
      3      -9.6749      2.00000
      4      -9.6749      2.00000
      5      -5.0160      2.00000
      6      -5.0160      2.00000
      7      -4.0502      2.00000
      8      -4.0501      2.00000
      9      -0.3605      2.00000
     10      -0.3605      2.00000
     11       0.0419      2.00000
     12       0.0419      2.00000
     13       0.3591      2.00000
     14       0.3591      2.00000
     15       1.7749      2.00000
     16       1.7749      2.00000
     17       2.5519      2.00000
     18       2.5519      2.00000
     19       2.9634      2.00000
     20       2.9634      2.00000
     21       4.9604      0.00000
     22       4.9604      0.00000
     23       6.1026      0.00000
     24       6.1026      0.00000
     25       6.7949      0.00000
     26       6.7949      0.00000
     27       7.2850      0.00000
     28       7.2850      0.00000
     29       7.7906      0.00000
     30       7.7906      0.00000
     31       8.7356      0.00000
     32       8.7356      0.00000

 k-point    11 :       0.0000    0.3333    0.0000
  band No.  band energies     occupation 
      1     -10.1665      2.00000
      2      -9.9283      2.00000
      3      -9.2653      2.00000
      4      -9.0493      2.00000
      5      -5.1657      2.00000
      6      -4.7206      2.00000
      7      -3.9768      2.00000
      8      -3.6254      2.00000
      9      -0.9605      2.00000
     10      -0.2032      2.00000
     11       0.0242      2.00000
     12       0.4047      2.00000
     13       0.5482      2.00000
     14       0.6836      2.00000
     15       1.1526      2.00000
     16       1.6150      2.00000
     17       1.7776      2.00000
     18       2.3736      2.00000
     19       2.4975      2.00000
     20       2.5829      2.00000
     21       4.2180      0.00000
     22       4.6567      0.00000
     23       4.8770      0.00000
     24       5.3631      0.00000
     25       5.5279      0.00000
     26       6.0661      0.00000
     27       6.1338      0.00000
     28       6.8679      0.00000
     29       7.1599      0.00000
     30       7.3601      0.00000
     31       7.8249      0.00000
     32       8.4556      0.00000

 k-point    12 :       0.1667    0.3333    0.0000
  band No.  band energies     occupation 
      1     -10.0743      2.00000
      2      -9.8460      2.00000
      3      -9.2729      2.00000
      4      -9.0705      2.00000
      5      -5.1343      2.00000
      6      -4.6171      2.00000
      7      -3.9933      2.00000
      8      -3.7476      2.00000
      9      -1.0301      2.00000
     10      -0.8440      2.00000
     11      -0.7031      2.00000
     12      -0.0374      2.00000
     13       0.7109      2.00000
     14       1.0650      2.00000
     15       1.1500      2.00000
     16       1.4090      2.00000
     17       1.5743      2.00000
     18       2.3126      2.00000
     19       2.3884      2.00000
     20       2.4182      2.00000
     21       4.3640      0.00000
     22       4.9715      0.00000
     23       5.1056      0.00000
     24       5.3923      0.00000
     25       6.0251      0.00000
     26       6.5560      0.00000
     27       7.0287      0.00000
     28       7.2943      0.00000
     29       7.5909      0.00000
     30       7.6128      0.00000
     31       8.3845      0.00000
     32       8.7159      0.00000

 k-point    13 :      -0.1667    0.3333    0.0000
  band No.  band energies     occupation 
      1     -10.0743      2.00000
      2      -9.8460      2.00000
      3      -9.2729      2.00000
      4      -9.0705      2.00000
      5      -5.1343      2.00000
      6      -4.6171      2.00000
      7      -3.9933      2.00000
      8      -3.7476      2.00000
      9      -1.0301      2.00000
     10      -0.8440      2.00000
     11      -0.7031      2.00000
     12      -0.0374      2.00000
     13       0.7109      2.00000
     14       1.0650      2.00000
     15       1.1500      2.00000
     16       1.4090      2.00000
     17       1.5743      2.00000
     18       2.3126      2.00000
     19       2.3884      2.00000
     20       2.4182      2.00000
     21       4.3640      0.00000
     22       4.9715      0.00000
     23       5.1056      0.00000
     24       5.3923      0.00000
     25       6.0251      0.00000
     26       6.5560      0.00000
     27       7.0287      0.00000
     28       7.2943      0.00000
     29       7.5909      0.00000
     30       7.6128      0.00000
     31       8.3845      0.00000
     32       8.7159      0.00000

 k-point    14 :       0.3333    0.3333    0.0000
  band No.  band energies     occupation 
      1      -9.8316      2.00000
      2      -9.6301      2.00000
      3      -9.3419      2.00000
      4      -9.1653      2.00000
      5      -5.0135      2.00000
      6      -4.3690      2.00000
      7      -4.2707      2.00000
      8      -3.9191      2.00000
      9      -1.5821      2.00000
     10      -1.1577      2.00000
     11      -0.8378      2.00000
     12      -0.4840      2.00000
     13      -0.1132      2.00000
     14       0.5388      2.00000
     15       0.7330      2.00000
     16       1.1647      2.00000
     17       1.4803      2.00000
     18       1.9155      2.00000
     19       2.2626      2.00000
     20       2.5056      2.00000
     21       4.4353      0.00000
     22       6.0450      0.00000
     23       6.4340      0.00000
     24       6.6013      0.00000
     25       6.6693      0.00000
     26       7.0751      0.00000
     27       7.5619      0.00000
     28       8.0970      0.00000
     29       8.4444      0.00000
     30       8.5407      0.00000
     31       8.6386      0.00000
     32       9.7923      0.00000

 k-point    15 :      -0.3333    0.3333    0.0000
  band No.  band energies     occupation 
      1      -9.8316      2.00000
      2      -9.6301      2.00000
      3      -9.3419      2.00000
      4      -9.1653      2.00000
      5      -5.0135      2.00000
      6      -4.3690      2.00000
      7      -4.2707      2.00000
      8      -3.9191      2.00000
      9      -1.5821      2.00000
     10      -1.1577      2.00000
     11      -0.8378      2.00000
     12      -0.4840      2.00000
     13      -0.1132      2.00000
     14       0.5388      2.00000
     15       0.7330      2.00000
     16       1.1647      2.00000
     17       1.4803      2.00000
     18       1.9155      2.00000
     19       2.2626      2.00000
     20       2.5056      2.00000
     21       4.4353      0.00000
     22       6.0450      0.00000
     23       6.4340      0.00000
     24       6.6013      0.00000
     25       6.6693      0.00000
     26       7.0751      0.00000
     27       7.5619      0.00000
     28       8.0970      0.00000
     29       8.4444      0.00000
     30       8.5407      0.00000
     31       8.6386      0.00000
     32       9.7854      0.00000

 k-point    16 :       0.5000    0.3333    0.0000
  band No.  band energies     occupation 
      1      -9.5424      2.00000
      2      -9.5424      2.00000
      3      -9.3681      2.00000
      4      -9.3681      2.00000
      5      -4.7207      2.00000
      6      -4.7207      2.00000
      7      -4.1047      2.00000
      8      -4.1047      2.00000
      9      -1.4574      2.00000
     10      -1.4574      2.00000
     11      -0.8972      2.00000
     12      -0.8972      2.00000
     13      -0.0004      2.00000
     14      -0.0004      2.00000
     15       0.8651      2.00000
     16       0.8651      2.00000
     17       1.3550      2.00000
     18       1.3550      2.00000
     19       2.3614      2.00000
     20       2.3614      2.00000
     21       5.4004      0.00000
     22       5.4004      0.00000
     23       7.2002      0.00000
     24       7.2002      0.00000
     25       7.7422      0.00000
     26       7.7422      0.00000
     27       8.1101      0.00000
     28       8.1101      0.00000
     29       8.5625      0.00000
     30       8.5625      0.00000
     31       9.5736      0.00000
     32       9.5737      0.00000

 k-point    17 :       0.0000    0.5000    0.0000
  band No.  band energies     occupation 
      1      -9.4541      2.00000
      2      -9.4541      2.00000
      3      -9.3776      2.00000
      4      -9.3776      2.00000
      5      -5.0333      2.00000
      6      -5.0333      2.00000
      7      -4.5408      2.00000
      8      -4.5408      2.00000
      9      -0.1735      2.00000
     10      -0.1735      2.00000
     11       0.4661      2.00000
     12       0.4661      2.00000
     13       0.8960      2.00000
     14       0.8960      2.00000
     15       1.4272      2.00000
     16       1.4272      2.00000
     17       1.8375      2.00000
     18       1.8375      2.00000
     19       2.1411      2.00000
     20       2.1411      2.00000
     21       4.4167      0.00000
     22       4.4167      0.00000
     23       4.6196      0.00000
     24       4.6196      0.00000
     25       5.3235      0.00000
     26       5.3235      0.00000
     27       5.7687      0.00000
     28       5.7687      0.00000
     29       6.7444      0.00000
     30       6.7444      0.00000
     31       7.9288      0.00000
     32       7.9288      0.00000

 k-point    18 :       0.1667    0.5000    0.0000
  band No.  band energies     occupation 
      1      -9.4098      2.00000
      2      -9.4098      2.00000
      3      -9.3426      2.00000
      4      -9.3426      2.00000
      5      -4.9293      2.00000
      6      -4.9293      2.00000
      7      -4.5017      2.00000
      8      -4.5017      2.00000
      9      -0.5172      2.00000
     10      -0.5172      2.00000
     11      -0.1266      2.00000
     12      -0.1266      2.00000
     13       0.4259      2.00000
     14       0.4259      2.00000
     15       0.9940      2.00000
     16       0.9940      2.00000
     17       1.6771      2.00000
     18       1.6771      2.00000
     19       2.4223      2.00000
     20       2.4223      2.00000
     21       4.3514      0.00000
     22       4.3514      0.00000
     23       5.3979      0.00000
     24       5.3979      0.00000
     25       6.3334      0.00000
     26       6.3334      0.00000
     27       6.7021      0.00000
     28       6.7021      0.00000
     29       7.3668      0.00000
     30       7.3668      0.00000
     31       7.6677      0.00000
     32       7.6677      0.00000

 k-point    19 :       0.3333    0.5000    0.0000
  band No.  band energies     occupation 
      1      -9.3142      2.00000
      2      -9.3142      2.00000
      3      -9.2729      2.00000
      4      -9.2729      2.00000
      5      -4.6834      2.00000
      6      -4.6834      2.00000
      7      -4.4395      2.00000
      8      -4.4395      2.00000
      9      -1.2478      2.00000
     10      -1.2478      2.00000
     11      -0.7850      2.00000
     12      -0.7850      2.00000
     13      -0.2228      2.00000
     14      -0.2228      2.00000
     15       0.4603      2.00000
     16       0.4603      2.00000
     17       1.3088      2.00000
     18       1.3088      2.00000
     19       2.1930      2.00000
     20       2.1930      2.00000
     21       5.4072      0.00000
     22       5.4072      0.00000
     23       6.7722      0.00000
     24       6.7722      0.00000
     25       7.3386      0.00000
     26       7.3386      0.00000
     27       7.6463      0.00000
     28       7.6463      0.00000
     29       8.0395      0.00000
     30       8.0395      0.00000
     31       9.2764      0.00000
     32       9.2764      0.00000

 k-point    20 :       0.5000    0.5000    0.0000
  band No.  band energies     occupation 
      1      -9.2576      2.00000
      2      -9.2576      2.00000
      3      -9.2429      2.00000
      4      -9.2429      2.00000
      5      -4.5150      2.00000
      6      -4.5150      2.00000
      7      -4.4395      2.00000
      8      -4.4395      2.00000
      9      -1.5167      2.00000
     10      -1.5167      2.00000
     11      -1.1369      2.00000
     12      -1.1369      2.00000
     13      -0.3737      2.00000
     14      -0.3737      2.00000
     15       0.0118      2.00000
     16       0.0118      2.00000
     17       1.4392      2.00000
     18       1.4392      2.00000
[...]
     32       7.6579      0.00000

 k-point    32 :       0.1667    0.3333    0.5000
  band No.  band energies     occupation 
      1      -9.9765      2.00000
      2      -9.9765      2.00000
      3      -9.1545      2.00000
      4      -9.1545      2.00000
      5      -4.9089      2.00000
      6      -4.9089      2.00000
      7      -3.8641      2.00000
      8      -3.8641      2.00000
      9      -0.9388      2.00000
     10      -0.9388      2.00000
     11      -0.1336      2.00000
     12      -0.1336      2.00000
     13       0.6054      2.00000
     14       0.6054      2.00000
     15       1.3559      2.00000
     16       1.3559      2.00000
     17       1.6328      2.00000
     18       1.6328      2.00000
     19       2.5467      2.00000
     20       2.5467      2.00000
     21       5.0925      0.00000
     22       5.0925      0.00000
     23       5.2637      0.00000
     24       5.2637      0.00000
     25       6.4111      0.00000
     26       6.4111      0.00000
     27       6.7723      0.00000
     28       6.7723      0.00000
     29       7.4803      0.00000
     30       7.4803      0.00000
     31       8.3336      0.00000
     32       8.3336      0.00000

 k-point    33 :      -0.1667    0.3333    0.5000
  band No.  band energies     occupation 
      1      -9.9765      2.00000
      2      -9.9765      2.00000
      3      -9.1545      2.00000
      4      -9.1545      2.00000
      5      -4.9089      2.00000
      6      -4.9089      2.00000
      7      -3.8641      2.00000
      8      -3.8641      2.00000
      9      -0.9388      2.00000
     10      -0.9388      2.00000
     11      -0.1336      2.00000
     12      -0.1336      2.00000
     13       0.6054      2.00000
     14       0.6054      2.00000
     15       1.3559      2.00000
     16       1.3559      2.00000
     17       1.6328      2.00000
     18       1.6328      2.00000
     19       2.5467      2.00000
     20       2.5467      2.00000
     21       5.0925      0.00000
     22       5.0925      0.00000
     23       5.2637      0.00000
     24       5.2637      0.00000
     25       6.4111      0.00000
     26       6.4111      0.00000
     27       6.7723      0.00000
     28       6.7723      0.00000
     29       7.4803      0.00000
     30       7.4803      0.00000
     31       8.3336      0.00000
     32       8.3336      0.00000

 k-point    34 :       0.3333    0.3333    0.5000
  band No.  band energies     occupation 
      1      -9.7495      2.00000
      2      -9.7495      2.00000
      3      -9.2353      2.00000
      4      -9.2353      2.00000
      5      -4.7699      2.00000
      6      -4.7699      2.00000
      7      -4.0341      2.00000
      8      -4.0341      2.00000
      9      -1.3892      2.00000
     10      -1.3892      2.00000
     11      -0.5997      2.00000
     12      -0.5997      2.00000
     13       0.2024      2.00000
     14       0.2024      2.00000
     15       0.9261      2.00000
     16       0.9261      2.00000
     17       1.6004      2.00000
     18       1.6004      2.00000
     19       2.3948      2.00000
     20       2.3948      2.00000
     21       5.6330      0.00000
     22       5.6330      0.00000
     23       6.2854      0.00000
     24       6.2854      0.00000
     25       6.5817      0.00000
     26       6.5817      0.00000
     27       7.7240      0.00000
     28       7.7240      0.00000
     29       8.1814      0.00000
     30       8.1814      0.00000
     31       9.6787      0.00000
     32       9.6787      0.00000

 k-point    35 :      -0.3333    0.3333    0.5000
  band No.  band energies     occupation 
      1      -9.7495      2.00000
      2      -9.7495      2.00000
      3      -9.2353      2.00000
      4      -9.2353      2.00000
      5      -4.7699      2.00000
      6      -4.7699      2.00000
      7      -4.0341      2.00000
      8      -4.0341      2.00000
      9      -1.3892      2.00000
     10      -1.3892      2.00000
     11      -0.5997      2.00000
     12      -0.5997      2.00000
     13       0.2024      2.00000
     14       0.2024      2.00000
     15       0.9261      2.00000
     16       0.9261      2.00000
     17       1.6004      2.00000
     18       1.6004      2.00000
     19       2.3948      2.00000
     20       2.3948      2.00000
     21       5.6330      0.00000
     22       5.6330      0.00000
     23       6.2854      0.00000
     24       6.2854      0.00000
     25       6.5817      0.00000
     26       6.5817      0.00000
     27       7.7240      0.00000
     28       7.7240      0.00000
     29       8.1814      0.00000
     30       8.1814      0.00000
     31       9.6787      0.00000
     32       9.6787      0.00000

 k-point    36 :       0.5000    0.3333    0.5000
  band No.  band energies     occupation 
      1      -9.5389      2.00000
      2      -9.5389      2.00000
      3      -9.3722      2.00000
      4      -9.3722      2.00000
      5      -4.6801      2.00000
      6      -4.6801      2.00000
      7      -4.1595      2.00000
      8      -4.1595      2.00000
      9      -1.2363      2.00000
     10      -1.2363      2.00000
     11      -1.2058      2.00000
     12      -1.2058      2.00000
     13       0.3725      2.00000
     14       0.3725      2.00000
     15       0.4670      2.00000
     16       0.4670      2.00000
     17       1.7657      2.00000
     18       1.7657      2.00000
     19       2.0143      2.00000
     20       2.0143      2.00000
     21       5.9173      0.00000
     22       5.9173      0.00000
     23       6.5843      0.00000
     24       6.5843      0.00000
     25       7.5637      0.00000
     26       7.5637      0.00000
     27       7.6285      0.00000
     28       7.6285      0.00000
     29       9.3177      0.00000
     30       9.3177      0.00000
     31       9.4029      0.00000
     32       9.4029      0.00000

 k-point    37 :       0.0000    0.5000    0.5000
  band No.  band energies     occupation 
      1      -9.4167      2.00000
      2      -9.4167      2.00000
      3      -9.4167      2.00000
      4      -9.4166      2.00000
      5      -4.8027      2.00000
      6      -4.8027      2.00000
      7      -4.8027      2.00000
      8      -4.8027      2.00000
      9       0.2380      2.00000
     10       0.2380      2.00000
     11       0.2380      2.00000
     12       0.2380      2.00000
     13       1.1573      2.00000
     14       1.1573      2.00000
     15       1.1573      2.00000
     16       1.1573      2.00000
     17       1.7789      2.00000
     18       1.7789      2.00000
     19       1.7789      2.00000
     20       1.7789      2.00000
     21       4.7973      0.00000
     22       4.7973      0.00000
     23       4.7973      0.00000
     24       4.7973      0.00000
     25       5.5047      0.00000
     26       5.5047      0.00000
     27       5.5047      0.00000
     28       5.5047      0.00000
     29       7.1133      0.00000
     30       7.1133      0.00000
     31       7.1133      0.00000
     32       7.1133      0.00000

 k-point    38 :       0.1667    0.5000    0.5000
  band No.  band energies     occupation 
      1      -9.3768      2.00000
      2      -9.3768      2.00000
      3      -9.3768      2.00000
      4      -9.3768      2.00000
      5      -4.7273      2.00000
      6      -4.7273      2.00000
      7      -4.7273      2.00000
      8      -4.7273      2.00000
      9      -0.3049      2.00000
     10      -0.3049      2.00000
     11      -0.3049      2.00000
     12      -0.3049      2.00000
     13       0.7560      2.00000
     14       0.7560      2.00000
     15       0.7560      2.00000
     16       0.7560      2.00000
     17       1.8628      2.00000
     18       1.8628      2.00000
     19       1.8628      2.00000
     20       1.8628      2.00000
     21       5.1496      0.00000
     22       5.1496      0.00000
     23       5.1496      0.00000
     24       5.1496      0.00000
     25       6.5366      0.00000
     26       6.5366      0.00000
     27       6.5366      0.00000
     28       6.5366      0.00000
     29       7.1905      0.00000
     30       7.1905      0.00000
     31       7.1905      0.00000
     32       7.1905      0.00000

 k-point    39 :       0.3333    0.5000    0.5000
  band No.  band energies     occupation 
      1      -9.2937      2.00000
      2      -9.2937      2.00000
      3      -9.2937      2.00000
      4      -9.2937      2.00000
      5      -4.5665      2.00000
      6      -4.5665      2.00000
      7      -4.5665      2.00000
      8      -4.5665      2.00000
      9      -0.9878      2.00000
     10      -0.9878      2.00000
     11      -0.9878      2.00000
     12      -0.9878      2.00000
     13      -0.0418      2.00000
     14      -0.0418      2.00000
     15      -0.0418      2.00000
     16      -0.0418      2.00000
     17       1.9165      2.00000
     18       1.9165      2.00000
     19       1.9165      2.00000
     20       1.9165      2.00000
     21       5.9910      0.00000
     22       5.9910      0.00000
     23       5.9910      0.00000
     24       5.9910      0.00000
     25       7.1314      0.00000
     26       7.1314      0.00000
     27       7.1314      0.00000
     28       7.1314      0.00000
     29       8.8598      0.00000
     30       8.8598      0.00000
     31       8.8598      0.00000
     32       8.8598      0.00000

 k-point    40 :       0.5000    0.5000    0.5000
  band No.  band energies     occupation 
      1      -9.2503      2.00000
      2      -9.2503      2.00000
      3      -9.2503      2.00000
      4      -9.2503      2.00000
      5      -4.4814      2.00000
      6      -4.4814      2.00000
      7      -4.4814      2.00000
      8      -4.4814      2.00000
      9      -1.1929      2.00000
     10      -1.1929      2.00000
     11      -1.1929      2.00000
     12      -1.1929      2.00000
     13      -0.4813      2.00000
     14      -0.4813      2.00000
     15      -0.4813      2.00000
     16      -0.4813      2.00000
     17       1.9798      2.00000
     18       1.9798      2.00000
     19       1.9798      2.00000
     20       1.9798      2.00000
     21       5.9013      0.00000
     22       5.9013      0.00000
     23       5.9013      0.00000
     24       5.9013      0.00000
     25       8.0859      0.00000
     26       8.0859      0.00000
     27       8.0859      0.00000
     28       8.0859      0.00000
     29       9.9339      0.00000
     30       9.9339      0.00000
     31       9.9339      0.00000
     32       9.9339      0.00000


--------------------------------------------------------------------------------------------------------


 soft charge-density along one line, spin component            1
         0         1         2         3         4         5         6         7         8         9
 total charge-density along one line
 
 pseudopotential strength for first ion, spin component:            1
 14.470  18.051  -0.000   0.046   0.042  -0.000   0.083   0.076
 18.051  22.534  -0.000   0.058   0.053  -0.000   0.105   0.096
 -0.000  -0.000   3.218   0.000   0.000   5.478   0.000   0.000
  0.046   0.058   0.000   3.215  -0.003   0.000   5.473  -0.005
  0.042   0.053   0.000  -0.003   3.216   0.000  -0.005   5.475
 -0.000  -0.000   5.478   0.000   0.000   9.382   0.000   0.000
  0.083   0.105   0.000   5.473  -0.005   0.000   9.372  -0.009
  0.076   0.096   0.000  -0.005   5.475   0.000  -0.009   9.376
  0.000   0.000   0.007   0.000   0.000   0.014   0.000   0.000
  0.000   0.000   0.012  -0.000   0.000   0.022  -0.000   0.000
 -0.003  -0.004   0.000   0.012  -0.004   0.000   0.022  -0.007
 -0.007  -0.008   0.000   0.013   0.012   0.000   0.024   0.021
 -0.002  -0.003   0.000  -0.000   0.012   0.000  -0.000   0.022
 total augmentation occupancy for first ion, spin component:            1
  2.774  -0.727   0.000   0.368   0.368   0.000  -0.068  -0.073  -0.000   0.000  -0.010  -0.005  -0.008
 -0.727   0.671  -0.000  -0.481  -0.458  -0.000   0.076   0.075   0.000  -0.000   0.009   0.002   0.003
  0.000  -0.000   1.293   0.000   0.000  -0.225  -0.000  -0.000   0.154   0.041   0.000   0.000   0.000
  0.368  -0.481   0.000   1.306   0.094  -0.000  -0.213  -0.005   0.000   0.000   0.098  -0.017   0.006
  0.368  -0.458   0.000   0.094   1.302  -0.000  -0.005  -0.217  -0.000   0.000  -0.104   0.048   0.005
  0.000  -0.000  -0.225  -0.000  -0.000   0.044   0.000   0.000  -0.027  -0.007  -0.000  -0.000  -0.000
 -0.068   0.076  -0.000  -0.213  -0.005   0.000   0.039  -0.001  -0.000  -0.000  -0.017   0.003  -0.001
 -0.073   0.075  -0.000  -0.005  -0.217   0.000  -0.001   0.041   0.000  -0.000   0.018  -0.008  -0.001
 -0.000   0.000   0.154   0.000  -0.000  -0.027  -0.000   0.000   0.033   0.005  -0.000   0.000  -0.000
  0.000  -0.000   0.041   0.000   0.000  -0.007  -0.000  -0.000   0.005   0.011   0.000   0.000  -0.000
 -0.010   0.009   0.000   0.098  -0.104  -0.000  -0.017   0.018  -0.000   0.000   0.031  -0.008   0.002
 -0.005   0.002   0.000  -0.017   0.048  -0.000   0.003  -0.008   0.000   0.000  -0.008   0.012  -0.001
 -0.008   0.003   0.000   0.006   0.005  -0.000  -0.001  -0.001  -0.000  -0.000   0.002  -0.001   0.009


------------------------ aborting loop because EDIFF is reached ----------------------------------------


    CHARGE:  cpu time      0.0031: real time      0.0031
    FORLOC:  cpu time      0.0002: real time      0.0002
    FORNL :  cpu time      0.0207: real time      0.0207
    STRESS:  cpu time      0.1935: real time      0.1942
    FORCOR:  cpu time      0.0036: real time      0.0036
    FORHAR:  cpu time      0.0008: real time      0.0010
    MIXING:  cpu time      0.0006: real time      0.0006
    OFIELD:  cpu time      0.0000: real time      0.0000

  FORCE on cell =-STRESS in cart. coord.  units (eV):
  Direction    XX          YY          ZZ          XY          YZ          ZX
  --------------------------------------------------------------------------------------
  Alpha Z    89.12775    89.12775    89.12775
  Ewald    -475.63309  -433.35301  -518.99871    -0.00000    -0.00000     0.00000
  Hartree    44.29590    65.67764    24.30759    -0.00000    -0.00000     0.00000
  E(xc)    -141.51050  -141.52605  -141.73708     0.00000     0.00000    -0.00000
  Local    -140.96501  -199.48422   -82.57656     0.00000     0.00000     0.00000
  n-local   241.35205   241.62155   241.95133    -0.00000    -0.00000    -0.00000
  augment   -11.72069   -11.41789   -12.12150    -0.00000    -0.00000     0.00000
  Kinetic   396.57325   393.09261   400.52793     0.00000    -0.00000    -0.00000
  Fock        0.00000     0.00000     0.00000     0.00000     0.00000     0.00000
  -------------------------------------------------------------------------------------
  Total       1.51964     3.73839     0.48075     0.00000     0.00000    -0.00000
  in kB      12.80670    31.50507     4.05153     0.00000     0.00000    -0.00001
  external pressure =       16.12 kB  Pullay stress =        0.00 kB


 VOLUME and BASIS-vectors are now :
 -----------------------------------------------------------------------------
  energy-cutoff  :      360.00
  volume of cell :      190.11
      direct lattice vectors                 reciprocal lattice vectors
     4.550000000  0.000000000  0.000000000     0.219780220  0.000000000  0.000000000
     0.000000000  3.750000000  0.000000000     0.000000000  0.266666667  0.000000000
     0.000000000  0.000000000 11.142221000     0.000000000  0.000000000  0.089748713

  length of vectors
     4.550000000  3.750000000 11.142221000     0.219780220  0.266666667  0.089748713


 FORCES acting on ions
    electron-ion (+dipol)            ewald-force                    non-local-force                 convergence-correction
 -----------------------------------------------------------------------------------------------
   0.167E+02 -.203E-07 0.274E+02   -.193E+02 -.151E-15 -.303E+02   0.248E+01 -.497E-08 0.289E+01   0.106E-04 0.113E-07 -.128E-02
   0.167E+02 -.520E-06 -.274E+02   -.193E+02 -.159E-14 0.303E+02   0.248E+01 0.260E-06 -.289E+01   0.123E-04 0.225E-06 0.127E-02
   -.167E+02 0.322E-06 -.274E+02   0.193E+02 -.888E-15 0.303E+02   -.248E+01 -.209E-06 -.289E+01   -.108E-04 -.155E-06 0.128E-02
   -.167E+02 0.562E-06 0.274E+02   0.193E+02 0.114E-14 -.303E+02   -.248E+01 -.232E-06 0.289E+01   -.123E-04 -.259E-06 -.128E-02
   -.158E+02 0.173E-06 -.260E+02   0.174E+02 0.249E-14 0.275E+02   -.154E+01 0.750E-08 -.156E+01   0.233E-04 -.436E-06 0.242E-02
   -.158E+02 -.336E-06 0.260E+02   0.174E+02 -.110E-15 -.275E+02   -.154E+01 -.650E-07 0.156E+01   0.262E-04 -.246E-06 -.244E-02
   0.158E+02 0.151E-06 0.260E+02   -.174E+02 -.914E-15 -.275E+02   0.154E+01 -.498E-06 0.156E+01   -.245E-04 0.396E-06 -.242E-02
   0.158E+02 -.500E-07 -.260E+02   -.174E+02 0.177E-14 0.275E+02   0.154E+01 0.136E-06 -.156E+01   -.228E-04 0.335E-06 0.244E-02
 -----------------------------------------------------------------------------------------------
   -.148E-05 0.282E-06 0.166E-05   0.000E+00 0.175E-14 0.142E-13   -.289E-06 -.606E-06 -.297E-06   0.199E-05 -.130E-06 -.560E-06
 
 
 POSITION                                       TOTAL-FORCE (eV/Angst)
 -----------------------------------------------------------------------------------
      0.47937      0.93750      1.37371        -0.028429      0.000000      0.013896
      2.75437      2.81250      4.19740        -0.028429      0.000000     -0.013897
      4.07063      2.81250      9.76852         0.028429      0.000000     -0.013896
      1.79563      0.93750      6.94482         0.028429      0.000000      0.013897
      4.49094      0.93750      3.91889         0.061270     -0.000000     -0.010567
      2.21594      2.81250      1.65222         0.061270     -0.000001      0.010567
      0.05906      2.81250      7.22333        -0.061270      0.000000      0.010567
      2.33406      0.93750      9.49000        -0.061270      0.000000     -0.010567
 -----------------------------------------------------------------------------------
    total drift:                                0.000000     -0.000000      0.000001


--------------------------------------------------------------------------------------------------------



  FREE ENERGIE OF THE ION-ELECTRON SYSTEM (eV)
  ---------------------------------------------------
  free  energy   TOTEN  =       -33.75707388 eV

  energy  without entropy=      -33.75707388  energy(sigma->0) =      -33.75707388
 


--------------------------------------------------------------------------------------------------------


    POTLOK:  cpu time      0.1149: real time      0.1154


--------------------------------------------------------------------------------------------------------


     LOOP+:  cpu time      4.9041: real time      4.9485
    4ORBIT:  cpu time      0.0000: real time      0.0000

 total amount of memory used by VASP MPI-rank0    38146. kBytes
=======================================================================

   base      :      30000. kBytes
   nonl-proj :       6352. kBytes
   fftplans  :        320. kBytes
   grid      :        455. kBytes
   one-center:         16. kBytes
   wavefun   :       1003. kBytes
 
  
  
 General timing and accounting informations for this job:
 ========================================================
  
                  Total CPU time used (sec):        5.698
                            User time (sec):        5.413
                          System time (sec):        0.284
                         Elapsed time (sec):        7.058
  
                   Maximum memory used (kb):      190224.
                   Average memory used (kb):          N/A
  
                          Minor page faults:        21669
                          Major page faults:           36
                 Voluntary context switches:         3303
