 vasp.6.4.2 20Jul23 (build Oct 12 2023 10:31:02) complex                         
 executed on              LinuxNV date 2025.05.28  08:02:24
 running  128 mpi-ranks, with    1 threads/rank, on    2 nodes
 distrk:  each k-point on   64 cores,    2 groups
 distr:  one band on NCORE=   4 cores,   16 groups


--------------------------------------------------------------------------------------------------------


 INCAR:
   ENCUT = 360.000000
   SIGMA = 0.050000
   EDIFF = 1.00e-06
   ALGO = Normal
   GGA = PE
   PREC = Normal
   SYSTEM = ./
   ICHARG = 2
   ISMEAR = 0
   ISPIN = 1
   ISTART = 0
   ISYM = 0
   KPAR = 2
   LMAXMIX = 4
   NELM = 100
   NPAR = 16
   LASPH = .TRUE.
   LCHARG = .FALSE.
   LWAVE = .FALSE.

 POTCAR:    PAW_PBE Ge 05Jan2001                  
 POTCAR:    PAW_PBE Se 06Sep2000                  
 POTCAR:    PAW_PBE Ge 05Jan2001                  
   VRHFIN =Ge: s2p2                                                                                 
   LEXCH  = PE                                                                                      
   EATOM  =   104.9960 eV,    7.7170 Ry                                                             
                                                                                                    
   TITEL  = PAW_PBE Ge 05Jan2001                                                                    
   LULTRA =        F    use ultrasoft PP ?                                                          
   IUNSCR =        1    unscreen: 0-lin 1-nonlin 2-no                                               
   RPACOR =    2.170    partial core radius                                                         
   POMASS =   72.610; ZVAL   =    4.000    mass and valenz                                          
   RCORE  =    2.300    outmost cutoff radius                                                       
   RWIGS  =    2.300; RWIGS  =    1.217    wigner-seitz radius (au A)                               
   ENMAX  =  173.807; ENMIN  =  130.355 eV                                                          
   ICORE  =        3    local potential                                                             
   LCOR   =        T    correct aug charges                                                         
   LPAW   =        T    paw PP                                                                      
   EAUG   =  385.843                                                                                
   DEXC   =    0.000                                                                                
   RMAX   =    2.342    core radius for proj-oper                                                   
   RAUG   =    1.300    factor for augmentation sphere                                              
   RDEP   =    2.318    radius for radial grids                                                     
   RDEPT  =    2.103    core radius for aug-charge                                                  
                                                                                                    
   Atomic configuration                                                                             
   10 entries                                                                                       
     n  l   j            E        occ.                                                              
     1  0  0.50    -10959.8463   2.0000                                                             
     2  0  0.50     -1371.6056   2.0000                                                             
     2  1  1.50     -1198.4791   6.0000                                                             
     3  0  0.50      -168.4733   2.0000                                                             
     3  1  1.50      -115.6019   6.0000                                                             
     3  2  2.50       -29.3106  10.0000                                                             
     4  0  0.50       -11.7309   2.0000                                                             
     4  1  0.50        -3.8952   2.0000                                                             
     4  2  1.50        -4.0817   0.0000                                                             
     4  3  2.50        -4.0817   0.0000                                                             
   Description                                                                                      
     l       E           TYP  RCUT    TYP  RCUT                                                     
     0    -11.7309493     23  2.300                                                                 
     0     -7.4578696     23  2.300                                                                 
     1     -3.8952261     23  2.300                                                                 
     1      6.1178114     23  2.300                                                                 
     2     -4.0817478     23  2.300                                                                 
     3     -1.3605826      7  2.300                                                                 
  local pseudopotential read in
  partial core-charges read in
  partial kinetic energy density read in
  atomic valenz-charges read in
  non local Contribution for L=            0  read in
    real space projection operators read in
  non local Contribution for L=            0  read in
    real space projection operators read in
  non local Contribution for L=            1  read in
    real space projection operators read in
  non local Contribution for L=            1  read in
    real space projection operators read in
  non local Contribution for L=            2  read in
    real space projection operators read in
    PAW grid and wavefunctions read in
 
   number of l-projection  operators is LMAX  =            5
   number of lm-projection operators is LMMAX =           13
 
 POTCAR:    PAW_PBE Se 06Sep2000                  
   VRHFIN =Se: s2p4                                                                                 
   LEXCH  = PE                                                                                      
   EATOM  =   257.1286 eV,   18.8984 Ry                                                             
                                                                                                    
   TITEL  = PAW_PBE Se 06Sep2000                                                                    
   LULTRA =        F    use ultrasoft PP ?                                                          
   IUNSCR =        1    unscreen: 0-lin 1-nonlin 2-no                                               
   RPACOR =    1.900    partial core radius                                                         
   POMASS =   78.960; ZVAL   =    6.000    mass and valenz                                          
   RCORE  =    2.100    outmost cutoff radius                                                       
   RWIGS  =    2.200; RWIGS  =    1.164    wigner-seitz radius (au A)                               
   ENMAX  =  211.555; ENMIN  =  158.666 eV                                                          
   ICORE  =        3    local potential                                                             
   LCOR   =        T    correct aug charges                                                         
   LPAW   =        T    paw PP                                                                      
   EAUG   =  446.842                                                                                
   DEXC   =    0.000                                                                                
   RMAX   =    2.147    core radius for proj-oper                                                   
   RAUG   =    1.300    factor for augmentation sphere                                              
   RDEP   =    2.177    radius for radial grids                                                     
   RDEPT  =    1.928    core radius for aug-charge                                                  
                                                                                                    
   Atomic configuration                                                                             
   10 entries                                                                                       
     n  l   j            E        occ.                                                              
     1  0  0.50    -12503.4787   2.0000                                                             
     2  0  0.50     -1606.9547   2.0000                                                             
     2  1  1.50     -1413.3140   6.0000                                                             
     3  0  0.50      -213.4885   2.0000                                                             
     3  1  1.50      -152.9538   6.0000                                                             
     3  2  2.50       -53.1221  10.0000                                                             
     4  0  0.50       -17.2865   2.0000                                                             
     4  1  0.50        -6.5110   4.0000                                                             
     4  2  2.50        -6.8029   0.0000                                                             
     4  3  2.50        -6.8029   0.0000                                                             
   Description                                                                                      
     l       E           TYP  RCUT    TYP  RCUT                                                     
     0    -17.2865377     23  2.100                                                                 
     0    -15.3094411     23  2.100                                                                 
     1     -6.5110275     23  2.100                                                                 
     1     -0.0695192     23  2.100                                                                 
     2     -6.8029130     23  2.100                                                                 
     3     -1.3605826      7  2.100                                                                 
  local pseudopotential read in
  partial core-charges read in
  partial kinetic energy density read in
  atomic valenz-charges read in
  non local Contribution for L=            0  read in
    real space projection operators read in
  non local Contribution for L=            0  read in
    real space projection operators read in
  non local Contribution for L=            1  read in
    real space projection operators read in
  non local Contribution for L=            1  read in
    real space projection operators read in
  non local Contribution for L=            2  read in
    real space projection operators read in
    PAW grid and wavefunctions read in
 
   number of l-projection  operators is LMAX  =            5
   number of lm-projection operators is LMMAX =           13
 
  PAW_PBE Ge 05Jan2001                  :
 energy of atom  1       EATOM= -104.9960
 kinetic energy error for atom=    0.0005 (will be added to EATOM!!)
  PAW_PBE Se 06Sep2000                  :
 energy of atom  2       EATOM= -257.1286
 kinetic energy error for atom=    0.0030 (will be added to EATOM!!)
 
 
 POSCAR: Ge Se
  positions in cartesian coordinates
  No initial velocities read in
 exchange correlation table for  LEXCH =        8
   RHO(1)=    0.500       N(1)  =     2000
   RHO(2)=  100.500       N(2)  =     4000
 


--------------------------------------------------------------------------------------------------------


 ion  position               nearest neighbor table
   1  0.250  0.102  0.132-   5 2.55   6 2.70   6 2.70
   2  0.750  0.602  0.368-   6 2.55   5 2.70   5 2.70
   3  0.750  0.898  0.868-   7 2.55   8 2.70   8 2.70
   4  0.250  0.398  0.632-   8 2.55   7 2.70   7 2.70
   5  0.250  0.987  0.357-   1 2.55   2 2.70   2 2.70
   6  0.750  0.487  0.143-   2 2.55   1 2.70   1 2.70
   7  0.750  0.013  0.643-   3 2.55   4 2.70   4 2.70
   8  0.250  0.513  0.857-   4 2.55   3 2.70   3 2.70
 

IMPORTANT INFORMATION: All symmetrisations will be switched off!
NOSYMM: (Re-)initialisation of all symmetry stuff for point group C_1.


----------------------------------------------------------------------------------------

                                     Primitive cell                                     

  volume of cell :     203.6241

  direct lattice vectors                    reciprocal lattice vectors
     4.250000000  0.000000000  0.000000000     0.235294118  0.000000000  0.000000000
     0.000000000  4.300000000  0.000000000     0.000000000  0.232558140  0.000000000
     0.000000000  0.000000000 11.142221000     0.000000000  0.000000000  0.089748713

  length of vectors
     4.250000000  4.300000000 11.142221000     0.235294118  0.232558140  0.089748713

  position of ions in fractional coordinates (direct lattice)
     0.250000000  0.102166620  0.132320020
     0.750000000  0.602166620  0.367679980
     0.750000000  0.897833380  0.867679980
     0.250000000  0.397833380  0.632320020
     0.250000000  0.986812309  0.356886789
     0.750000000  0.486812309  0.143113211
     0.750000000  0.013187691  0.643113211
     0.250000000  0.513187691  0.856886789

  ion indices of the primitive-cell ions
   primitive index   ion index
                 1           1
                 2           2
                 3           3
                 4           4
                 5           5
                 6           6
                 7           7
                 8           8

----------------------------------------------------------------------------------------

 
 
 KPOINTS: KPOINTS created by Atomic Simulation Env

Automatic generation of k-mesh.
 Grid dimensions read from file:
 generate k-points for:    6    6    2

 Generating k-lattice:

  Cartesian coordinates                     Fractional coordinates (reciprocal lattice)
     0.039215686  0.000000000  0.000000000     0.166666667  0.000000000  0.000000000
     0.000000000  0.038759690  0.000000000     0.000000000  0.166666667  0.000000000
     0.000000000  0.000000000  0.044874357     0.000000000  0.000000000  0.500000000

  Length of vectors
     0.039215686  0.038759690  0.044874357

  Shift w.r.t. Gamma in fractional coordinates (k-lattice)
     0.000000000  0.000000000  0.000000000

 
 Subroutine IBZKPT returns following result:
 ===========================================
 
 Found     40 irreducible k-points:
 
 Following reciprocal coordinates:
            Coordinates               Weight
  0.000000  0.000000  0.000000      1.000000
  0.166667  0.000000  0.000000      2.000000
  0.333333  0.000000  0.000000      2.000000
  0.500000  0.000000  0.000000      1.000000
  0.000000  0.166667  0.000000      2.000000
  0.166667  0.166667  0.000000      2.000000
  0.166667 -0.166667  0.000000      2.000000
  0.333333  0.166667  0.000000      2.000000
  0.333333 -0.166667  0.000000      2.000000
  0.500000  0.166667  0.000000      2.000000
  0.000000  0.333333  0.000000      2.000000
  0.166667  0.333333  0.000000      2.000000
  0.166667 -0.333333  0.000000      2.000000
  0.333333  0.333333  0.000000      2.000000
  0.333333 -0.333333  0.000000      2.000000
  0.500000  0.333333  0.000000      2.000000
  0.000000  0.500000  0.000000      1.000000
  0.166667  0.500000  0.000000      2.000000
  0.333333  0.500000  0.000000      2.000000
  0.500000  0.500000  0.000000      1.000000
  0.000000  0.000000  0.500000      1.000000
  0.166667  0.000000  0.500000      2.000000
  0.333333  0.000000  0.500000      2.000000
  0.500000  0.000000  0.500000      1.000000
  0.000000  0.166667  0.500000      2.000000
  0.166667  0.166667  0.500000      2.000000
  0.166667 -0.166667  0.500000      2.000000
  0.333333  0.166667  0.500000      2.000000
  0.333333 -0.166667  0.500000      2.000000
  0.500000  0.166667  0.500000      2.000000
  0.000000  0.333333  0.500000      2.000000
  0.166667  0.333333  0.500000      2.000000
  0.166667 -0.333333  0.500000      2.000000
  0.333333  0.333333  0.500000      2.000000
  0.333333 -0.333333  0.500000      2.000000
  0.500000  0.333333  0.500000      2.000000
  0.000000  0.500000  0.500000      1.000000
  0.166667  0.500000  0.500000      2.000000
  0.333333  0.500000  0.500000      2.000000
  0.500000  0.500000  0.500000      1.000000
 
 Following cartesian coordinates:
            Coordinates               Weight
  0.000000  0.000000  0.000000      1.000000
  0.039216  0.000000  0.000000      2.000000
  0.078431  0.000000  0.000000      2.000000
  0.117647  0.000000  0.000000      1.000000
  0.000000  0.038760  0.000000      2.000000
  0.039216  0.038760  0.000000      2.000000
  0.039216 -0.038760  0.000000      2.000000
  0.078431  0.038760  0.000000      2.000000
  0.078431 -0.038760  0.000000      2.000000
  0.117647  0.038760  0.000000      2.000000
  0.000000  0.077519  0.000000      2.000000
  0.039216  0.077519  0.000000      2.000000
  0.039216 -0.077519  0.000000      2.000000
  0.078431  0.077519  0.000000      2.000000
  0.078431 -0.077519  0.000000      2.000000
  0.117647  0.077519  0.000000      2.000000
  0.000000  0.116279  0.000000      1.000000
  0.039216  0.116279  0.000000      2.000000
  0.078431  0.116279  0.000000      2.000000
  0.117647  0.116279  0.000000      1.000000
  0.000000  0.000000  0.044874      1.000000
  0.039216  0.000000  0.044874      2.000000
  0.078431  0.000000  0.044874      2.000000
  0.117647  0.000000  0.044874      1.000000
  0.000000  0.038760  0.044874      2.000000
  0.039216  0.038760  0.044874      2.000000
  0.039216 -0.038760  0.044874      2.000000
  0.078431  0.038760  0.044874      2.000000
  0.078431 -0.038760  0.044874      2.000000
  0.117647  0.038760  0.044874      2.000000
  0.000000  0.077519  0.044874      2.000000
  0.039216  0.077519  0.044874      2.000000
  0.039216 -0.077519  0.044874      2.000000
  0.078431  0.077519  0.044874      2.000000
  0.078431 -0.077519  0.044874      2.000000
  0.117647  0.077519  0.044874      2.000000
  0.000000  0.116279  0.044874      1.000000
  0.039216  0.116279  0.044874      2.000000
  0.078431  0.116279  0.044874      2.000000
  0.117647  0.116279  0.044874      1.000000
 


--------------------------------------------------------------------------------------------------------




 Dimension of arrays:
   k-points           NKPTS =     40   k-points in BZ     NKDIM =     40   number of bands    NBANDS=     32
   number of dos      NEDOS =    301   number of ions     NIONS =      8
   non local maximal  LDIM  =      5   non local SUM 2l+1 LMDIM =     13
   total plane-waves  NPLWV =  21600
   max r-space proj   IRMAX =      1   max aug-charges    IRDMAX=   5964
   dimension x,y,z NGX =    20 NGY =   20 NGZ =   54
   dimension x,y,z NGXF=    40 NGYF=   40 NGZF=  108
   support grid    NGXF=    40 NGYF=   40 NGZF=  108
   ions per type =               4   4
   NGX,Y,Z   is equivalent  to a cutoff of   7.82,  7.73,  8.06 a.u.
   NGXF,Y,Z  is equivalent  to a cutoff of  15.65, 15.46, 16.11 a.u.

 SYSTEM =  ./                                      
 POSCAR =  Ge Se                                   

 Startparameter for this run:
   NWRITE =      2    write-flag & timer
   PREC   = normal    normal or accurate (medium, high low for compatibility)
   ISTART =      0    job   : 0-new  1-cont  2-samecut
   ICHARG =      2    charge: 1-file 2-atom 10-const
   ISPIN  =      1    spin polarized calculation?
   LNONCOLLINEAR =      F non collinear calculations
   LSORBIT =      F    spin-orbit coupling
   INIWAV =      1    electr: 0-lowe 1-rand  2-diag
   LASPH  =      T    aspherical Exc in radial PAW
 Electronic Relaxation 1
   ENCUT  =  360.0 eV  26.46 Ry    5.14 a.u.   6.58  6.65 17.24*2*pi/ulx,y,z
   ENINI  =  360.0     initial cutoff
   ENAUG  =  446.8 eV  augmentation charge cutoff
   NELM   =    100;   NELMIN=  2; NELMDL= -5     # of ELM steps 
   EDIFF  = 0.1E-05   stopping-criterion for ELM
   LREAL  =      F    real-space projection
   NLSPLINE    = F    spline interpolate recip. space projectors
   LCOMPAT=      F    compatible to vasp.4.4
   GGA_COMPAT  = T    GGA compatible to vasp.4.4-vasp.4.6
   LMAXPAW     = -100 max onsite density
   LMAXMIX     =    4 max onsite mixed and CHGCAR
   VOSKOWN=      0    Vosko Wilk Nusair interpolation
   ROPT   =    0.00000   0.00000
 Ionic relaxation
   EDIFFG = 0.1E-04   stopping-criterion for IOM
   NSW    =      0    number of steps for IOM
   NBLOCK =      1;   KBLOCK =      1    inner block; outer block 
   IBRION =     -1    ionic relax: 0-MD 1-quasi-New 2-CG
   NFREE  =      0    steps in history (QN), initial steepest desc. (CG)
   ISIF   =      2    stress and relaxation
   IWAVPR =     10    prediction:  0-non 1-charg 2-wave 3-comb
   ISYM   =      0    0-nonsym 1-usesym 2-fastsym
   LCORR  =      T    Harris-Foulkes like correction to forces

   POTIM  = 0.5000    time-step for ionic-motion
   TEIN   =    0.0    initial temperature
   TEBEG  =    0.0;   TEEND  =   0.0 temperature during run
   SMASS  =  -3.00    Nose mass-parameter (am)
   estimated Nose-frequenzy (Omega)   =  0.10E-29 period in steps = 0.13E+47 mass=  -0.413E-27a.u.
   SCALEE = 1.0000    scale energy and forces
   NPACO  =    256;   APACO  = 10.0  distance and # of slots for P.C.
   PSTRESS=    0.0 pullay stress

  Mass of Ions in am
   POMASS =  72.61 78.96
  Ionic Valenz
   ZVAL   =   4.00  6.00
  Atomic Wigner-Seitz radii
   RWIGS  =  -1.00 -1.00
  virtual crystal weights 
   VCA    =   1.00  1.00
   NELECT =      40.0000    total number of electrons
   NUPDOWN=      -1.0000    fix difference up-down

 DOS related values:
   EMIN   =  10.00;   EMAX   =-10.00  energy-range for DOS
   EFERMI =   0.00;   METHOD = LEGACY      
   ISMEAR =     0;   SIGMA  =   0.05  broadening in eV -4-tet -1-fermi 0-gaus

 Electronic relaxation 2 (details)
   IALGO  =     38    algorithm
   LDIAG  =      T    sub-space diagonalisation (order eigenvalues)
   LSUBROT=      F    optimize rotation matrix (better conditioning)
   TURBO    =      0    0=normal 1=particle mesh
   IRESTART =      0    0=no restart 2=restart with 2 vectors
   NREBOOT  =      0    no. of reboots
   NMIN     =      0    reboot dimension
   EREF     =   0.00    reference energy to select bands
   IMIX   =      4    mixing-type and parameters
     AMIX     =   0.40;   BMIX     =  1.00
     AMIX_MAG =   1.60;   BMIX_MAG =  1.00
     AMIN     =   0.10
     WC   =   100.;   INIMIX=   1;  MIXPRE=   1;  MAXMIX= -45

 Intra band minimization:
   WEIMIN = 0.0000     energy-eigenvalue tresh-hold
   EBREAK =  0.78E-08  absolut break condition
   DEPER  =   0.30     relativ break condition  

   TIME   =   0.40     timestep for ELM

  volume/ion in A,a.u.               =      25.45       171.77
  Fermi-wavevector in a.u.,A,eV,Ry     =   0.951667  1.798390 12.322395  0.905670
  Thomas-Fermi vector in A             =   2.080159
 
 Write flags
   LWAVE        =      F    write WAVECAR
   LDOWNSAMPLE  =      F    k-point downsampling of WAVECAR
   LCHARG       =      F    write CHGCAR
   LVTOT        =      F    write LOCPOT, total local potential
   LVHAR        =      F    write LOCPOT, Hartree potential only
   LELF         =      F    write electronic localiz. function (ELF)
   LORBIT       =      0    0 simple, 1 ext, 2 COOP (PROOUT), +10 PAW based schemes


 Dipole corrections
   LMONO  =      F    monopole corrections only (constant potential shift)
   LDIPOL =      F    correct potential (dipole corrections)
   IDIPOL =      0    1-x, 2-y, 3-z, 4-all directions 
   EPSILON=  1.0000000 bulk dielectric constant

 Exchange correlation treatment:
   GGA     =    PE    GGA type
   LEXCH   =     8    internal setting for exchange type
   LIBXC   =     F    Libxc                    
   VOSKOWN =     0    Vosko Wilk Nusair interpolation
   LHFCALC =     F    Hartree Fock is set to
   LHFONE  =     F    Hartree Fock one center treatment
   AEXX    =    0.0000 exact exchange contribution

 Linear response parameters
   LEPSILON=     F    determine dielectric tensor
   LRPA    =     F    only Hartree local field effects (RPA)
   LNABLA  =     F    use nabla operator in PAW spheres
   LVEL    =     F    velocity operator in full k-point grid
   CSHIFT  =0.1000    complex shift for real part using Kramers Kronig
   OMEGAMAX=  -1.0    maximum frequency
   DEG_THRESHOLD= 0.2000000E-02 threshold for treating states as degnerate
   RTIME   =   -0.100 relaxation time in fs
  (WPLASMAI=    0.000 imaginary part of plasma frequency in eV, 0.658/RTIME)
   DFIELD  = 0.0000000 0.0000000 0.0000000 field for delta impulse in time
 
  Optional k-point grid parameters
   LKPOINTS_OPT  =     F    use optional k-point grid
   KPOINTS_OPT_MODE=     1    mode for optional k-point grid
 
 Orbital magnetization related:
   ORBITALMAG=     F  switch on orbital magnetization
   LCHIMAG   =     F  perturbation theory with respect to B field
   DQ        =  0.001000  dq finite difference perturbation B field
   LLRAUG    =     F  two centre corrections for induced B field
   LBONE     =     F  B-component reconstruction in AE one-centre
   LVGVCALC  =     T  calculate vGv susceptibility
   LVGVAPPL  =     F  apply vGv susceptibility instead of pGv for G=0

 Random number generation:
   RANDOM_GENERATOR = DEFAULT
   PCG_SEED         = not used


--------------------------------------------------------------------------------------------------------


 Static calculation
 charge density and potential will be updated during run
 non-spin polarized calculation
 Variant of blocked Davidson
 Davidson routine will perform the subspace rotation
 perform sub-space diagonalisation
    after iterative eigenvector-optimisation
 modified Broyden-mixing scheme, WC =      100.0
 initial mixing is a Kerker type mixing with AMIX =  0.4000 and BMIX =      1.0000
 Hartree-type preconditioning will be used
 using additional bands            12
 reciprocal scheme for non local part
 use partial core corrections
 calculate Harris-corrections to forces 
   (improved forces if not selfconsistent)
 use gradient corrections 
 use of overlap-Matrix (Vanderbilt PP)
 Gauss-broadening in eV      SIGMA  =   0.05


--------------------------------------------------------------------------------------------------------


  energy-cutoff  :      360.00
  volume of cell :      203.62
      direct lattice vectors                 reciprocal lattice vectors
     4.250000000  0.000000000  0.000000000     0.235294118  0.000000000  0.000000000
     0.000000000  4.300000000  0.000000000     0.000000000  0.232558140  0.000000000
     0.000000000  0.000000000 11.142221000     0.000000000  0.000000000  0.089748713

  length of vectors
     4.250000000  4.300000000 11.142221000     0.235294118  0.232558140  0.089748713


 
 k-points in units of 2pi/SCALE and weight: KPOINTS created by Atomic Simulation Env
   0.00000000  0.00000000  0.00000000       0.014
   0.03921569  0.00000000  0.00000000       0.028
   0.07843137  0.00000000  0.00000000       0.028
   0.11764706  0.00000000  0.00000000       0.014
   0.00000000  0.03875969  0.00000000       0.028
   0.03921569  0.03875969  0.00000000       0.028
   0.03921569 -0.03875969  0.00000000       0.028
   0.07843137  0.03875969  0.00000000       0.028
   0.07843137 -0.03875969  0.00000000       0.028
   0.11764706  0.03875969  0.00000000       0.028
   0.00000000  0.07751938  0.00000000       0.028
   0.03921569  0.07751938  0.00000000       0.028
   0.03921569 -0.07751938  0.00000000       0.028
   0.07843137  0.07751938  0.00000000       0.028
   0.07843137 -0.07751938  0.00000000       0.028
   0.11764706  0.07751938  0.00000000       0.028
   0.00000000  0.11627907  0.00000000       0.014
   0.03921569  0.11627907  0.00000000       0.028
   0.07843137  0.11627907  0.00000000       0.028
   0.11764706  0.11627907  0.00000000       0.014
   0.00000000  0.00000000  0.04487436       0.014
   0.03921569  0.00000000  0.04487436       0.028
   0.07843137  0.00000000  0.04487436       0.028
   0.11764706  0.00000000  0.04487436       0.014
   0.00000000  0.03875969  0.04487436       0.028
   0.03921569  0.03875969  0.04487436       0.028
   0.03921569 -0.03875969  0.04487436       0.028
   0.07843137  0.03875969  0.04487436       0.028
   0.07843137 -0.03875969  0.04487436       0.028
   0.11764706  0.03875969  0.04487436       0.028
   0.00000000  0.07751938  0.04487436       0.028
   0.03921569  0.07751938  0.04487436       0.028
   0.03921569 -0.07751938  0.04487436       0.028
   0.07843137  0.07751938  0.04487436       0.028
   0.07843137 -0.07751938  0.04487436       0.028
   0.11764706  0.07751938  0.04487436       0.028
   0.00000000  0.11627907  0.04487436       0.014
   0.03921569  0.11627907  0.04487436       0.028
   0.07843137  0.11627907  0.04487436       0.028
   0.11764706  0.11627907  0.04487436       0.014
 
 k-points in reciprocal lattice and weights: KPOINTS created by Atomic Simulation Env
   0.00000000  0.00000000  0.00000000       0.014
   0.16666667  0.00000000  0.00000000       0.028
   0.33333333  0.00000000  0.00000000       0.028
   0.50000000  0.00000000  0.00000000       0.014
   0.00000000  0.16666667  0.00000000       0.028
   0.16666667  0.16666667  0.00000000       0.028
   0.16666667 -0.16666667  0.00000000       0.028
   0.33333333  0.16666667  0.00000000       0.028
   0.33333333 -0.16666667  0.00000000       0.028
   0.50000000  0.16666667  0.00000000       0.028
   0.00000000  0.33333333  0.00000000       0.028
   0.16666667  0.33333333  0.00000000       0.028
   0.16666667 -0.33333333  0.00000000       0.028
   0.33333333  0.33333333  0.00000000       0.028
   0.33333333 -0.33333333  0.00000000       0.028
   0.50000000  0.33333333  0.00000000       0.028
   0.00000000  0.50000000  0.00000000       0.014
   0.16666667  0.50000000  0.00000000       0.028
   0.33333333  0.50000000  0.00000000       0.028
   0.50000000  0.50000000  0.00000000       0.014
   0.00000000  0.00000000  0.50000000       0.014
   0.16666667  0.00000000  0.50000000       0.028
   0.33333333  0.00000000  0.50000000       0.028
   0.50000000  0.00000000  0.50000000       0.014
   0.00000000  0.16666667  0.50000000       0.028
   0.16666667  0.16666667  0.50000000       0.028
   0.16666667 -0.16666667  0.50000000       0.028
   0.33333333  0.16666667  0.50000000       0.028
   0.33333333 -0.16666667  0.50000000       0.028
   0.50000000  0.16666667  0.50000000       0.028
   0.00000000  0.33333333  0.50000000       0.028
   0.16666667  0.33333333  0.50000000       0.028
   0.16666667 -0.33333333  0.50000000       0.028
   0.33333333  0.33333333  0.50000000       0.028
   0.33333333 -0.33333333  0.50000000       0.028
   0.50000000  0.33333333  0.50000000       0.028
   0.00000000  0.50000000  0.50000000       0.014
   0.16666667  0.50000000  0.50000000       0.028
   0.33333333  0.50000000  0.50000000       0.028
   0.50000000  0.50000000  0.50000000       0.014
 
 position of ions in fractional coordinates (direct lattice) 
   0.25000000  0.10216662  0.13232002
   0.75000000  0.60216662  0.36767998
   0.75000000  0.89783338  0.86767998
   0.25000000  0.39783338  0.63232002
   0.25000000  0.98681231  0.35688679
   0.75000000  0.48681231  0.14311321
   0.75000000  0.01318769  0.64311321
   0.25000000  0.51318769  0.85688679
 
 position of ions in cartesian coordinates  (Angst):
   1.06250000  0.43931646  1.47433891
   3.18750000  2.58931646  4.09677159
   3.18750000  3.86068354  9.66788209
   1.06250000  1.71068354  7.04544941
   1.06250000  4.24329293  3.97651147
   3.18750000  2.09329293  1.59459903
   3.18750000  0.05670707  7.16570953
   1.06250000  2.20670707  9.54762197
 


--------------------------------------------------------------------------------------------------------


 k-point   1 :   0.0000 0.0000 0.0000  plane waves:    3195
 k-point   2 :   0.1667 0.0000 0.0000  plane waves:    3177
 k-point   3 :   0.3333 0.0000 0.0000  plane waves:    3151
 k-point   4 :   0.5000 0.0000 0.0000  plane waves:    3150
 k-point   5 :   0.0000 0.1667 0.0000  plane waves:    3175
 k-point   6 :   0.1667 0.1667 0.0000  plane waves:    3167
 k-point   7 :   0.1667-0.1667 0.0000  plane waves:    3167
 k-point   8 :   0.3333 0.1667 0.0000  plane waves:    3152
 k-point   9 :   0.3333-0.1667 0.0000  plane waves:    3152
 k-point  10 :   0.5000 0.1667 0.0000  plane waves:    3148
 k-point  11 :   0.0000 0.3333 0.0000  plane waves:    3145
 k-point  12 :   0.1667 0.3333 0.0000  plane waves:    3162
 k-point  13 :   0.1667-0.3333 0.0000  plane waves:    3162
 k-point  14 :   0.3333 0.3333 0.0000  plane waves:    3156
 k-point  15 :   0.3333-0.3333 0.0000  plane waves:    3156
 k-point  16 :   0.5000 0.3333 0.0000  plane waves:    3148
 k-point  17 :   0.0000 0.5000 0.0000  plane waves:    3154
 k-point  18 :   0.1667 0.5000 0.0000  plane waves:    3146
 k-point  19 :   0.3333 0.5000 0.0000  plane waves:    3156
 k-point  20 :   0.5000 0.5000 0.0000  plane waves:    3148
 k-point  21 :   0.0000 0.0000 0.5000  plane waves:    3154
 k-point  22 :   0.1667 0.0000 0.5000  plane waves:    3158
 k-point  23 :   0.3333 0.0000 0.5000  plane waves:    3152
 k-point  24 :   0.5000 0.0000 0.5000  plane waves:    3136
 k-point  25 :   0.0000 0.1667 0.5000  plane waves:    3174
 k-point  26 :   0.1667 0.1667 0.5000  plane waves:    3164
 k-point  27 :   0.1667-0.1667 0.5000  plane waves:    3164
 k-point  28 :   0.3333 0.1667 0.5000  plane waves:    3156
 k-point  29 :   0.3333-0.1667 0.5000  plane waves:    3156
 k-point  30 :   0.5000 0.1667 0.5000  plane waves:    3152
 k-point  31 :   0.0000 0.3333 0.5000  plane waves:    3152
 k-point  32 :   0.1667 0.3333 0.5000  plane waves:    3158
 k-point  33 :   0.1667-0.3333 0.5000  plane waves:    3158
 k-point  34 :   0.3333 0.3333 0.5000  plane waves:    3164
 k-point  35 :   0.3333-0.3333 0.5000  plane waves:    3164
 k-point  36 :   0.5000 0.3333 0.5000  plane waves:    3128
 k-point  37 :   0.0000 0.5000 0.5000  plane waves:    3168
 k-point  38 :   0.1667 0.5000 0.5000  plane waves:    3176
 k-point  39 :   0.3333 0.5000 0.5000  plane waves:    3164
 k-point  40 :   0.5000 0.5000 0.5000  plane waves:    3168

 maximum and minimum number of plane-waves per node :       810      772

 maximum number of plane-waves:      3195
 maximum index in each direction: 
   IXMAX=    6   IYMAX=    6   IZMAX=   17
   IXMIN=   -7   IYMIN=   -7   IZMIN=  -17


 parallel 3D FFT for wavefunctions:
    minimum data exchange during FFTs selected (reduces bandwidth)
 parallel 3D FFT for charge:
    minimum data exchange during FFTs selected (reduces bandwidth)


 total amount of memory used by VASP MPI-rank0    38776. kBytes
=======================================================================

   base      :      30000. kBytes
   nonl-proj :       6893. kBytes
   fftplans  :        320. kBytes
   grid      :        462. kBytes
   one-center:         16. kBytes
   wavefun   :       1085. kBytes
 
     INWAV:  cpu time      0.0000: real time      0.0001
 Broyden mixing: mesh for mixing (old mesh)
   NGX = 13   NGY = 13   NGZ = 35
  (NGX  = 40   NGY  = 40   NGZ  =108)
  gives a total of   5915 points

 initial charge density was supplied:
 charge density of overlapping atoms calculated
 number of electron      40.0000000 magnetization 
 keeping initial charge density in first step


--------------------------------------------------------------------------------------------------------


 Maximum index for augmentation-charges            63 (set IRDMAX)


--------------------------------------------------------------------------------------------------------


 First call to EWALD:  gamma=   0.301
 Maximum number of real-space cells 4x 4x 2
 Maximum number of reciprocal cells 2x 2x 5

    FEWALD:  cpu time      0.0015: real time      0.0015


--------------------------------------- Ionic step        1  -------------------------------------------




--------------------------------------- Iteration      1(   1)  ---------------------------------------


    POTLOK:  cpu time      0.0138: real time      0.0156
    SETDIJ:  cpu time      0.1361: real time      0.1366
     EDDAV:  cpu time      0.2588: real time      0.2617
       DOS:  cpu time      0.0015: real time      0.0015
    --------------------------------------------
      LOOP:  cpu time      0.4102: real time      0.4154

 eigenvalue-minimisations  :  2560
 total energy-change (2. order) : 0.1301399E+03  (-0.1266181E+04)
 number of electron      40.0000000 magnetization 
 augmentation part       40.0000000 magnetization 

 Free energy of the ion-electron system (eV)
  ---------------------------------------------------
  alpha Z        PSCENC =        83.21434631
  Ewald energy   TEWEN  =     -1396.98354250
  -Hartree energ DENC   =      -133.26720936
  -exchange      EXHF   =         0.00000000
  -V(xc)+E(xc)   XCENC  =       -34.14913379
  PAW double counting   =      1193.78262552    -1080.73714043
  entropy T*S    EENTRO =        -0.00293253
  eigenvalues    EBANDS =        49.79832625
  atomic energy  EATOM  =      1448.48460880
  Solvation  Ediel_sol  =         0.00000000
  ---------------------------------------------------
  free energy    TOTEN  =       130.13994826 eV

  energy without entropy =      130.14288079  energy(sigma->0) =      130.14141453


--------------------------------------------------------------------------------------------------------




--------------------------------------- Iteration      1(   2)  ---------------------------------------


     EDDAV:  cpu time      0.3370: real time      0.3405
       DOS:  cpu time      0.0005: real time      0.0005
    --------------------------------------------
      LOOP:  cpu time      0.3376: real time      0.3411

 eigenvalue-minimisations  :  3808
 total energy-change (2. order) :-0.1554840E+03  (-0.1508986E+03)
 number of electron      40.0000000 magnetization 
 augmentation part       40.0000000 magnetization 

 Free energy of the ion-electron system (eV)
  ---------------------------------------------------
  alpha Z        PSCENC =        83.21434631
  Ewald energy   TEWEN  =     -1396.98354250
  -Hartree energ DENC   =      -133.26720936
  -exchange      EXHF   =         0.00000000
  -V(xc)+E(xc)   XCENC  =       -34.14913379
  PAW double counting   =      1193.78262552    -1080.73714043
  entropy T*S    EENTRO =        -0.00000000
  eigenvalues    EBANDS =      -105.68860926
  atomic energy  EATOM  =      1448.48460880
  Solvation  Ediel_sol  =         0.00000000
  ---------------------------------------------------
  free energy    TOTEN  =       -25.34405472 eV

  energy without entropy =      -25.34405472  energy(sigma->0) =      -25.34405472


--------------------------------------------------------------------------------------------------------




--------------------------------------- Iteration      1(   3)  ---------------------------------------


     EDDAV:  cpu time      0.2848: real time      0.2883
       DOS:  cpu time      0.0006: real time      0.0006
    --------------------------------------------
      LOOP:  cpu time      0.2854: real time      0.2888

 eigenvalue-minimisations  :  3040
 total energy-change (2. order) :-0.8693862E+01  (-0.8677707E+01)
 number of electron      40.0000000 magnetization 
 augmentation part       40.0000000 magnetization 

 Free energy of the ion-electron system (eV)
  ---------------------------------------------------
  alpha Z        PSCENC =        83.21434631
  Ewald energy   TEWEN  =     -1396.98354250
  -Hartree energ DENC   =      -133.26720936
  -exchange      EXHF   =         0.00000000
  -V(xc)+E(xc)   XCENC  =       -34.14913379
  PAW double counting   =      1193.78262552    -1080.73714043
  entropy T*S    EENTRO =        -0.00000000
  eigenvalues    EBANDS =      -114.38247102
  atomic energy  EATOM  =      1448.48460880
  Solvation  Ediel_sol  =         0.00000000
  ---------------------------------------------------
  free energy    TOTEN  =       -34.03791648 eV

  energy without entropy =      -34.03791648  energy(sigma->0) =      -34.03791648


--------------------------------------------------------------------------------------------------------




--------------------------------------- Iteration      1(   4)  ---------------------------------------


     EDDAV:  cpu time      0.3107: real time      0.3142
       DOS:  cpu time      0.0006: real time      0.0006
    --------------------------------------------
      LOOP:  cpu time      0.3113: real time      0.3148

 eigenvalue-minimisations  :  3328
 total energy-change (2. order) :-0.6025092E-01  (-0.6023835E-01)
 number of electron      40.0000000 magnetization 
 augmentation part       40.0000000 magnetization 

 Free energy of the ion-electron system (eV)
  ---------------------------------------------------
  alpha Z        PSCENC =        83.21434631
  Ewald energy   TEWEN  =     -1396.98354250
  -Hartree energ DENC   =      -133.26720936
  -exchange      EXHF   =         0.00000000
  -V(xc)+E(xc)   XCENC  =       -34.14913379
  PAW double counting   =      1193.78262552    -1080.73714043
  entropy T*S    EENTRO =        -0.00000000
  eigenvalues    EBANDS =      -114.44272193
  atomic energy  EATOM  =      1448.48460880
  Solvation  Ediel_sol  =         0.00000000
  ---------------------------------------------------
  free energy    TOTEN  =       -34.09816739 eV

  energy without entropy =      -34.09816739  energy(sigma->0) =      -34.09816739


--------------------------------------------------------------------------------------------------------




--------------------------------------- Iteration      1(   5)  ---------------------------------------


     EDDAV:  cpu time      0.2930: real time      0.2962
       DOS:  cpu time      0.0007: real time      0.0007
    CHARGE:  cpu time      0.0047: real time      0.0047
    MIXING:  cpu time      0.0007: real time      0.0007
    --------------------------------------------
      LOOP:  cpu time      0.2991: real time      0.3023

 eigenvalue-minimisations  :  3056
 total energy-change (2. order) :-0.3607183E-03  (-0.3607094E-03)
 number of electron      40.0000013 magnetization 
 augmentation part       -7.4161966 magnetization 

 Broyden mixing:
  rms(total) = 0.61529E+00    rms(broyden)= 0.61528E+00
  rms(prec ) = 0.71865E+00
  weight for this iteration     100.00

 Free energy of the ion-electron system (eV)
  ---------------------------------------------------
  alpha Z        PSCENC =        83.21434631
  Ewald energy   TEWEN  =     -1396.98354250
  -Hartree energ DENC   =      -133.26720936
  -exchange      EXHF   =         0.00000000
  -V(xc)+E(xc)   XCENC  =       -34.14913379
  PAW double counting   =      1193.78262552    -1080.73714043
  entropy T*S    EENTRO =        -0.00000000
  eigenvalues    EBANDS =      -114.44308265
  atomic energy  EATOM  =      1448.48460880
  Solvation  Ediel_sol  =         0.00000000
  ---------------------------------------------------
  free energy    TOTEN  =       -34.09852811 eV

  energy without entropy =      -34.09852811  energy(sigma->0) =      -34.09852811


--------------------------------------------------------------------------------------------------------




--------------------------------------- Iteration      1(   6)  ---------------------------------------


    POTLOK:  cpu time      0.0053: real time      0.0056
    SETDIJ:  cpu time      0.1378: real time      0.1385
     EDDAV:  cpu time      0.3042: real time      0.3112
       DOS:  cpu time      0.0007: real time      0.0007
    CHARGE:  cpu time      0.0051: real time      0.0052
    MIXING:  cpu time      0.0005: real time      0.0005
    --------------------------------------------
      LOOP:  cpu time      0.4537: real time      0.4617

 eigenvalue-minimisations  :  3024
 total energy-change (2. order) : 0.4914845E+00  (-0.1033547E+00)
 number of electron      40.0000014 magnetization 
 augmentation part       -7.3524449 magnetization 

 Broyden mixing:
  rms(total) = 0.38172E+00    rms(broyden)= 0.38171E+00
  rms(prec ) = 0.40406E+00
  weight for this iteration     100.00

 eigenvalues of (default mixing * dielectric matrix)
  average eigenvalue GAMMA=   1.9941
  1.9941

 Free energy of the ion-electron system (eV)
  ---------------------------------------------------
  alpha Z        PSCENC =        83.21434631
  Ewald energy   TEWEN  =     -1396.98354250
  -Hartree energ DENC   =      -139.64195770
  -exchange      EXHF   =         0.00000000
  -V(xc)+E(xc)   XCENC  =       -33.53602560
  PAW double counting   =      1431.86302958    -1319.10326248
  entropy T*S    EENTRO =        -0.00000000
  eigenvalues    EBANDS =      -107.90424000
  atomic energy  EATOM  =      1448.48460880
  Solvation  Ediel_sol  =         0.00000000
  ---------------------------------------------------
  free energy    TOTEN  =       -33.60704359 eV

  energy without entropy =      -33.60704359  energy(sigma->0) =      -33.60704359


--------------------------------------------------------------------------------------------------------




--------------------------------------- Iteration      1(   7)  ---------------------------------------


    POTLOK:  cpu time      0.0063: real time      0.0065
    SETDIJ:  cpu time      0.1370: real time      0.1378
     EDDAV:  cpu time      0.3091: real time      0.3121
       DOS:  cpu time      0.0006: real time      0.0006
    CHARGE:  cpu time      0.0044: real time      0.0045
    MIXING:  cpu time      0.0005: real time      0.0005
    --------------------------------------------
      LOOP:  cpu time      0.4579: real time      0.4620

 eigenvalue-minimisations  :  3216
 total energy-change (2. order) : 0.7530442E-02  (-0.2618081E-01)
 number of electron      40.0000014 magnetization 
 augmentation part       -7.3445324 magnetization 

 Broyden mixing:
  rms(total) = 0.14668E+00    rms(broyden)= 0.14668E+00
  rms(prec ) = 0.15587E+00
  weight for this iteration     100.00

 eigenvalues of (default mixing * dielectric matrix)
  average eigenvalue GAMMA=   1.7804
  1.1988  2.3621

 Free energy of the ion-electron system (eV)
  ---------------------------------------------------
  alpha Z        PSCENC =        83.21434631
  Ewald energy   TEWEN  =     -1396.98354250
  -Hartree energ DENC   =      -141.77404449
  -exchange      EXHF   =         0.00000000
  -V(xc)+E(xc)   XCENC  =       -33.15182071
  PAW double counting   =      1693.23666334    -1580.64533039
  entropy T*S    EENTRO =        -0.00000000
  eigenvalues    EBANDS =      -105.98039350
  atomic energy  EATOM  =      1448.48460880
  Solvation  Ediel_sol  =         0.00000000
  ---------------------------------------------------
  free energy    TOTEN  =       -33.59951314 eV

  energy without entropy =      -33.59951314  energy(sigma->0) =      -33.59951314


--------------------------------------------------------------------------------------------------------




--------------------------------------- Iteration      1(   8)  ---------------------------------------


    POTLOK:  cpu time      0.0052: real time      0.0054
    SETDIJ:  cpu time      0.1379: real time      0.1386
     EDDAV:  cpu time      0.2819: real time      0.2850
       DOS:  cpu time      0.0006: real time      0.0006
    CHARGE:  cpu time      0.0042: real time      0.0043
    MIXING:  cpu time      0.0005: real time      0.0005
    --------------------------------------------
      LOOP:  cpu time      0.4303: real time      0.4344

 eigenvalue-minimisations  :  2976
 total energy-change (2. order) : 0.7980387E-03  (-0.2684293E-02)
 number of electron      40.0000014 magnetization 
 augmentation part       -7.3561668 magnetization 

 Broyden mixing:
  rms(total) = 0.17539E-01    rms(broyden)= 0.17539E-01
  rms(prec ) = 0.22719E-01
  weight for this iteration     100.00

 eigenvalues of (default mixing * dielectric matrix)
  average eigenvalue GAMMA=   1.6453
  2.4703  1.2328  1.2328

 Free energy of the ion-electron system (eV)
  ---------------------------------------------------
  alpha Z        PSCENC =        83.21434631
  Ewald energy   TEWEN  =     -1396.98354250
  -Hartree energ DENC   =      -141.72998951
  -exchange      EXHF   =         0.00000000
  -V(xc)+E(xc)   XCENC  =       -33.01235597
  PAW double counting   =      1840.56275642    -1728.02514116
  entropy T*S    EENTRO =        -0.00000000
  eigenvalues    EBANDS =      -106.10939749
  atomic energy  EATOM  =      1448.48460880
  Solvation  Ediel_sol  =         0.00000000
  ---------------------------------------------------
  free energy    TOTEN  =       -33.59871511 eV

  energy without entropy =      -33.59871511  energy(sigma->0) =      -33.59871511


--------------------------------------------------------------------------------------------------------




--------------------------------------- Iteration      1(   9)  ---------------------------------------


    POTLOK:  cpu time      0.0053: real time      0.0055
    SETDIJ:  cpu time      0.1378: real time      0.1386
     EDDAV:  cpu time      0.2920: real time      0.2987
       DOS:  cpu time      0.0006: real time      0.0006
    CHARGE:  cpu time      0.0040: real time      0.0040
    MIXING:  cpu time      0.0005: real time      0.0005
    --------------------------------------------
      LOOP:  cpu time      0.4402: real time      0.4479

 eigenvalue-minimisations  :  3104
 total energy-change (2. order) :-0.1323081E-04  (-0.4141742E-03)
 number of electron      40.0000014 magnetization 
 augmentation part       -7.3534279 magnetization 

 Broyden mixing:
  rms(total) = 0.69267E-02    rms(broyden)= 0.69267E-02
  rms(prec ) = 0.79836E-02
  weight for this iteration     100.00

 eigenvalues of (default mixing * dielectric matrix)
  average eigenvalue GAMMA=   1.7905
  2.4294  2.4294  1.1516  1.1516

 Free energy of the ion-electron system (eV)
  ---------------------------------------------------
  alpha Z        PSCENC =        83.21434631
  Ewald energy   TEWEN  =     -1396.98354250
  -Hartree energ DENC   =      -142.16345937
  -exchange      EXHF   =         0.00000000
  -V(xc)+E(xc)   XCENC  =       -32.97117119
  PAW double counting   =      1852.23191645    -1739.70479453
  entropy T*S    EENTRO =        -0.00000000
  eigenvalues    EBANDS =      -105.70663230
  atomic energy  EATOM  =      1448.48460880
  Solvation  Ediel_sol  =         0.00000000
  ---------------------------------------------------
  free energy    TOTEN  =       -33.59872834 eV

  energy without entropy =      -33.59872834  energy(sigma->0) =      -33.59872834


--------------------------------------------------------------------------------------------------------




--------------------------------------- Iteration      1(  10)  ---------------------------------------


    POTLOK:  cpu time      0.0038: real time      0.0039
    SETDIJ:  cpu time      0.1390: real time      0.1394
     EDDAV:  cpu time      0.1913: real time      0.1922
       DOS:  cpu time      0.0003: real time      0.0003
    CHARGE:  cpu time      0.0038: real time      0.0038
    MIXING:  cpu time      0.0003: real time      0.0003
    --------------------------------------------
      LOOP:  cpu time      0.3385: real time      0.3400

 eigenvalue-minimisations  :  2976
 total energy-change (2. order) :-0.8721307E-04  (-0.4109734E-04)
 number of electron      40.0000014 magnetization 
 augmentation part       -7.3533814 magnetization 

 Broyden mixing:
  rms(total) = 0.23983E-02    rms(broyden)= 0.23983E-02
  rms(prec ) = 0.28775E-02
  weight for this iteration     100.00

 eigenvalues of (default mixing * dielectric matrix)
  average eigenvalue GAMMA=   1.7460
  2.7753  2.5507  1.1720  1.1720  1.0600

 Free energy of the ion-electron system (eV)
  ---------------------------------------------------
  alpha Z        PSCENC =        83.21434631
  Ewald energy   TEWEN  =     -1396.98354250
  -Hartree energ DENC   =      -142.19747541
  -exchange      EXHF   =         0.00000000
  -V(xc)+E(xc)   XCENC  =       -32.96888304
  PAW double counting   =      1845.58643979    -1733.05448983
  entropy T*S    EENTRO =        -0.00000000
  eigenvalues    EBANDS =      -105.67981966
  atomic energy  EATOM  =      1448.48460880
  Solvation  Ediel_sol  =         0.00000000
  ---------------------------------------------------
  free energy    TOTEN  =       -33.59881555 eV

  energy without entropy =      -33.59881555  energy(sigma->0) =      -33.59881555


--------------------------------------------------------------------------------------------------------




--------------------------------------- Iteration      1(  11)  ---------------------------------------


    POTLOK:  cpu time      0.0036: real time      0.0037
    SETDIJ:  cpu time      0.1372: real time      0.1375
     EDDAV:  cpu time      0.1989: real time      0.2001
       DOS:  cpu time      0.0004: real time      0.0004
    CHARGE:  cpu time      0.0034: real time      0.0035
    MIXING:  cpu time      0.0003: real time      0.0003
    --------------------------------------------
      LOOP:  cpu time      0.3438: real time      0.3455

 eigenvalue-minimisations  :  3040
 total energy-change (2. order) :-0.1780961E-04  (-0.3502727E-05)
 number of electron      40.0000014 magnetization 
 augmentation part       -7.3536317 magnetization 

 Broyden mixing:
  rms(total) = 0.12811E-02    rms(broyden)= 0.12811E-02
  rms(prec ) = 0.14507E-02
  weight for this iteration     100.00

 eigenvalues of (default mixing * dielectric matrix)
  average eigenvalue GAMMA=   1.7613
  2.7312  2.7312  1.8190  1.1160  1.1160  1.0543

 Free energy of the ion-electron system (eV)
  ---------------------------------------------------
  alpha Z        PSCENC =        83.21434631
  Ewald energy   TEWEN  =     -1396.98354250
  -Hartree energ DENC   =      -142.21769668
  -exchange      EXHF   =         0.00000000
  -V(xc)+E(xc)   XCENC  =       -32.96409640
  PAW double counting   =      1847.05590859    -1734.52424195
  entropy T*S    EENTRO =        -0.00000000
  eigenvalues    EBANDS =      -105.66411953
  atomic energy  EATOM  =      1448.48460880
  Solvation  Ediel_sol  =         0.00000000
  ---------------------------------------------------
  free energy    TOTEN  =       -33.59883336 eV

  energy without entropy =      -33.59883336  energy(sigma->0) =      -33.59883336


--------------------------------------------------------------------------------------------------------




--------------------------------------- Iteration      1(  12)  ---------------------------------------


    POTLOK:  cpu time      0.0036: real time      0.0037
    SETDIJ:  cpu time      0.1178: real time      0.1182
     EDDAV:  cpu time      0.1883: real time      0.1892
       DOS:  cpu time      0.0003: real time      0.0003
    --------------------------------------------
      LOOP:  cpu time      0.3100: real time      0.3114

 eigenvalue-minimisations  :  3072
 total energy-change (2. order) : 0.4931112E-06  (-0.6804968E-06)
 number of electron      40.0000014 magnetization 
 augmentation part       -7.3536317 magnetization 

 Free energy of the ion-electron system (eV)
  ---------------------------------------------------
  alpha Z        PSCENC =        83.21434631
  Ewald energy   TEWEN  =     -1396.98354250
  -Hartree energ DENC   =      -142.22780648
  -exchange      EXHF   =         0.00000000
  -V(xc)+E(xc)   XCENC  =       -32.96318165
  PAW double counting   =      1846.14427196    -1733.61213885
  entropy T*S    EENTRO =        -0.00000000
  eigenvalues    EBANDS =      -105.65539045
  atomic energy  EATOM  =      1448.48460880
  Solvation  Ediel_sol  =         0.00000000
  ---------------------------------------------------
  free energy    TOTEN  =       -33.59883287 eV

  energy without entropy =      -33.59883287  energy(sigma->0) =      -33.59883287


--------------------------------------------------------------------------------------------------------




 average (electrostatic) potential at core
  the test charge radii are     1.1631  1.0808
  (the norm of the test charge is              1.0000)
       1 -33.9872       2 -33.9872       3 -33.9872       4 -33.9872       5 -55.2971
       6 -55.2971       7 -55.2971       8 -55.2971
 
 
 
 E-fermi :   2.8561     XC(G=0):  -9.0955     alpha+bet : -8.2900

 Fermi energy:         2.8560577198

 k-point     1 :       0.0000    0.0000    0.0000
  band No.  band energies     occupation 
      1     -11.0599      2.00000
      2     -10.7620      2.00000
      3      -9.8105      2.00000
      4      -9.3846      2.00000
      5      -4.9908      2.00000
      6      -4.4888      2.00000
      7      -3.0058      2.00000
      8      -2.9262      2.00000
      9      -1.9836      2.00000
     10      -0.8748      2.00000
     11      -0.4739      2.00000
     12      -0.0931      2.00000
     13      -0.0311      2.00000
     14      -0.0158      2.00000
     15       0.4670      2.00000
     16       1.1106      2.00000
     17       1.6656      2.00000
     18       1.9781      2.00000
     19       2.2169      2.00000
     20       2.2853      2.00000
     21       3.9193      0.00000
     22       5.0881      0.00000
     23       5.1465      0.00000
     24       5.4318      0.00000
     25       5.6279      0.00000
     26       6.2004      0.00000
     27       6.6344      0.00000
     28       6.7080      0.00000
     29       7.4673      0.00000
     30       7.7131      0.00000
     31       8.3595      0.00000
     32       8.4042      0.00000

 k-point     2 :       0.1667    0.0000    0.0000
  band No.  band energies     occupation 
      1     -10.9132      2.00000
      2     -10.6310      2.00000
      3      -9.7567      2.00000
      4      -9.3986      2.00000
      5      -5.2525      2.00000
      6      -4.7985      2.00000
      7      -3.6462      2.00000
      8      -3.3460      2.00000
      9      -1.8174      2.00000
     10      -0.6777      2.00000
     11      -0.3421      2.00000
     12       0.0993      2.00000
     13       0.1117      2.00000
     14       0.1516      2.00000
     15       0.8867      2.00000
     16       1.1554      2.00000
     17       1.7505      2.00000
     18       2.0231      2.00000
     19       2.1672      2.00000
     20       2.2446      2.00000
     21       4.0564      0.00000
     22       5.1351      0.00000
     23       5.2879      0.00000
     24       5.5098      0.00000
     25       5.5121      0.00000
     26       5.8435      0.00000
     27       5.9814      0.00000
     28       6.4898      0.00000
     29       7.0956      0.00000
     30       7.2123      0.00000
     31       7.7330      0.00000
     32       8.1380      0.00000

 k-point     3 :       0.3333    0.0000    0.0000
  band No.  band energies     occupation 
      1     -10.5082      2.00000
      2     -10.2846      2.00000
      3      -9.7055      2.00000
      4      -9.5508      2.00000
      5      -5.6532      2.00000
      6      -5.1774      2.00000
      7      -4.7551      2.00000
      8      -4.2355      2.00000
      9      -1.3230      2.00000
     10      -0.3185      2.00000
     11       0.0815      2.00000
     12       0.4063      2.00000
     13       0.4457      2.00000
     14       0.6311      2.00000
     15       1.1822      2.00000
     16       1.3212      2.00000
     17       1.7032      2.00000
     18       1.8977      2.00000
     19       2.0456      2.00000
     20       2.3843      2.00000
     21       4.0235      0.00000
     22       4.3126      0.00000
     23       4.7535      0.00000
     24       4.9504      0.00000
     25       5.2723      0.00000
     26       5.3188      0.00000
     27       5.4752      0.00000
     28       6.1255      0.00000
     29       6.6019      0.00000
     30       6.6742      0.00000
     31       7.2286      0.00000
     32       8.1035      0.00000

 k-point     4 :       0.5000    0.0000    0.0000
  band No.  band energies     occupation 
      1      -9.9732      2.00000
      2      -9.9732      2.00000
      3      -9.8897      2.00000
      4      -9.8897      2.00000
      5      -5.5421      2.00000
      6      -5.5421      2.00000
      7      -4.9840      2.00000
      8      -4.9840      2.00000
      9      -0.6304      2.00000
     10      -0.6304      2.00000
     11       0.5590      2.00000
     12       0.5590      2.00000
     13       0.7900      2.00000
     14       0.7900      2.00000
     15       1.2594      2.00000
     16       1.2594      2.00000
     17       1.8874      2.00000
     18       1.8874      2.00000
     19       1.8979      2.00000
     20       1.8979      2.00000
     21       4.1976      0.00000
     22       4.1976      0.00000
     23       4.5061      0.00000
     24       4.5061      0.00000
     25       4.9610      0.00000
     26       4.9610      0.00000
     27       5.4225      0.00000
     28       5.4225      0.00000
     29       6.1003      0.00000
     30       6.1003      0.00000
     31       7.7365      0.00000
     32       7.7365      0.00000

 k-point     5 :       0.0000    0.1667    0.0000
  band No.  band energies     occupation 
      1     -10.9367      2.00000
      2     -10.6462      2.00000
      3      -9.8103      2.00000
      4      -9.4227      2.00000
      5      -5.2125      2.00000
      6      -4.5636      2.00000
      7      -3.5354      2.00000
      8      -3.2389      2.00000
      9      -1.7880      2.00000
     10      -0.7059      2.00000
     11      -0.3151      2.00000
     12      -0.0785      2.00000
     13       0.2245      2.00000
     14       0.3574      2.00000
     15       0.5455      2.00000
     16       1.1317      2.00000
     17       1.7216      2.00000
     18       1.9894      2.00000
     19       2.1883      2.00000
     20       2.2386      2.00000
     21       3.9787      0.00000
     22       4.5390      0.00000
     23       5.0046      0.00000
     24       5.1247      0.00000
     25       5.5129      0.00000
     26       5.6567      0.00000
     27       6.1469      0.00000
     28       6.8623      0.00000
     29       6.9219      0.00000
     30       7.5123      0.00000
     31       7.6896      0.00000
     32       8.0561      0.00000

 k-point     6 :       0.1667    0.1667    0.0000
  band No.  band energies     occupation 
      1     -10.7960      2.00000
      2     -10.5221      2.00000
      3      -9.7571      2.00000
      4      -9.4290      2.00000
      5      -5.3454      2.00000
      6      -4.7637      2.00000
      7      -3.8296      2.00000
      8      -3.6252      2.00000
      9      -1.6442      2.00000
     10      -1.1295      2.00000
     11      -0.8587      2.00000
     12       0.0674      2.00000
     13       0.4875      2.00000
     14       0.7053      2.00000
     15       0.8221      2.00000
     16       1.0251      2.00000
     17       1.9538      2.00000
     18       2.0096      2.00000
     19       2.1036      2.00000
     20       2.2545      2.00000
     21       4.0944      0.00000
     22       4.4064      0.00000
     23       4.7571      0.00000
     24       4.8293      0.00000
     25       5.5836      0.00000
     26       5.9004      0.00000
     27       6.4441      0.00000
     28       6.6834      0.00000
     29       7.1000      0.00000
     30       7.2604      0.00000
     31       7.4265      0.00000
     32       8.1291      0.00000

 k-point     7 :       0.1667   -0.1667    0.0000
  band No.  band energies     occupation 
      1     -10.7960      2.00000
      2     -10.5221      2.00000
      3      -9.7571      2.00000
      4      -9.4290      2.00000
      5      -5.3454      2.00000
      6      -4.7637      2.00000
      7      -3.8296      2.00000
      8      -3.6252      2.00000
      9      -1.6442      2.00000
     10      -1.1295      2.00000
     11      -0.8587      2.00000
     12       0.0674      2.00000
     13       0.4875      2.00000
     14       0.7053      2.00000
     15       0.8221      2.00000
     16       1.0251      2.00000
     17       1.9538      2.00000
     18       2.0096      2.00000
     19       2.1036      2.00000
     20       2.2545      2.00000
     21       4.0944      0.00000
     22       4.4064      0.00000
     23       4.7571      0.00000
     24       4.8293      0.00000
     25       5.5836      0.00000
     26       5.9004      0.00000
     27       6.4441      0.00000
     28       6.6834      0.00000
     29       7.1000      0.00000
     30       7.2604      0.00000
     31       7.4265      0.00000
     32       8.1291      0.00000

 k-point     8 :       0.3333    0.1667    0.0000
  band No.  band energies     occupation 
      1     -10.4119      2.00000
      2     -10.1989      2.00000
      3      -9.6973      2.00000
      4      -9.5488      2.00000
      5      -5.5682      2.00000
      6      -5.0654      2.00000
      7      -4.7047      2.00000
      8      -4.3013      2.00000
      9      -1.2137      2.00000
     10      -1.1162      2.00000
     11      -0.8540      2.00000
     12       0.0031      2.00000
     13       0.5659      2.00000
     14       0.6606      2.00000
     15       0.7745      2.00000
     16       1.1862      2.00000
     17       1.3893      2.00000
     18       1.9184      2.00000
     19       1.9324      2.00000
     20       2.2282      2.00000
     21       3.9640      0.00000
     22       4.5218      0.00000
     23       4.9630      0.00000
     24       5.1553      0.00000
     25       5.5201      0.00000
     26       5.8635      0.00000
     27       6.2375      0.00000
     28       6.8854      0.00000
     29       6.9905      0.00000
     30       7.1951      0.00000
     31       7.7347      0.00000
     32       7.7940      0.00000

 k-point     9 :       0.3333   -0.1667    0.0000
  band No.  band energies     occupation 
      1     -10.4119      2.00000
      2     -10.1989      2.00000
      3      -9.6973      2.00000
      4      -9.5488      2.00000
      5      -5.5682      2.00000
      6      -5.0654      2.00000
      7      -4.7047      2.00000
      8      -4.3013      2.00000
      9      -1.2137      2.00000
     10      -1.1162      2.00000
     11      -0.8540      2.00000
     12       0.0031      2.00000
     13       0.5659      2.00000
     14       0.6606      2.00000
     15       0.7745      2.00000
     16       1.1862      2.00000
     17       1.3893      2.00000
     18       1.9184      2.00000
     19       1.9324      2.00000
     20       2.2282      2.00000
     21       3.9640      0.00000
     22       4.5218      0.00000
     23       4.9630      0.00000
     24       5.1553      0.00000
     25       5.5201      0.00000
     26       5.8635      0.00000
     27       6.2375      0.00000
     28       6.8854      0.00000
     29       6.9905      0.00000
     30       7.1951      0.00000
     31       7.7347      0.00000
     32       7.7940      0.00000

 k-point    10 :       0.5000    0.1667    0.0000
  band No.  band energies     occupation 
      1      -9.9186      2.00000
      2      -9.9186      2.00000
      3      -9.8449      2.00000
      4      -9.8449      2.00000
      5      -5.4168      2.00000
      6      -5.4168      2.00000
      7      -4.9187      2.00000
      8      -4.9187      2.00000
      9      -0.7906      2.00000
     10      -0.7906      2.00000
     11      -0.3157      2.00000
     12      -0.3157      2.00000
     13       0.2137      2.00000
     14       0.2137      2.00000
     15       0.8024      2.00000
     16       0.8024      2.00000
     17       1.5255      2.00000
     18       1.5255      2.00000
     19       2.1347      2.00000
     20       2.1347      2.00000
     21       4.2140      0.00000
     22       4.2140      0.00000
     23       5.1722      0.00000
     24       5.1722      0.00000
     25       6.1400      0.00000
     26       6.1400      0.00000
     27       6.1855      0.00000
     28       6.1855      0.00000
     29       6.9199      0.00000
     30       6.9199      0.00000
     31       7.4222      0.00000
     32       7.4222      0.00000

 k-point    11 :       0.0000    0.3333    0.0000
  band No.  band energies     occupation 
      1     -10.6041      2.00000
      2     -10.3323      2.00000
      3      -9.8946      2.00000
      4      -9.5892      2.00000
      5      -5.4689      2.00000
      6      -4.6527      2.00000
      7      -4.5113      2.00000
      8      -3.8732      2.00000
      9      -1.2587      2.00000
     10      -0.2396      2.00000
     11       0.0294      2.00000
     12       0.1168      2.00000
     13       0.6326      2.00000
     14       0.7163      2.00000
     15       0.9227      2.00000
     16       1.0459      2.00000
     17       1.5538      2.00000
     18       1.9236      2.00000
     19       1.9538      2.00000
     20       2.5912      2.00000
     21       3.5576      0.00000
     22       4.0063      0.00000
     23       4.4056      0.00000
     24       4.6145      0.00000
     25       4.6403      0.00000
     26       5.3663      0.00000
     27       5.4103      0.00000
     28       5.5127      0.00000
     29       6.4280      0.00000
     30       6.5719      0.00000
     31       7.7099      0.00000
     32       8.3527      0.00000

 k-point    12 :       0.1667    0.3333    0.0000
  band No.  band energies     occupation 
      1     -10.4827      2.00000
      2     -10.2302      2.00000
      3      -9.8333      2.00000
      4      -9.5677      2.00000
      5      -5.4333      2.00000
      6      -4.6785      2.00000
      7      -4.5231      2.00000
      8      -4.0310      2.00000
      9      -1.2655      2.00000
     10      -1.1621      2.00000
     11      -0.9803      2.00000
     12      -0.1152      2.00000
     13       0.0469      2.00000
     14       0.6111      2.00000
     15       0.9140      2.00000
     16       1.3337      2.00000
     17       1.6922      2.00000
     18       2.0509      2.00000
     19       2.0971      2.00000
     20       2.1369      2.00000
     21       3.8624      0.00000
     22       4.2152      0.00000
     23       4.4588      0.00000
     24       4.6353      0.00000
     25       5.0770      0.00000
     26       5.9605      0.00000
     27       5.9911      0.00000
     28       6.8005      0.00000
     29       6.8323      0.00000
     30       7.3571      0.00000
     31       7.5923      0.00000
     32       8.0380      0.00000

 k-point    13 :       0.1667   -0.3333    0.0000
  band No.  band energies     occupation 
      1     -10.4827      2.00000
      2     -10.2302      2.00000
      3      -9.8333      2.00000
      4      -9.5677      2.00000
      5      -5.4333      2.00000
      6      -4.6785      2.00000
      7      -4.5231      2.00000
      8      -4.0310      2.00000
      9      -1.2655      2.00000
     10      -1.1621      2.00000
     11      -0.9803      2.00000
     12      -0.1152      2.00000
     13       0.0469      2.00000
     14       0.6111      2.00000
     15       0.9140      2.00000
     16       1.3337      2.00000
     17       1.6922      2.00000
     18       2.0509      2.00000
     19       2.0971      2.00000
     20       2.1369      2.00000
     21       3.8624      0.00000
     22       4.2152      0.00000
     23       4.4588      0.00000
     24       4.6353      0.00000
     25       5.0770      0.00000
     26       5.9605      0.00000
     27       5.9911      0.00000
     28       6.8005      0.00000
     29       6.8323      0.00000
     30       7.3571      0.00000
     31       7.5923      0.00000
     32       8.0380      0.00000

 k-point    14 :       0.3333    0.3333    0.0000
  band No.  band energies     occupation 
      1     -10.1648      2.00000
      2      -9.9809      2.00000
      3      -9.7268      2.00000
      4      -9.5870      2.00000
      5      -5.3467      2.00000
      6      -4.7981      2.00000
      7      -4.7052      2.00000
      8      -4.4683      2.00000
      9      -1.8051      2.00000
     10      -1.4780      2.00000
     11      -1.1071      2.00000
     12      -0.8082      2.00000
     13      -0.3012      2.00000
     14       0.1040      2.00000
     15       0.2809      2.00000
     16       0.7635      2.00000
     17       0.9634      2.00000
     18       1.5483      2.00000
     19       1.7225      2.00000
     20       1.9972      2.00000
     21       4.2437      0.00000
     22       5.2630      0.00000
     23       5.9965      0.00000
     24       6.1772      0.00000
     25       6.2420      0.00000
     26       6.5319      0.00000
     27       6.7866      0.00000
     28       7.1590      0.00000
     29       7.4509      0.00000
     30       7.7658      0.00000
     31       8.1101      0.00000
     32       8.4698      0.00000

 k-point    15 :       0.3333   -0.3333    0.0000
  band No.  band energies     occupation 
      1     -10.1648      2.00000
      2      -9.9809      2.00000
      3      -9.7268      2.00000
      4      -9.5870      2.00000
      5      -5.3467      2.00000
      6      -4.7981      2.00000
      7      -4.7052      2.00000
      8      -4.4683      2.00000
      9      -1.8051      2.00000
     10      -1.4780      2.00000
     11      -1.1071      2.00000
     12      -0.8082      2.00000
     13      -0.3012      2.00000
     14       0.1040      2.00000
     15       0.2809      2.00000
     16       0.7635      2.00000
     17       0.9634      2.00000
     18       1.5483      2.00000
     19       1.7225      2.00000
     20       1.9972      2.00000
     21       4.2437      0.00000
     22       5.2630      0.00000
     23       5.9965      0.00000
     24       6.1772      0.00000
     25       6.2420      0.00000
     26       6.5319      0.00000
     27       6.7866      0.00000
     28       7.1590      0.00000
     29       7.4509      0.00000
     30       7.7658      0.00000
     31       8.1101      0.00000
     32       8.4698      0.00000

 k-point    16 :       0.5000    0.3333    0.0000
  band No.  band energies     occupation 
      1      -9.8004      2.00000
      2      -9.8004      2.00000
      3      -9.7543      2.00000
      4      -9.7543      2.00000
      5      -5.1131      2.00000
      6      -5.1131      2.00000
      7      -4.7977      2.00000
      8      -4.7977      2.00000
      9      -1.4674      2.00000
     10      -1.4674      2.00000
     11      -1.2323      2.00000
     12      -1.2323      2.00000
     13      -0.3442      2.00000
     14      -0.3442      2.00000
     15       0.1979      2.00000
     16       0.1979      2.00000
     17       0.9236      2.00000
     18       0.9236      2.00000
     19       1.6976      2.00000
     20       1.6976      2.00000
     21       5.2545      0.00000
     22       5.2545      0.00000
     23       6.4904      0.00000
     24       6.4904      0.00000
     25       6.9609      0.00000
     26       6.9609      0.00000
     27       7.1634      0.00000
     28       7.1634      0.00000
     29       7.9026      0.00000
     30       7.9026      0.00000
     31       8.4040      0.00000
     32       8.4040      0.00000

 k-point    17 :       0.0000    0.5000    0.0000
  band No.  band energies     occupation 
      1     -10.1884      2.00000
      2     -10.1884      2.00000
      3      -9.9268      2.00000
      4      -9.9268      2.00000
      5      -5.2549      2.00000
      6      -5.2549      2.00000
      7      -4.4354      2.00000
      8      -4.4354      2.00000
      9      -0.5131      2.00000
     10      -0.5131      2.00000
     11       0.3465      2.00000
     12       0.3465      2.00000
     13       0.6574      2.00000
     14       0.6574      2.00000
     15       1.3989      2.00000
     16       1.3989      2.00000
     17       1.5050      2.00000
     18       1.5050      2.00000
     19       2.0278      2.00000
     20       2.0278      2.00000
     21       3.7154      0.00000
     22       3.7154      0.00000
     23       4.3490      0.00000
     24       4.3490      0.00000
     25       4.6155      0.00000
     26       4.6155      0.00000
     27       5.4281      0.00000
     28       5.4281      0.00000
     29       5.5077      0.00000
     30       5.5077      0.00000
     31       8.3249      0.00000
     32       8.3249      0.00000

 k-point    18 :       0.1667    0.5000    0.0000
  band No.  band energies     occupation 
      1     -10.0988      2.00000
      2     -10.0988      2.00000
      3      -9.8624      2.00000
      4      -9.8624      2.00000
      5      -5.1786      2.00000
      6      -5.1786      2.00000
      7      -4.4405      2.00000
      8      -4.4405      2.00000
      9      -0.8820      2.00000
     10      -0.8820      2.00000
     11      -0.6085      2.00000
     12      -0.6085      2.00000
     13      -0.1002      2.00000
     14      -0.1002      2.00000
     15       1.1077      2.00000
     16       1.1077      2.00000
     17       1.7734      2.00000
     18       1.7734      2.00000
     19       2.2385      2.00000
     20       2.2385      2.00000
     21       4.0058      0.00000
     22       4.0058      0.00000
     23       4.3506      0.00000
     24       4.3506      0.00000
     25       5.6368      0.00000
     26       5.6368      0.00000
     27       6.2164      0.00000
     28       6.2164      0.00000
     29       6.7079      0.00000
     30       6.7079      0.00000
     31       8.0148      0.00000
     32       8.0148      0.00000

 k-point    19 :       0.3333    0.5000    0.0000
  band No.  band energies     occupation 
      1      -9.8891      2.00000
      2      -9.8891      2.00000
      3      -9.7381      2.00000
      4      -9.7381      2.00000
      5      -5.0261      2.00000
      6      -5.0261      2.00000
      7      -4.5667      2.00000
      8      -4.5667      2.00000
      9      -1.7387      2.00000
     10      -1.7387      2.00000
     11      -1.3023      2.00000
     12      -1.3023      2.00000
     13      -0.3802      2.00000
     14      -0.3802      2.00000
     15       0.3812      2.00000
     16       0.3812      2.00000
     17       0.9633      2.00000
     18       0.9633      2.00000
     19       1.7235      2.00000
     20       1.7235      2.00000
     21       5.2154      0.00000
     22       5.2154      0.00000
     23       6.2282      0.00000
     24       6.2282      0.00000
     25       6.7578      0.00000
     26       6.7578      0.00000
     27       7.2975      0.00000
     28       7.2975      0.00000
     29       7.9522      0.00000
     30       7.9522      0.00000
     31       8.1677      0.00000
     32       8.1677      0.00000

 k-point    20 :       0.5000    0.5000    0.0000
  band No.  band energies     occupation 
      1      -9.7312      2.00000
      2      -9.7312      2.00000
      3      -9.7134      2.00000
      4      -9.7134      2.00000
      5      -4.9023      2.00000
      6      -4.9023      2.00000
      7      -4.7664      2.00000
      8      -4.7664      2.00000
      9      -1.7835      2.00000
     10      -1.7835      2.00000
     11      -1.6347      2.00000
     12      -1.6347      2.00000
     13      -0.5401      2.00000
     14      -0.5401      2.00000
     15      -0.2310      2.00000
     16      -0.2310      2.00000
     17       1.0209      2.00000
     18       1.0209      2.00000
[...]
     32       7.4519      0.00000

 k-point    32 :       0.1667    0.3333    0.5000
  band No.  band energies     occupation 
      1     -10.3813      2.00000
      2     -10.3813      2.00000
      3      -9.6761      2.00000
      4      -9.6761      2.00000
      5      -5.1423      2.00000
      6      -5.1423      2.00000
      7      -4.2307      2.00000
      8      -4.2307      2.00000
      9      -1.1401      2.00000
     10      -1.1401      2.00000
     11      -0.3613      2.00000
     12      -0.3613      2.00000
     13       0.0811      2.00000
     14       0.0811      2.00000
     15       1.0596      2.00000
     16       1.0596      2.00000
     17       1.6955      2.00000
     18       1.6955      2.00000
     19       2.1889      2.00000
     20       2.1889      2.00000
     21       4.2646      0.00000
     22       4.2646      0.00000
     23       4.6525      0.00000
     24       4.6525      0.00000
     25       5.8059      0.00000
     26       5.8059      0.00000
     27       6.1302      0.00000
     28       6.1302      0.00000
     29       7.0129      0.00000
     30       7.0129      0.00000
     31       7.3229      0.00000
     32       7.3229      0.00000

 k-point    33 :       0.1667   -0.3333    0.5000
  band No.  band energies     occupation 
      1     -10.3813      2.00000
      2     -10.3813      2.00000
      3      -9.6761      2.00000
      4      -9.6761      2.00000
      5      -5.1423      2.00000
      6      -5.1423      2.00000
      7      -4.2307      2.00000
      8      -4.2307      2.00000
      9      -1.1401      2.00000
     10      -1.1401      2.00000
     11      -0.3613      2.00000
     12      -0.3613      2.00000
     13       0.0811      2.00000
     14       0.0811      2.00000
     15       1.0596      2.00000
     16       1.0596      2.00000
     17       1.6955      2.00000
     18       1.6955      2.00000
     19       2.1889      2.00000
     20       2.1889      2.00000
     21       4.2646      0.00000
     22       4.2646      0.00000
     23       4.6525      0.00000
     24       4.6525      0.00000
     25       5.8059      0.00000
     26       5.8059      0.00000
     27       6.1302      0.00000
     28       6.1302      0.00000
     29       7.0129      0.00000
     30       7.0129      0.00000
     31       7.3229      0.00000
     32       7.3229      0.00000

 k-point    34 :       0.3333    0.3333    0.5000
  band No.  band energies     occupation 
      1     -10.0890      2.00000
      2     -10.0890      2.00000
      3      -9.6409      2.00000
      4      -9.6409      2.00000
      5      -5.1191      2.00000
      6      -5.1191      2.00000
      7      -4.5615      2.00000
      8      -4.5615      2.00000
      9      -1.6328      2.00000
     10      -1.6328      2.00000
     11      -0.7547      2.00000
     12      -0.7547      2.00000
     13      -0.3111      2.00000
     14      -0.3111      2.00000
     15       0.3802      2.00000
     16       0.3802      2.00000
     17       1.2591      2.00000
     18       1.2591      2.00000
     19       1.9946      2.00000
     20       1.9946      2.00000
     21       5.1930      0.00000
     22       5.1930      0.00000
     23       5.7527      0.00000
     24       5.7527      0.00000
     25       6.2460      0.00000
     26       6.2460      0.00000
     27       6.7234      0.00000
     28       6.7234      0.00000
     29       7.3054      0.00000
     30       7.3054      0.00000
     31       8.3527      0.00000
     32       8.3527      0.00000

 k-point    35 :       0.3333   -0.3333    0.5000
  band No.  band energies     occupation 
      1     -10.0890      2.00000
      2     -10.0890      2.00000
      3      -9.6409      2.00000
      4      -9.6409      2.00000
      5      -5.1191      2.00000
      6      -5.1191      2.00000
      7      -4.5615      2.00000
      8      -4.5615      2.00000
      9      -1.6328      2.00000
     10      -1.6328      2.00000
     11      -0.7547      2.00000
     12      -0.7547      2.00000
     13      -0.3111      2.00000
     14      -0.3111      2.00000
     15       0.3802      2.00000
     16       0.3802      2.00000
     17       1.2591      2.00000
     18       1.2591      2.00000
     19       1.9946      2.00000
     20       1.9946      2.00000
     21       5.1930      0.00000
     22       5.1930      0.00000
     23       5.7527      0.00000
     24       5.7527      0.00000
     25       6.2460      0.00000
     26       6.2460      0.00000
     27       6.7234      0.00000
     28       6.7234      0.00000
     29       7.3054      0.00000
     30       7.3054      0.00000
     31       8.3527      0.00000
     32       8.3527      0.00000

 k-point    36 :       0.5000    0.3333    0.5000
  band No.  band energies     occupation 
      1      -9.7776      2.00000
      2      -9.7776      2.00000
      3      -9.7776      2.00000
      4      -9.7776      2.00000
      5      -4.9637      2.00000
      6      -4.9637      2.00000
      7      -4.9637      2.00000
      8      -4.9637      2.00000
      9      -1.2611      2.00000
     10      -1.2611      2.00000
     11      -1.2611      2.00000
     12      -1.2611      2.00000
     13      -0.3132      2.00000
     14      -0.3132      2.00000
     15      -0.3132      2.00000
     16      -0.3132      2.00000
     17       1.5043      2.00000
     18       1.5043      2.00000
     19       1.5043      2.00000
     20       1.5043      2.00000
     21       5.8119      0.00000
     22       5.8119      0.00000
     23       5.8119      0.00000
     24       5.8119      0.00000
     25       6.7243      0.00000
     26       6.7243      0.00000
     27       6.7243      0.00000
     28       6.7243      0.00000
     29       8.2017      0.00000
     30       8.2017      0.00000
     31       8.2017      0.00000
     32       8.2017      0.00000

 k-point    37 :       0.0000    0.5000    0.5000
  band No.  band energies     occupation 
      1     -10.1840      2.00000
      2     -10.1840      2.00000
      3      -9.9327      2.00000
      4      -9.9327      2.00000
      5      -5.1484      2.00000
      6      -5.1484      2.00000
      7      -4.5956      2.00000
      8      -4.5956      2.00000
      9       0.1424      2.00000
     10       0.1424      2.00000
     11       0.3552      2.00000
     12       0.3552      2.00000
     13       0.4434      2.00000
     14       0.4434      2.00000
     15       0.6453      2.00000
     16       0.6453      2.00000
     17       1.7663      2.00000
     18       1.7663      2.00000
     19       1.8834      2.00000
     20       1.8834      2.00000
     21       3.9021      0.00000
     22       3.9021      0.00000
     23       4.2345      0.00000
     24       4.2345      0.00000
     25       4.7034      0.00000
     26       4.7034      0.00000
     27       5.3890      0.00000
     28       5.3890      0.00000
     29       6.2275      0.00000
     30       6.2275      0.00000
     31       7.3311      0.00000
     32       7.3311      0.00000

 k-point    38 :       0.1667    0.5000    0.5000
  band No.  band energies     occupation 
      1     -10.0948      2.00000
      2     -10.0948      2.00000
      3      -9.8675      2.00000
      4      -9.8675      2.00000
      5      -5.0891      2.00000
      6      -5.0891      2.00000
      7      -4.5700      2.00000
      8      -4.5700      2.00000
      9      -0.7456      2.00000
     10      -0.7456      2.00000
     11      -0.6815      2.00000
     12      -0.6815      2.00000
     13       0.3944      2.00000
     14       0.3944      2.00000
     15       0.5293      2.00000
     16       0.5293      2.00000
     17       1.7028      2.00000
     18       1.7028      2.00000
     19       2.1167      2.00000
     20       2.1167      2.00000
     21       4.3406      0.00000
     22       4.3406      0.00000
     23       4.4182      0.00000
     24       4.4182      0.00000
     25       5.8057      0.00000
     26       5.8057      0.00000
     27       6.2810      0.00000
     28       6.2810      0.00000
     29       6.7420      0.00000
     30       6.7420      0.00000
     31       7.0850      0.00000
     32       7.0850      0.00000

 k-point    39 :       0.3333    0.5000    0.5000
  band No.  band energies     occupation 
      1      -9.8862      2.00000
      2      -9.8862      2.00000
      3      -9.7415      2.00000
      4      -9.7415      2.00000
      5      -4.9786      2.00000
      6      -4.9786      2.00000
      7      -4.6292      2.00000
      8      -4.6292      2.00000
      9      -1.5247      2.00000
     10      -1.5247      2.00000
     11      -1.4858      2.00000
     12      -1.4858      2.00000
     13      -0.1830      2.00000
     14      -0.1830      2.00000
     15      -0.1057      2.00000
     16      -0.1057      2.00000
     17       1.3292      2.00000
     18       1.3292      2.00000
     19       1.6925      2.00000
     20       1.6925      2.00000
     21       5.5860      0.00000
     22       5.5860      0.00000
     23       6.0783      0.00000
     24       6.0783      0.00000
     25       6.4189      0.00000
     26       6.4189      0.00000
     27       6.5514      0.00000
     28       6.5514      0.00000
     29       8.0374      0.00000
     30       8.0374      0.00000
     31       8.1678      0.00000
     32       8.1678      0.00000

 k-point    40 :       0.5000    0.5000    0.5000
  band No.  band energies     occupation 
      1      -9.7223      2.00000
      2      -9.7223      2.00000
      3      -9.7223      2.00000
      4      -9.7223      2.00000
      5      -4.8396      2.00000
      6      -4.8396      2.00000
      7      -4.8396      2.00000
      8      -4.8396      2.00000
      9      -1.5596      2.00000
     10      -1.5596      2.00000
     11      -1.5596      2.00000
     12      -1.5596      2.00000
     13      -0.7298      2.00000
     14      -0.7298      2.00000
     15      -0.7298      2.00000
     16      -0.7298      2.00000
     17       1.5155      2.00000
     18       1.5155      2.00000
     19       1.5155      2.00000
     20       1.5155      2.00000
     21       5.6650      0.00000
     22       5.6650      0.00000
     23       5.6650      0.00000
     24       5.6650      0.00000
     25       7.4827      0.00000
     26       7.4827      0.00000
     27       7.4827      0.00000
     28       7.4827      0.00000
     29       8.9445      0.00000
     30       8.9445      0.00000
     31       8.9445      0.00000
     32       8.9445      0.00000


--------------------------------------------------------------------------------------------------------


 soft charge-density along one line, spin component            1
         0         1         2         3         4         5         6         7         8         9
 total charge-density along one line
 
 pseudopotential strength for first ion, spin component:            1
 14.655  18.288   0.033   0.047  -0.000   0.060   0.085  -0.000
 18.288  22.836   0.042   0.060  -0.000   0.075   0.108  -0.000
  0.033   0.042   3.248  -0.002   0.000   5.530  -0.003   0.000
  0.047   0.060  -0.002   3.242  -0.000  -0.003   5.520  -0.000
 -0.000  -0.000   0.000  -0.000   3.247   0.000  -0.000   5.529
  0.060   0.075   5.530  -0.003   0.000   9.474  -0.005   0.000
  0.085   0.108  -0.003   5.520  -0.000  -0.005   9.458  -0.000
 -0.000  -0.000   0.000  -0.000   5.529   0.000  -0.000   9.472
  0.000   0.000  -0.000  -0.000   0.005  -0.000  -0.000   0.009
 -0.003  -0.004   0.013   0.010  -0.000   0.023   0.018  -0.000
 -0.007  -0.008  -0.003   0.012   0.000  -0.005   0.022   0.000
 -0.000  -0.000  -0.000   0.000   0.013  -0.000   0.000   0.023
 -0.001  -0.001  -0.010  -0.000   0.000  -0.018  -0.000   0.000
 total augmentation occupancy for first ion, spin component:            1
  2.571  -0.601   0.222   0.401   0.000  -0.032  -0.073   0.000   0.000  -0.019   0.012   0.000   0.015
 -0.601   0.621  -0.317  -0.508  -0.000   0.045   0.078   0.000  -0.000   0.016  -0.008  -0.000  -0.015
  0.222  -0.317   1.029  -0.004   0.000  -0.157   0.014   0.000   0.000   0.034  -0.075   0.000   0.017
  0.401  -0.508  -0.004   1.346   0.000   0.013  -0.213   0.000   0.000  -0.028   0.127   0.000  -0.000
  0.000  -0.000   0.000   0.000   1.111  -0.000  -0.000  -0.185   0.109   0.000   0.000   0.028  -0.000
 -0.032   0.045  -0.157   0.013  -0.000   0.027  -0.004   0.000  -0.000  -0.005   0.012  -0.000  -0.003
 -0.073   0.078   0.014  -0.213  -0.000  -0.004   0.039  -0.000  -0.000   0.004  -0.022  -0.000   0.000
  0.000   0.000   0.000   0.000  -0.185   0.000  -0.000   0.034  -0.018   0.000  -0.000  -0.005   0.000
  0.000  -0.000   0.000   0.000   0.109  -0.000  -0.000  -0.018   0.024  -0.000  -0.000   0.001  -0.000
 -0.019   0.016   0.034  -0.028   0.000  -0.005   0.004   0.000  -0.000   0.011  -0.006  -0.000   0.001
  0.012  -0.008  -0.075   0.127   0.000   0.012  -0.022  -0.000  -0.000  -0.006   0.031   0.000  -0.004
  0.000  -0.000   0.000   0.000   0.028  -0.000  -0.000  -0.005   0.001  -0.000   0.000   0.009  -0.000
  0.015  -0.015   0.017  -0.000  -0.000  -0.003   0.000   0.000  -0.000   0.001  -0.004  -0.000   0.007


------------------------ aborting loop because EDIFF is reached ----------------------------------------


    CHARGE:  cpu time      0.0036: real time      0.0036
    FORLOC:  cpu time      0.0001: real time      0.0001
    FORNL :  cpu time      0.0191: real time      0.0192
    STRESS:  cpu time      0.1946: real time      0.1953
    FORCOR:  cpu time      0.0034: real time      0.0034
    FORHAR:  cpu time      0.0009: real time      0.0009
    MIXING:  cpu time      0.0006: real time      0.0006
    OFIELD:  cpu time      0.0000: real time      0.0000

  FORCE on cell =-STRESS in cart. coord.  units (eV):
  Direction    XX          YY          ZZ          XY          YZ          ZX
  --------------------------------------------------------------------------------------
  Alpha Z    83.21435    83.21435    83.21435
  Ewald    -428.00114  -497.01300  -471.97101     0.00000     0.00000    -0.00000
  Hartree    64.25066    42.60177    35.38116     0.00000    -0.00000     0.00000
  E(xc)    -139.87324  -140.15015  -140.78653    -0.00000    -0.00000     0.00000
  Local    -195.11697  -111.41462  -131.13025    -0.00000    -0.00000     0.00000
  n-local   237.49943   236.50253   242.32394     0.00000     0.00000    -0.00000
  augment   -11.29355   -11.86733   -12.22414     0.00000    -0.00000    -0.00000
  Kinetic   383.68977   397.11625   395.95566    -0.00000     0.00000    -0.00000
  Fock        0.00000     0.00000     0.00000     0.00000     0.00000     0.00000
  -------------------------------------------------------------------------------------
  Total      -5.63069    -1.01021     0.76317    -0.00000     0.00000    -0.00000
  in kB     -44.30402    -7.94865     6.00483    -0.00002     0.00000    -0.00000
  external pressure =      -15.42 kB  Pullay stress =        0.00 kB


 VOLUME and BASIS-vectors are now :
 -----------------------------------------------------------------------------
  energy-cutoff  :      360.00
  volume of cell :      203.62
      direct lattice vectors                 reciprocal lattice vectors
     4.250000000  0.000000000  0.000000000     0.235294118  0.000000000  0.000000000
     0.000000000  4.300000000  0.000000000     0.000000000  0.232558140  0.000000000
     0.000000000  0.000000000 11.142221000     0.000000000  0.000000000  0.089748713

  length of vectors
     4.250000000  4.300000000 11.142221000     0.235294118  0.232558140  0.089748713


 FORCES acting on ions
    electron-ion (+dipol)            ewald-force                    non-local-force                 convergence-correction
 -----------------------------------------------------------------------------------------------
   -.736E-06 0.946E+01 0.272E+02   -.563E-15 -.118E+02 -.301E+02   0.294E-06 0.235E+01 0.291E+01   0.115E-06 -.522E-05 -.909E-03
   -.309E-06 0.946E+01 -.272E+02   0.378E-14 -.118E+02 0.301E+02   0.150E-07 0.235E+01 -.291E+01   -.538E-07 -.573E-05 0.910E-03
   0.108E-05 -.946E+01 -.272E+02   -.271E-15 0.118E+02 0.301E+02   -.413E-06 -.235E+01 -.291E+01   -.321E-06 0.544E-05 0.911E-03
   0.894E-07 -.946E+01 0.272E+02   -.857E-14 0.118E+02 -.301E+02   0.171E-07 -.235E+01 0.291E+01   0.263E-06 0.553E-05 -.911E-03
   0.145E-05 -.857E+01 -.294E+02   0.145E-14 0.968E+01 0.314E+02   -.747E-06 -.108E+01 -.192E+01   -.314E-06 0.451E-03 0.216E-02
   0.618E-07 -.857E+01 0.294E+02   0.257E-14 0.968E+01 -.314E+02   0.214E-06 -.108E+01 0.192E+01   0.462E-07 0.450E-03 -.216E-02
   0.180E-06 0.857E+01 0.294E+02   0.565E-14 -.968E+01 -.314E+02   0.844E-07 0.108E+01 0.192E+01   -.710E-06 -.450E-03 -.216E-02
   -.765E-06 0.857E+01 -.294E+02   -.754E-14 -.968E+01 0.314E+02   0.128E-06 0.108E+01 -.192E+01   0.421E-06 -.450E-03 0.216E-02
 -----------------------------------------------------------------------------------------------
   0.106E-05 -.230E-05 0.735E-07   -.350E-14 0.355E-14 0.107E-13   -.407E-06 0.103E-05 0.263E-06   -.553E-06 0.107E-05 -.569E-06
 
 
 POSITION                                       TOTAL-FORCE (eV/Angst)
 -----------------------------------------------------------------------------------
      1.06250      0.43932      1.47434        -0.000000     -0.020391     -0.003777
      3.18750      2.58932      4.09677        -0.000000     -0.020391      0.003776
      3.18750      3.86068      9.66788         0.000000      0.020391      0.003777
      1.06250      1.71068      7.04545         0.000000      0.020391     -0.003776
      1.06250      4.24329      3.97651         0.000000      0.032852      0.010220
      3.18750      2.09329      1.59460         0.000000      0.032852     -0.010218
      3.18750      0.05671      7.16571        -0.000000     -0.032852     -0.010220
      1.06250      2.20671      9.54762        -0.000000     -0.032852      0.010218
 -----------------------------------------------------------------------------------
    total drift:                                0.000000     -0.000000     -0.000000


--------------------------------------------------------------------------------------------------------



  FREE ENERGIE OF THE ION-ELECTRON SYSTEM (eV)
  ---------------------------------------------------
  free  energy   TOTEN  =       -33.59883287 eV

  energy  without entropy=      -33.59883287  energy(sigma->0) =      -33.59883287
 


--------------------------------------------------------------------------------------------------------


    POTLOK:  cpu time      0.1135: real time      0.1142


--------------------------------------------------------------------------------------------------------


     LOOP+:  cpu time      4.8653: real time      4.9159
    4ORBIT:  cpu time      0.0000: real time      0.0000

 total amount of memory used by VASP MPI-rank0    38776. kBytes
=======================================================================

   base      :      30000. kBytes
   nonl-proj :       6893. kBytes
   fftplans  :        320. kBytes
   grid      :        462. kBytes
   one-center:         16. kBytes
   wavefun   :       1085. kBytes
 
  
  
 General timing and accounting informations for this job:
 ========================================================
  
                  Total CPU time used (sec):        5.722
                            User time (sec):        5.408
                          System time (sec):        0.314
                         Elapsed time (sec):        7.116
  
                   Maximum memory used (kb):      190748.
                   Average memory used (kb):          N/A
  
                          Minor page faults:        21982
                          Major page faults:           37
                 Voluntary context switches:         3513
