 running  160 mpi-ranks, with    1 threads/rank, on   10 nodes
 distrk:  each k-point on   80 cores,    2 groups
 distr:  one band on    5 cores,   16 groups
 vasp.6.4.2 20Jul23 (build Oct 12 2023 10:31:02) complex                         
 POSCAR found type information on POSCAR GeSe
 POSCAR found :  2 types and       8 ions
 Reading from existing POTCAR
 scaLAPACK will be used
 Reading from existing POTCAR
 LDA part: xc-table for Pade appr. of Perdew
 POSCAR, INCAR and KPOINTS ok, starting setup
 FFT: planning ... GRIDC
 FFT: planning ... GRID_SOFT
 FFT: planning ... GRID
 WAVECAR not read
 entering main loop
       N       E                     dE             d eps       ncg     rms          rms(c)
DAV:   1     0.133260331773E+03    0.13326E+03   -0.12865E+04  2560   0.772E+02
DAV:   2    -0.250361895864E+02   -0.15830E+03   -0.15364E+03  3744   0.139E+02
DAV:   3    -0.340619772464E+02   -0.90258E+01   -0.90064E+01  3072   0.387E+01
DAV:   4    -0.341277879913E+02   -0.65811E-01   -0.65796E-01  3344   0.379E+00
DAV:   5    -0.341282352778E+02   -0.44729E-03   -0.44728E-03  3088   0.306E-01    0.648E+00
DAV:   6    -0.337236933855E+02    0.40454E+00   -0.81695E-01  3152   0.304E+00    0.407E+00
DAV:   7    -0.337133712538E+02    0.10322E-01   -0.24526E-01  3184   0.175E+00    0.131E+00
DAV:   8    -0.337122486721E+02    0.11226E-02   -0.26080E-02  3024   0.602E-01    0.178E-01
DAV:   9    -0.337126267083E+02   -0.37804E-03   -0.38640E-03  3056   0.269E-01    0.662E-02
DAV:  10    -0.337127896723E+02   -0.16296E-03   -0.36639E-04  3136   0.817E-02    0.240E-02
DAV:  11    -0.337128270891E+02   -0.37417E-04   -0.48144E-05  3120   0.307E-02    0.125E-02
DAV:  12    -0.337128285897E+02   -0.15006E-05   -0.78560E-06  3344   0.114E-02    0.251E-03
DAV:  13    -0.337128294505E+02   -0.86082E-06   -0.10973E-06  1920   0.450E-03
   1 F= -.33712829E+02 E0= -.33712829E+02  d E =-.509306E-14
