 running   32 mpi-ranks, with    1 threads/rank, on    2 nodes
 distrk:  each k-point on   16 cores,    2 groups
 distr:  one band on    1 cores,   16 groups
 vasp.6.4.2 20Jul23 (build Oct 12 2023 10:31:02) complex                         
 POSCAR found type information on POSCAR GeSe
 POSCAR found :  2 types and       4 ions
 Reading from existing POTCAR
 -----------------------------------------------------------------------------
|                                                                             |
|           W    W    AA    RRRRR   N    N  II  N    N   GGGG   !!!           |
|           W    W   A  A   R    R  NN   N  II  NN   N  G    G  !!!           |
|           W    W  A    A  R    R  N N  N  II  N N  N  G       !!!           |
|           W WW W  AAAAAA  RRRRR   N  N N  II  N  N N  G  GGG   !            |
|           WW  WW  A    A  R   R   N   NN  II  N   NN  G    G                |
|           W    W  A    A  R    R  N    N  II  N    N   GGGG   !!!           |
|                                                                             |
|     You use a magnetic or noncollinear calculation, but did not specify     |
|     the initial magnetic moment with the MAGMOM tag. Note that a            |
|     default of 1 will be used for all atoms. This ferromagnetic setup       |
|     may break the symmetry of the crystal, in particular it may rule        |
|     out finding an antiferromagnetic solution. Thence, we recommend         |
|     setting the initial magnetic moment manually or verifying carefully     |
|     that this magnetic setup is desired.                                    |
|                                                                             |
 -----------------------------------------------------------------------------

 scaLAPACK will be used
 Reading from existing POTCAR
 LDA part: xc-table for Pade appr. of Perdew
 -----------------------------------------------------------------------------
|                                                                             |
|           W    W    AA    RRRRR   N    N  II  N    N   GGGG   !!!           |
|           W    W   A  A   R    R  NN   N  II  NN   N  G    G  !!!           |
|           W    W  A    A  R    R  N N  N  II  N N  N  G       !!!           |
|           W WW W  AAAAAA  RRRRR   N  N N  II  N  N N  G  GGG   !            |
|           WW  WW  A    A  R   R   N   NN  II  N   NN  G    G                |
|           W    W  A    A  R    R  N    N  II  N    N   GGGG   !!!           |
|                                                                             |
|     The number of bands has been changed from the values supplied in        |
|     the INCAR file. This is a result of running the parallel version.       |
|     The orbitals not found in the WAVECAR file will be initialized with     |
|     random numbers, which is usually adequate. For correlated               |
|     calculations, however, you should redo the groundstate calculation.     |
|     I found NBANDS = 220. Now, NBANDS = 224.                                |
|                                                                             |
 -----------------------------------------------------------------------------

 POSCAR, INCAR and KPOINTS ok, starting setup
 FFT: planning ... GRIDC
 FFT: planning ... GRID_SOFT
 FFT: planning ... GRID
 WAVECAR not read
 WARNING: random wavefunctions but no delay for mixing, default for NELMDL
 entering main loop
       N       E                     dE             d eps       ncg     rms          rms(c)
DAV:   1     0.965541485681E+02    0.96554E+02   -0.38072E+03 28672   0.596E+01
DAV:   2    -0.105413903782E+02   -0.10710E+03   -0.96480E+02 34336   0.214E+01
DAV:   3    -0.162046218126E+02   -0.56632E+01   -0.55974E+01 34352   0.500E+00
DAV:   4    -0.162381647893E+02   -0.33543E-01   -0.33536E-01 33632   0.351E-01
DAV:   5    -0.162383362247E+02   -0.17144E-03   -0.17143E-03 33264   0.264E-02    0.684E+00
DAV:   6    -0.119942400440E+02    0.42441E+01   -0.40830E+00 31616   0.103E+00    0.450E+00
DAV:   7    -0.113891530150E+02    0.60509E+00   -0.48256E-01 31424   0.400E-01    0.310E+00
DAV:   8    -0.118661615903E+02   -0.47701E+00   -0.13967E-01 33008   0.222E-01    0.209E+00
DAV:   9    -0.127935000149E+02   -0.92734E+00   -0.91065E-02 31584   0.182E-01    0.173E+00
DAV:  10    -0.145939361853E+02   -0.18004E+01   -0.41606E-01 31536   0.363E-01    0.118E+00
DAV:  11    -0.161354211055E+02   -0.15415E+01   -0.36341E-01 32224   0.327E-01    0.609E-01
DAV:  12    -0.163139905545E+02   -0.17857E+00   -0.43388E-02 31296   0.128E-01    0.372E-01
DAV:  13    -0.164715525588E+02   -0.15756E+00   -0.12999E-02 31408   0.790E-02    0.205E-01
DAV:  14    -0.166534212180E+02   -0.18187E+00   -0.18855E-03 32176   0.356E-02    0.116E-01
DAV:  15    -0.167131368284E+02   -0.59716E-01   -0.10358E-03 31552   0.217E-02    0.697E-02
DAV:  16    -0.167396439424E+02   -0.26507E-01   -0.96212E-04 31648   0.194E-02    0.423E-02
DAV:  17    -0.167462409384E+02   -0.65970E-02   -0.18764E-04 32416   0.907E-03    0.287E-02
DAV:  18    -0.167521340727E+02   -0.58931E-02   -0.11396E-04 30912   0.713E-03    0.171E-02
DAV:  19    -0.167552526671E+02   -0.31186E-02   -0.43366E-05 31072   0.464E-03    0.118E-02
DAV:  20    -0.167572080692E+02   -0.19554E-02   -0.22622E-05 31376   0.376E-03    0.760E-03
DAV:  21    -0.167587052055E+02   -0.14971E-02   -0.13555E-05 31040   0.302E-03    0.463E-03
DAV:  22    -0.167593067905E+02   -0.60158E-03   -0.46924E-06 31616   0.189E-03    0.298E-03
DAV:  23    -0.167595849874E+02   -0.27820E-03   -0.20783E-06 30896   0.133E-03    0.180E-03
DAV:  24    -0.167596916155E+02   -0.10663E-03   -0.14211E-06 30544   0.113E-03    0.115E-03
DAV:  25    -0.167597661949E+02   -0.74579E-04   -0.81131E-07 31552   0.837E-04    0.669E-04
DAV:  26    -0.167598034907E+02   -0.37296E-04   -0.22725E-07 32160   0.405E-04    0.420E-04
DAV:  27    -0.167598277356E+02   -0.24245E-04   -0.66604E-08 32240   0.225E-04    0.276E-04
DAV:  28    -0.167598419762E+02   -0.14241E-04   -0.28779E-08 31872   0.162E-04    0.179E-04
DAV:  29    -0.167598511416E+02   -0.91654E-05   -0.12864E-08 32672   0.111E-04    0.123E-04
DAV:  30    -0.167598568628E+02   -0.57212E-05   -0.26372E-09 32224   0.558E-05    0.781E-05
DAV:  31    -0.167598603441E+02   -0.34813E-05   -0.35456E-09 32400   0.451E-05    0.396E-05
DAV:  32    -0.167598610934E+02   -0.74930E-06   -0.22165E-10 32416   0.249E-05
   1 F= -.16759861E+02 E0= -.16759861E+02  d E =-.344365E-21  mag=     0.0000
 writing wavefunctions
