 running  160 mpi-ranks, with    1 threads/rank, on   10 nodes
 distrk:  each k-point on   80 cores,    2 groups
 distr:  one band on    5 cores,   16 groups
 vasp.6.4.2 20Jul23 (build Oct 12 2023 10:31:02) complex                         
 POSCAR found type information on POSCAR GeSe
 POSCAR found :  2 types and       8 ions
 Reading from existing POTCAR
 scaLAPACK will be used
 Reading from existing POTCAR
 LDA part: xc-table for Pade appr. of Perdew
 POSCAR, INCAR and KPOINTS ok, starting setup
 FFT: planning ... GRIDC
 FFT: planning ... GRID_SOFT
 FFT: planning ... GRID
 WAVECAR not read
 entering main loop
       N       E                     dE             d eps       ncg     rms          rms(c)
DAV:   1     0.128473604580E+03    0.12847E+03   -0.12945E+04  2560   0.777E+02
DAV:   2    -0.253696130411E+02   -0.15384E+03   -0.14968E+03  3792   0.140E+02
DAV:   3    -0.334291460437E+02   -0.80595E+01   -0.80467E+01  3024   0.370E+01
DAV:   4    -0.334814776629E+02   -0.52332E-01   -0.52322E-01  3520   0.341E+00
DAV:   5    -0.334817815732E+02   -0.30391E-03   -0.30391E-03  3056   0.251E-01    0.679E+00
DAV:   6    -0.331589379905E+02    0.32284E+00   -0.62415E-01  3232   0.268E+00    0.428E+00
DAV:   7    -0.331365227949E+02    0.22415E-01   -0.20774E-01  2816   0.167E+00    0.115E+00
DAV:   8    -0.331353445648E+02    0.11782E-02   -0.16611E-02  3264   0.509E-01    0.181E-01
DAV:   9    -0.331356104266E+02   -0.26586E-03   -0.28724E-03  3120   0.233E-01    0.628E-02
DAV:  10    -0.331356804502E+02   -0.70024E-04   -0.21468E-04  3520   0.592E-02    0.233E-02
DAV:  11    -0.331357076440E+02   -0.27194E-04   -0.35766E-05  2784   0.274E-02    0.114E-02
DAV:  12    -0.331357086941E+02   -0.10501E-05   -0.48519E-06  3632   0.102E-02    0.286E-03
DAV:  13    -0.331357088795E+02   -0.18542E-06   -0.74260E-07  1600   0.410E-03
   1 F= -.33135709E+02 E0= -.33135709E+02  d E =-.341763E-08
