 vasp.6.4.2 20Jul23 (build Oct 12 2023 10:31:02) complex                         
 executed on              LinuxNV date 2025.05.28  07:35:08
 running  128 mpi-ranks, with    1 threads/rank, on    2 nodes
 distrk:  each k-point on   64 cores,    2 groups
 distr:  one band on NCORE=   4 cores,   16 groups


--------------------------------------------------------------------------------------------------------


 INCAR:
   ENCUT = 360.000000
   SIGMA = 0.050000
   EDIFF = 1.00e-06
   ALGO = Normal
   GGA = PE
   PREC = Normal
   SYSTEM = ./
   ICHARG = 2
   ISMEAR = 0
   ISPIN = 1
   ISTART = 0
   ISYM = 0
   KPAR = 2
   LMAXMIX = 4
   NELM = 100
   NPAR = 16
   LASPH = .TRUE.
   LCHARG = .FALSE.
   LWAVE = .FALSE.

 POTCAR:    PAW_PBE Ge 05Jan2001                  
 POTCAR:    PAW_PBE Se 06Sep2000                  
 POTCAR:    PAW_PBE Ge 05Jan2001                  
   VRHFIN =Ge: s2p2                                                                                 
   LEXCH  = PE                                                                                      
   EATOM  =   104.9960 eV,    7.7170 Ry                                                             
                                                                                                    
   TITEL  = PAW_PBE Ge 05Jan2001                                                                    
   LULTRA =        F    use ultrasoft PP ?                                                          
   IUNSCR =        1    unscreen: 0-lin 1-nonlin 2-no                                               
   RPACOR =    2.170    partial core radius                                                         
   POMASS =   72.610; ZVAL   =    4.000    mass and valenz                                          
   RCORE  =    2.300    outmost cutoff radius                                                       
   RWIGS  =    2.300; RWIGS  =    1.217    wigner-seitz radius (au A)                               
   ENMAX  =  173.807; ENMIN  =  130.355 eV                                                          
   ICORE  =        3    local potential                                                             
   LCOR   =        T    correct aug charges                                                         
   LPAW   =        T    paw PP                                                                      
   EAUG   =  385.843                                                                                
   DEXC   =    0.000                                                                                
   RMAX   =    2.342    core radius for proj-oper                                                   
   RAUG   =    1.300    factor for augmentation sphere                                              
   RDEP   =    2.318    radius for radial grids                                                     
   RDEPT  =    2.103    core radius for aug-charge                                                  
                                                                                                    
   Atomic configuration                                                                             
   10 entries                                                                                       
     n  l   j            E        occ.                                                              
     1  0  0.50    -10959.8463   2.0000                                                             
     2  0  0.50     -1371.6056   2.0000                                                             
     2  1  1.50     -1198.4791   6.0000                                                             
     3  0  0.50      -168.4733   2.0000                                                             
     3  1  1.50      -115.6019   6.0000                                                             
     3  2  2.50       -29.3106  10.0000                                                             
     4  0  0.50       -11.7309   2.0000                                                             
     4  1  0.50        -3.8952   2.0000                                                             
     4  2  1.50        -4.0817   0.0000                                                             
     4  3  2.50        -4.0817   0.0000                                                             
   Description                                                                                      
     l       E           TYP  RCUT    TYP  RCUT                                                     
     0    -11.7309493     23  2.300                                                                 
     0     -7.4578696     23  2.300                                                                 
     1     -3.8952261     23  2.300                                                                 
     1      6.1178114     23  2.300                                                                 
     2     -4.0817478     23  2.300                                                                 
     3     -1.3605826      7  2.300                                                                 
  local pseudopotential read in
  partial core-charges read in
  partial kinetic energy density read in
  atomic valenz-charges read in
  non local Contribution for L=            0  read in
    real space projection operators read in
  non local Contribution for L=            0  read in
    real space projection operators read in
  non local Contribution for L=            1  read in
    real space projection operators read in
  non local Contribution for L=            1  read in
    real space projection operators read in
  non local Contribution for L=            2  read in
    real space projection operators read in
    PAW grid and wavefunctions read in
 
   number of l-projection  operators is LMAX  =            5
   number of lm-projection operators is LMMAX =           13
 
 POTCAR:    PAW_PBE Se 06Sep2000                  
   VRHFIN =Se: s2p4                                                                                 
   LEXCH  = PE                                                                                      
   EATOM  =   257.1286 eV,   18.8984 Ry                                                             
                                                                                                    
   TITEL  = PAW_PBE Se 06Sep2000                                                                    
   LULTRA =        F    use ultrasoft PP ?                                                          
   IUNSCR =        1    unscreen: 0-lin 1-nonlin 2-no                                               
   RPACOR =    1.900    partial core radius                                                         
   POMASS =   78.960; ZVAL   =    6.000    mass and valenz                                          
   RCORE  =    2.100    outmost cutoff radius                                                       
   RWIGS  =    2.200; RWIGS  =    1.164    wigner-seitz radius (au A)                               
   ENMAX  =  211.555; ENMIN  =  158.666 eV                                                          
   ICORE  =        3    local potential                                                             
   LCOR   =        T    correct aug charges                                                         
   LPAW   =        T    paw PP                                                                      
   EAUG   =  446.842                                                                                
   DEXC   =    0.000                                                                                
   RMAX   =    2.147    core radius for proj-oper                                                   
   RAUG   =    1.300    factor for augmentation sphere                                              
   RDEP   =    2.177    radius for radial grids                                                     
   RDEPT  =    1.928    core radius for aug-charge                                                  
                                                                                                    
   Atomic configuration                                                                             
   10 entries                                                                                       
     n  l   j            E        occ.                                                              
     1  0  0.50    -12503.4787   2.0000                                                             
     2  0  0.50     -1606.9547   2.0000                                                             
     2  1  1.50     -1413.3140   6.0000                                                             
     3  0  0.50      -213.4885   2.0000                                                             
     3  1  1.50      -152.9538   6.0000                                                             
     3  2  2.50       -53.1221  10.0000                                                             
     4  0  0.50       -17.2865   2.0000                                                             
     4  1  0.50        -6.5110   4.0000                                                             
     4  2  2.50        -6.8029   0.0000                                                             
     4  3  2.50        -6.8029   0.0000                                                             
   Description                                                                                      
     l       E           TYP  RCUT    TYP  RCUT                                                     
     0    -17.2865377     23  2.100                                                                 
     0    -15.3094411     23  2.100                                                                 
     1     -6.5110275     23  2.100                                                                 
     1     -0.0695192     23  2.100                                                                 
     2     -6.8029130     23  2.100                                                                 
     3     -1.3605826      7  2.100                                                                 
  local pseudopotential read in
  partial core-charges read in
  partial kinetic energy density read in
  atomic valenz-charges read in
  non local Contribution for L=            0  read in
    real space projection operators read in
  non local Contribution for L=            0  read in
    real space projection operators read in
  non local Contribution for L=            1  read in
    real space projection operators read in
  non local Contribution for L=            1  read in
    real space projection operators read in
  non local Contribution for L=            2  read in
    real space projection operators read in
    PAW grid and wavefunctions read in
 
   number of l-projection  operators is LMAX  =            5
   number of lm-projection operators is LMMAX =           13
 
  PAW_PBE Ge 05Jan2001                  :
 energy of atom  1       EATOM= -104.9960
 kinetic energy error for atom=    0.0005 (will be added to EATOM!!)
  PAW_PBE Se 06Sep2000                  :
 energy of atom  2       EATOM= -257.1286
 kinetic energy error for atom=    0.0030 (will be added to EATOM!!)
 
 
 POSCAR: Ge Se
  positions in cartesian coordinates
  No initial velocities read in
 exchange correlation table for  LEXCH =        8
   RHO(1)=    0.500       N(1)  =     2000
   RHO(2)=  100.500       N(2)  =     4000
 


--------------------------------------------------------------------------------------------------------


 ion  position               nearest neighbor table
   1  0.103  0.250  0.126-   5 2.59   6 2.60   6 2.60
   2  0.603  0.750  0.374-   6 2.59   5 2.60   5 2.60
   3  0.897  0.750  0.874-   7 2.59   8 2.60   8 2.60
   4  0.397  0.250  0.626-   8 2.59   7 2.60   7 2.60
   5  0.006  0.250  0.355-   1 2.59   2 2.60   2 2.60
   6  0.506  0.750  0.145-   2 2.59   1 2.60   1 2.60
   7  0.994  0.750  0.645-   3 2.59   4 2.60   4 2.60
   8  0.494  0.250  0.855-   4 2.59   3 2.60   3 2.60
 

IMPORTANT INFORMATION: All symmetrisations will be switched off!
NOSYMM: (Re-)initialisation of all symmetry stuff for point group C_1.


----------------------------------------------------------------------------------------

                                     Primitive cell                                     

  volume of cell :     184.6823

  direct lattice vectors                    reciprocal lattice vectors
     4.250000000  0.000000000  0.000000000     0.235294118  0.000000000  0.000000000
     0.000000000  3.900000000  0.000000000     0.000000000  0.256410256  0.000000000
     0.000000000  0.000000000 11.142221000     0.000000000  0.000000000  0.089748713

  length of vectors
     4.250000000  3.900000000 11.142221000     0.235294118  0.256410256  0.089748713

  position of ions in fractional coordinates (direct lattice)
     0.102600695  0.250000000  0.125914682
     0.602600695  0.750000000  0.374085318
     0.897399305  0.750000000  0.874085318
     0.397399305  0.250000000  0.625914682
     0.005613121  0.250000000  0.355491856
     0.505613121  0.750000000  0.144508144
     0.994386879  0.750000000  0.644508144
     0.494386879  0.250000000  0.855491856

  ion indices of the primitive-cell ions
   primitive index   ion index
                 1           1
                 2           2
                 3           3
                 4           4
                 5           5
                 6           6
                 7           7
                 8           8

----------------------------------------------------------------------------------------

 
 
 KPOINTS: KPOINTS created by Atomic Simulation Env

Automatic generation of k-mesh.
 Grid dimensions read from file:
 generate k-points for:    6    6    2

 Generating k-lattice:

  Cartesian coordinates                     Fractional coordinates (reciprocal lattice)
     0.039215686  0.000000000  0.000000000     0.166666667  0.000000000  0.000000000
     0.000000000  0.042735043  0.000000000     0.000000000  0.166666667  0.000000000
     0.000000000  0.000000000  0.044874357     0.000000000  0.000000000  0.500000000

  Length of vectors
     0.039215686  0.042735043  0.044874357

  Shift w.r.t. Gamma in fractional coordinates (k-lattice)
     0.000000000  0.000000000  0.000000000

 
 Subroutine IBZKPT returns following result:
 ===========================================
 
 Found     40 irreducible k-points:
 
 Following reciprocal coordinates:
            Coordinates               Weight
  0.000000  0.000000  0.000000      1.000000
  0.166667  0.000000  0.000000      2.000000
  0.333333  0.000000  0.000000      2.000000
  0.500000  0.000000  0.000000      1.000000
  0.000000  0.166667  0.000000      2.000000
  0.166667  0.166667  0.000000      2.000000
 -0.166667  0.166667  0.000000      2.000000
  0.333333  0.166667  0.000000      2.000000
 -0.333333  0.166667  0.000000      2.000000
  0.500000  0.166667  0.000000      2.000000
  0.000000  0.333333  0.000000      2.000000
  0.166667  0.333333  0.000000      2.000000
 -0.166667  0.333333  0.000000      2.000000
  0.333333  0.333333  0.000000      2.000000
 -0.333333  0.333333  0.000000      2.000000
  0.500000  0.333333  0.000000      2.000000
  0.000000  0.500000  0.000000      1.000000
  0.166667  0.500000  0.000000      2.000000
  0.333333  0.500000  0.000000      2.000000
  0.500000  0.500000  0.000000      1.000000
  0.000000  0.000000  0.500000      1.000000
  0.166667  0.000000  0.500000      2.000000
  0.333333  0.000000  0.500000      2.000000
  0.500000  0.000000  0.500000      1.000000
  0.000000  0.166667  0.500000      2.000000
  0.166667  0.166667  0.500000      2.000000
 -0.166667  0.166667  0.500000      2.000000
  0.333333  0.166667  0.500000      2.000000
 -0.333333  0.166667  0.500000      2.000000
  0.500000  0.166667  0.500000      2.000000
  0.000000  0.333333  0.500000      2.000000
  0.166667  0.333333  0.500000      2.000000
 -0.166667  0.333333  0.500000      2.000000
  0.333333  0.333333  0.500000      2.000000
 -0.333333  0.333333  0.500000      2.000000
  0.500000  0.333333  0.500000      2.000000
  0.000000  0.500000  0.500000      1.000000
  0.166667  0.500000  0.500000      2.000000
  0.333333  0.500000  0.500000      2.000000
  0.500000  0.500000  0.500000      1.000000
 
 Following cartesian coordinates:
            Coordinates               Weight
  0.000000  0.000000  0.000000      1.000000
  0.039216  0.000000  0.000000      2.000000
  0.078431  0.000000  0.000000      2.000000
  0.117647  0.000000  0.000000      1.000000
  0.000000  0.042735  0.000000      2.000000
  0.039216  0.042735  0.000000      2.000000
 -0.039216  0.042735  0.000000      2.000000
  0.078431  0.042735  0.000000      2.000000
 -0.078431  0.042735  0.000000      2.000000
  0.117647  0.042735  0.000000      2.000000
  0.000000  0.085470  0.000000      2.000000
  0.039216  0.085470  0.000000      2.000000
 -0.039216  0.085470  0.000000      2.000000
  0.078431  0.085470  0.000000      2.000000
 -0.078431  0.085470  0.000000      2.000000
  0.117647  0.085470  0.000000      2.000000
  0.000000  0.128205  0.000000      1.000000
  0.039216  0.128205  0.000000      2.000000
  0.078431  0.128205  0.000000      2.000000
  0.117647  0.128205  0.000000      1.000000
  0.000000  0.000000  0.044874      1.000000
  0.039216  0.000000  0.044874      2.000000
  0.078431  0.000000  0.044874      2.000000
  0.117647  0.000000  0.044874      1.000000
  0.000000  0.042735  0.044874      2.000000
  0.039216  0.042735  0.044874      2.000000
 -0.039216  0.042735  0.044874      2.000000
  0.078431  0.042735  0.044874      2.000000
 -0.078431  0.042735  0.044874      2.000000
  0.117647  0.042735  0.044874      2.000000
  0.000000  0.085470  0.044874      2.000000
  0.039216  0.085470  0.044874      2.000000
 -0.039216  0.085470  0.044874      2.000000
  0.078431  0.085470  0.044874      2.000000
 -0.078431  0.085470  0.044874      2.000000
  0.117647  0.085470  0.044874      2.000000
  0.000000  0.128205  0.044874      1.000000
  0.039216  0.128205  0.044874      2.000000
  0.078431  0.128205  0.044874      2.000000
  0.117647  0.128205  0.044874      1.000000
 


--------------------------------------------------------------------------------------------------------




 Dimension of arrays:
   k-points           NKPTS =     40   k-points in BZ     NKDIM =     40   number of bands    NBANDS=     32
   number of dos      NEDOS =    301   number of ions     NIONS =      8
   non local maximal  LDIM  =      5   non local SUM 2l+1 LMDIM =     13
   total plane-waves  NPLWV =  19440
   max r-space proj   IRMAX =      1   max aug-charges    IRDMAX=   5920
   dimension x,y,z NGX =    20 NGY =   18 NGZ =   54
   dimension x,y,z NGXF=    40 NGYF=   36 NGZF=  108
   support grid    NGXF=    40 NGYF=   36 NGZF=  108
   ions per type =               4   4
   NGX,Y,Z   is equivalent  to a cutoff of   7.82,  7.67,  8.06 a.u.
   NGXF,Y,Z  is equivalent  to a cutoff of  15.65, 15.35, 16.11 a.u.

 SYSTEM =  ./                                      
 POSCAR =  Ge Se                                   

 Startparameter for this run:
   NWRITE =      2    write-flag & timer
   PREC   = normal    normal or accurate (medium, high low for compatibility)
   ISTART =      0    job   : 0-new  1-cont  2-samecut
   ICHARG =      2    charge: 1-file 2-atom 10-const
   ISPIN  =      1    spin polarized calculation?
   LNONCOLLINEAR =      F non collinear calculations
   LSORBIT =      F    spin-orbit coupling
   INIWAV =      1    electr: 0-lowe 1-rand  2-diag
   LASPH  =      T    aspherical Exc in radial PAW
 Electronic Relaxation 1
   ENCUT  =  360.0 eV  26.46 Ry    5.14 a.u.   6.58  6.03 17.24*2*pi/ulx,y,z
   ENINI  =  360.0     initial cutoff
   ENAUG  =  446.8 eV  augmentation charge cutoff
   NELM   =    100;   NELMIN=  2; NELMDL= -5     # of ELM steps 
   EDIFF  = 0.1E-05   stopping-criterion for ELM
   LREAL  =      F    real-space projection
   NLSPLINE    = F    spline interpolate recip. space projectors
   LCOMPAT=      F    compatible to vasp.4.4
   GGA_COMPAT  = T    GGA compatible to vasp.4.4-vasp.4.6
   LMAXPAW     = -100 max onsite density
   LMAXMIX     =    4 max onsite mixed and CHGCAR
   VOSKOWN=      0    Vosko Wilk Nusair interpolation
   ROPT   =    0.00000   0.00000
 Ionic relaxation
   EDIFFG = 0.1E-04   stopping-criterion for IOM
   NSW    =      0    number of steps for IOM
   NBLOCK =      1;   KBLOCK =      1    inner block; outer block 
   IBRION =     -1    ionic relax: 0-MD 1-quasi-New 2-CG
   NFREE  =      0    steps in history (QN), initial steepest desc. (CG)
   ISIF   =      2    stress and relaxation
   IWAVPR =     10    prediction:  0-non 1-charg 2-wave 3-comb
   ISYM   =      0    0-nonsym 1-usesym 2-fastsym
   LCORR  =      T    Harris-Foulkes like correction to forces

   POTIM  = 0.5000    time-step for ionic-motion
   TEIN   =    0.0    initial temperature
   TEBEG  =    0.0;   TEEND  =   0.0 temperature during run
   SMASS  =  -3.00    Nose mass-parameter (am)
   estimated Nose-frequenzy (Omega)   =  0.10E-29 period in steps = 0.13E+47 mass=  -0.413E-27a.u.
   SCALEE = 1.0000    scale energy and forces
   NPACO  =    256;   APACO  = 10.0  distance and # of slots for P.C.
   PSTRESS=    0.0 pullay stress

  Mass of Ions in am
   POMASS =  72.61 78.96
  Ionic Valenz
   ZVAL   =   4.00  6.00
  Atomic Wigner-Seitz radii
   RWIGS  =  -1.00 -1.00
  virtual crystal weights 
   VCA    =   1.00  1.00
   NELECT =      40.0000    total number of electrons
   NUPDOWN=      -1.0000    fix difference up-down

 DOS related values:
   EMIN   =  10.00;   EMAX   =-10.00  energy-range for DOS
   EFERMI =   0.00;   METHOD = LEGACY      
   ISMEAR =     0;   SIGMA  =   0.05  broadening in eV -4-tet -1-fermi 0-gaus

 Electronic relaxation 2 (details)
   IALGO  =     38    algorithm
   LDIAG  =      T    sub-space diagonalisation (order eigenvalues)
   LSUBROT=      F    optimize rotation matrix (better conditioning)
   TURBO    =      0    0=normal 1=particle mesh
   IRESTART =      0    0=no restart 2=restart with 2 vectors
   NREBOOT  =      0    no. of reboots
   NMIN     =      0    reboot dimension
   EREF     =   0.00    reference energy to select bands
   IMIX   =      4    mixing-type and parameters
     AMIX     =   0.40;   BMIX     =  1.00
     AMIX_MAG =   1.60;   BMIX_MAG =  1.00
     AMIN     =   0.10
     WC   =   100.;   INIMIX=   1;  MIXPRE=   1;  MAXMIX= -45

 Intra band minimization:
   WEIMIN = 0.0000     energy-eigenvalue tresh-hold
   EBREAK =  0.78E-08  absolut break condition
   DEPER  =   0.30     relativ break condition  

   TIME   =   0.40     timestep for ELM

  volume/ion in A,a.u.               =      23.09       155.79
  Fermi-wavevector in a.u.,A,eV,Ry     =   0.983150  1.857884 13.151169  0.966584
  Thomas-Fermi vector in A             =   2.114286
 
 Write flags
   LWAVE        =      F    write WAVECAR
   LDOWNSAMPLE  =      F    k-point downsampling of WAVECAR
   LCHARG       =      F    write CHGCAR
   LVTOT        =      F    write LOCPOT, total local potential
   LVHAR        =      F    write LOCPOT, Hartree potential only
   LELF         =      F    write electronic localiz. function (ELF)
   LORBIT       =      0    0 simple, 1 ext, 2 COOP (PROOUT), +10 PAW based schemes


 Dipole corrections
   LMONO  =      F    monopole corrections only (constant potential shift)
   LDIPOL =      F    correct potential (dipole corrections)
   IDIPOL =      0    1-x, 2-y, 3-z, 4-all directions 
   EPSILON=  1.0000000 bulk dielectric constant

 Exchange correlation treatment:
   GGA     =    PE    GGA type
   LEXCH   =     8    internal setting for exchange type
   LIBXC   =     F    Libxc                    
   VOSKOWN =     0    Vosko Wilk Nusair interpolation
   LHFCALC =     F    Hartree Fock is set to
   LHFONE  =     F    Hartree Fock one center treatment
   AEXX    =    0.0000 exact exchange contribution

 Linear response parameters
   LEPSILON=     F    determine dielectric tensor
   LRPA    =     F    only Hartree local field effects (RPA)
   LNABLA  =     F    use nabla operator in PAW spheres
   LVEL    =     F    velocity operator in full k-point grid
   CSHIFT  =0.1000    complex shift for real part using Kramers Kronig
   OMEGAMAX=  -1.0    maximum frequency
   DEG_THRESHOLD= 0.2000000E-02 threshold for treating states as degnerate
   RTIME   =   -0.100 relaxation time in fs
  (WPLASMAI=    0.000 imaginary part of plasma frequency in eV, 0.658/RTIME)
   DFIELD  = 0.0000000 0.0000000 0.0000000 field for delta impulse in time
 
  Optional k-point grid parameters
   LKPOINTS_OPT  =     F    use optional k-point grid
   KPOINTS_OPT_MODE=     1    mode for optional k-point grid
 
 Orbital magnetization related:
   ORBITALMAG=     F  switch on orbital magnetization
   LCHIMAG   =     F  perturbation theory with respect to B field
   DQ        =  0.001000  dq finite difference perturbation B field
   LLRAUG    =     F  two centre corrections for induced B field
   LBONE     =     F  B-component reconstruction in AE one-centre
   LVGVCALC  =     T  calculate vGv susceptibility
   LVGVAPPL  =     F  apply vGv susceptibility instead of pGv for G=0

 Random number generation:
   RANDOM_GENERATOR = DEFAULT
   PCG_SEED         = not used


--------------------------------------------------------------------------------------------------------


 Static calculation
 charge density and potential will be updated during run
 non-spin polarized calculation
 Variant of blocked Davidson
 Davidson routine will perform the subspace rotation
 perform sub-space diagonalisation
    after iterative eigenvector-optimisation
 modified Broyden-mixing scheme, WC =      100.0
 initial mixing is a Kerker type mixing with AMIX =  0.4000 and BMIX =      1.0000
 Hartree-type preconditioning will be used
 using additional bands            12
 reciprocal scheme for non local part
 use partial core corrections
 calculate Harris-corrections to forces 
   (improved forces if not selfconsistent)
 use gradient corrections 
 use of overlap-Matrix (Vanderbilt PP)
 Gauss-broadening in eV      SIGMA  =   0.05


--------------------------------------------------------------------------------------------------------


  energy-cutoff  :      360.00
  volume of cell :      184.68
      direct lattice vectors                 reciprocal lattice vectors
     4.250000000  0.000000000  0.000000000     0.235294118  0.000000000  0.000000000
     0.000000000  3.900000000  0.000000000     0.000000000  0.256410256  0.000000000
     0.000000000  0.000000000 11.142221000     0.000000000  0.000000000  0.089748713

  length of vectors
     4.250000000  3.900000000 11.142221000     0.235294118  0.256410256  0.089748713


 
 k-points in units of 2pi/SCALE and weight: KPOINTS created by Atomic Simulation Env
   0.00000000  0.00000000  0.00000000       0.014
   0.03921569  0.00000000  0.00000000       0.028
   0.07843137  0.00000000  0.00000000       0.028
   0.11764706  0.00000000  0.00000000       0.014
   0.00000000  0.04273504  0.00000000       0.028
   0.03921569  0.04273504  0.00000000       0.028
  -0.03921569  0.04273504  0.00000000       0.028
   0.07843137  0.04273504  0.00000000       0.028
  -0.07843137  0.04273504  0.00000000       0.028
   0.11764706  0.04273504  0.00000000       0.028
   0.00000000  0.08547009  0.00000000       0.028
   0.03921569  0.08547009  0.00000000       0.028
  -0.03921569  0.08547009  0.00000000       0.028
   0.07843137  0.08547009  0.00000000       0.028
  -0.07843137  0.08547009  0.00000000       0.028
   0.11764706  0.08547009  0.00000000       0.028
   0.00000000  0.12820513  0.00000000       0.014
   0.03921569  0.12820513  0.00000000       0.028
   0.07843137  0.12820513  0.00000000       0.028
   0.11764706  0.12820513  0.00000000       0.014
   0.00000000  0.00000000  0.04487436       0.014
   0.03921569  0.00000000  0.04487436       0.028
   0.07843137  0.00000000  0.04487436       0.028
   0.11764706  0.00000000  0.04487436       0.014
   0.00000000  0.04273504  0.04487436       0.028
   0.03921569  0.04273504  0.04487436       0.028
  -0.03921569  0.04273504  0.04487436       0.028
   0.07843137  0.04273504  0.04487436       0.028
  -0.07843137  0.04273504  0.04487436       0.028
   0.11764706  0.04273504  0.04487436       0.028
   0.00000000  0.08547009  0.04487436       0.028
   0.03921569  0.08547009  0.04487436       0.028
  -0.03921569  0.08547009  0.04487436       0.028
   0.07843137  0.08547009  0.04487436       0.028
  -0.07843137  0.08547009  0.04487436       0.028
   0.11764706  0.08547009  0.04487436       0.028
   0.00000000  0.12820513  0.04487436       0.014
   0.03921569  0.12820513  0.04487436       0.028
   0.07843137  0.12820513  0.04487436       0.028
   0.11764706  0.12820513  0.04487436       0.014
 
 k-points in reciprocal lattice and weights: KPOINTS created by Atomic Simulation Env
   0.00000000  0.00000000  0.00000000       0.014
   0.16666667  0.00000000  0.00000000       0.028
   0.33333333  0.00000000  0.00000000       0.028
   0.50000000  0.00000000  0.00000000       0.014
   0.00000000  0.16666667  0.00000000       0.028
   0.16666667  0.16666667  0.00000000       0.028
  -0.16666667  0.16666667  0.00000000       0.028
   0.33333333  0.16666667  0.00000000       0.028
  -0.33333333  0.16666667  0.00000000       0.028
   0.50000000  0.16666667  0.00000000       0.028
   0.00000000  0.33333333  0.00000000       0.028
   0.16666667  0.33333333  0.00000000       0.028
  -0.16666667  0.33333333  0.00000000       0.028
   0.33333333  0.33333333  0.00000000       0.028
  -0.33333333  0.33333333  0.00000000       0.028
   0.50000000  0.33333333  0.00000000       0.028
   0.00000000  0.50000000  0.00000000       0.014
   0.16666667  0.50000000  0.00000000       0.028
   0.33333333  0.50000000  0.00000000       0.028
   0.50000000  0.50000000  0.00000000       0.014
   0.00000000  0.00000000  0.50000000       0.014
   0.16666667  0.00000000  0.50000000       0.028
   0.33333333  0.00000000  0.50000000       0.028
   0.50000000  0.00000000  0.50000000       0.014
   0.00000000  0.16666667  0.50000000       0.028
   0.16666667  0.16666667  0.50000000       0.028
  -0.16666667  0.16666667  0.50000000       0.028
   0.33333333  0.16666667  0.50000000       0.028
  -0.33333333  0.16666667  0.50000000       0.028
   0.50000000  0.16666667  0.50000000       0.028
   0.00000000  0.33333333  0.50000000       0.028
   0.16666667  0.33333333  0.50000000       0.028
  -0.16666667  0.33333333  0.50000000       0.028
   0.33333333  0.33333333  0.50000000       0.028
  -0.33333333  0.33333333  0.50000000       0.028
   0.50000000  0.33333333  0.50000000       0.028
   0.00000000  0.50000000  0.50000000       0.014
   0.16666667  0.50000000  0.50000000       0.028
   0.33333333  0.50000000  0.50000000       0.028
   0.50000000  0.50000000  0.50000000       0.014
 
 position of ions in fractional coordinates (direct lattice) 
   0.10260070  0.25000000  0.12591468
   0.60260070  0.75000000  0.37408532
   0.89739930  0.75000000  0.87408532
   0.39739930  0.25000000  0.62591468
   0.00561312  0.25000000  0.35549186
   0.50561312  0.75000000  0.14450814
   0.99438688  0.75000000  0.64450814
   0.49438688  0.25000000  0.85549186
 
 position of ions in cartesian coordinates  (Angst):
   0.43605296  0.97500000  1.40296922
   2.56105296  2.92500000  4.16814128
   3.81394704  2.92500000  9.73925178
   1.68894704  0.97500000  6.97407972
   0.02385576  0.97500000  3.96096882
   2.14885576  2.92500000  1.61014168
   4.22614424  2.92500000  7.18125218
   2.10114424  0.97500000  9.53207932
 


--------------------------------------------------------------------------------------------------------


 k-point   1 :   0.0000 0.0000 0.0000  plane waves:    2863
 k-point   2 :   0.1667 0.0000 0.0000  plane waves:    2843
 k-point   3 :   0.3333 0.0000 0.0000  plane waves:    2841
 k-point   4 :   0.5000 0.0000 0.0000  plane waves:    2850
 k-point   5 :   0.0000 0.1667 0.0000  plane waves:    2880
 k-point   6 :   0.1667 0.1667 0.0000  plane waves:    2863
 k-point   7 :  -0.1667 0.1667 0.0000  plane waves:    2863
 k-point   8 :   0.3333 0.1667 0.0000  plane waves:    2855
 k-point   9 :  -0.3333 0.1667 0.0000  plane waves:    2855
 k-point  10 :   0.5000 0.1667 0.0000  plane waves:    2858
 k-point  11 :   0.0000 0.3333 0.0000  plane waves:    2882
 k-point  12 :   0.1667 0.3333 0.0000  plane waves:    2873
 k-point  13 :  -0.1667 0.3333 0.0000  plane waves:    2873
 k-point  14 :   0.3333 0.3333 0.0000  plane waves:    2867
 k-point  15 :  -0.3333 0.3333 0.0000  plane waves:    2867
 k-point  16 :   0.5000 0.3333 0.0000  plane waves:    2852
 k-point  17 :   0.0000 0.5000 0.0000  plane waves:    2876
 k-point  18 :   0.1667 0.5000 0.0000  plane waves:    2878
 k-point  19 :   0.3333 0.5000 0.0000  plane waves:    2884
 k-point  20 :   0.5000 0.5000 0.0000  plane waves:    2844
 k-point  21 :   0.0000 0.0000 0.5000  plane waves:    2846
 k-point  22 :   0.1667 0.0000 0.5000  plane waves:    2850
 k-point  23 :   0.3333 0.0000 0.5000  plane waves:    2860
 k-point  24 :   0.5000 0.0000 0.5000  plane waves:    2848
 k-point  25 :   0.0000 0.1667 0.5000  plane waves:    2858
 k-point  26 :   0.1667 0.1667 0.5000  plane waves:    2854
 k-point  27 :  -0.1667 0.1667 0.5000  plane waves:    2854
 k-point  28 :   0.3333 0.1667 0.5000  plane waves:    2862
 k-point  29 :  -0.3333 0.1667 0.5000  plane waves:    2862
 k-point  30 :   0.5000 0.1667 0.5000  plane waves:    2868
 k-point  31 :   0.0000 0.3333 0.5000  plane waves:    2896
 k-point  32 :   0.1667 0.3333 0.5000  plane waves:    2882
 k-point  33 :  -0.1667 0.3333 0.5000  plane waves:    2882
 k-point  34 :   0.3333 0.3333 0.5000  plane waves:    2868
 k-point  35 :  -0.3333 0.3333 0.5000  plane waves:    2868
 k-point  36 :   0.5000 0.3333 0.5000  plane waves:    2856
 k-point  37 :   0.0000 0.5000 0.5000  plane waves:    2888
 k-point  38 :   0.1667 0.5000 0.5000  plane waves:    2888
 k-point  39 :   0.3333 0.5000 0.5000  plane waves:    2872
 k-point  40 :   0.5000 0.5000 0.5000  plane waves:    2848

 maximum and minimum number of plane-waves per node :       738      696

 maximum number of plane-waves:      2896
 maximum index in each direction: 
   IXMAX=    6   IYMAX=    6   IZMAX=   17
   IXMIN=   -7   IYMIN=   -6   IZMIN=  -17


 parallel 3D FFT for wavefunctions:
    minimum data exchange during FFTs selected (reduces bandwidth)
 parallel 3D FFT for charge:
    minimum data exchange during FFTs selected (reduces bandwidth)


 total amount of memory used by VASP MPI-rank0    37921. kBytes
=======================================================================

   base      :      30000. kBytes
   nonl-proj :       6217. kBytes
   fftplans  :        289. kBytes
   grid      :        416. kBytes
   one-center:         16. kBytes
   wavefun   :        983. kBytes
 
     INWAV:  cpu time      0.0000: real time      0.0001
 Broyden mixing: mesh for mixing (old mesh)
   NGX = 13   NGY = 13   NGZ = 35
  (NGX  = 40   NGY  = 36   NGZ  =108)
  gives a total of   5915 points

 initial charge density was supplied:
 charge density of overlapping atoms calculated
 number of electron      40.0000000 magnetization 
 keeping initial charge density in first step


--------------------------------------------------------------------------------------------------------


 Maximum index for augmentation-charges           321 (set IRDMAX)


--------------------------------------------------------------------------------------------------------


 First call to EWALD:  gamma=   0.311
 Maximum number of real-space cells 4x 4x 2
 Maximum number of reciprocal cells 2x 2x 5

    FEWALD:  cpu time      0.0008: real time      0.0008


--------------------------------------- Ionic step        1  -------------------------------------------




--------------------------------------- Iteration      1(   1)  ---------------------------------------


    POTLOK:  cpu time      0.0056: real time      0.0060
    SETDIJ:  cpu time      0.1395: real time      0.1400
     EDDAV:  cpu time      0.2606: real time      0.2634
       DOS:  cpu time      0.0012: real time      0.0012
    --------------------------------------------
      LOOP:  cpu time      0.4069: real time      0.4106

 eigenvalue-minimisations  :  2560
 total energy-change (2. order) : 0.1291306E+03  (-0.1300892E+04)
 number of electron      40.0000000 magnetization 
 augmentation part       40.0000000 magnetization 

 Free energy of the ion-electron system (eV)
  ---------------------------------------------------
  alpha Z        PSCENC =        91.74915106
  Ewald energy   TEWEN  =     -1450.42195954
  -Hartree energ DENC   =      -115.74533467
  -exchange      EXHF   =         0.00000000
  -V(xc)+E(xc)   XCENC  =       -32.88664090
  PAW double counting   =      1193.78262552    -1080.73714043
  entropy T*S    EENTRO =        -0.00544806
  eigenvalues    EBANDS =        74.91070537
  atomic energy  EATOM  =      1448.48460880
  Solvation  Ediel_sol  =         0.00000000
  ---------------------------------------------------
  free energy    TOTEN  =       129.13056715 eV

  energy without entropy =      129.13601521  energy(sigma->0) =      129.13329118


--------------------------------------------------------------------------------------------------------




--------------------------------------- Iteration      1(   2)  ---------------------------------------


     EDDAV:  cpu time      0.3167: real time      0.3200
       DOS:  cpu time      0.0007: real time      0.0007
    --------------------------------------------
      LOOP:  cpu time      0.3174: real time      0.3207

 eigenvalue-minimisations  :  3728
 total energy-change (2. order) :-0.1550331E+03  (-0.1501719E+03)
 number of electron      40.0000000 magnetization 
 augmentation part       40.0000000 magnetization 

 Free energy of the ion-electron system (eV)
  ---------------------------------------------------
  alpha Z        PSCENC =        91.74915106
  Ewald energy   TEWEN  =     -1450.42195954
  -Hartree energ DENC   =      -115.74533467
  -exchange      EXHF   =         0.00000000
  -V(xc)+E(xc)   XCENC  =       -32.88664090
  PAW double counting   =      1193.78262552    -1080.73714043
  entropy T*S    EENTRO =        -0.00000000
  eigenvalues    EBANDS =       -80.12786378
  atomic energy  EATOM  =      1448.48460880
  Solvation  Ediel_sol  =         0.00000000
  ---------------------------------------------------
  free energy    TOTEN  =       -25.90255395 eV

  energy without entropy =      -25.90255395  energy(sigma->0) =      -25.90255395


--------------------------------------------------------------------------------------------------------




--------------------------------------- Iteration      1(   3)  ---------------------------------------


     EDDAV:  cpu time      0.2950: real time      0.2981
       DOS:  cpu time      0.0005: real time      0.0005
    --------------------------------------------
      LOOP:  cpu time      0.2955: real time      0.2987

 eigenvalue-minimisations  :  3232
 total energy-change (2. order) :-0.8172498E+01  (-0.8157183E+01)
 number of electron      40.0000000 magnetization 
 augmentation part       40.0000000 magnetization 

 Free energy of the ion-electron system (eV)
  ---------------------------------------------------
  alpha Z        PSCENC =        91.74915106
  Ewald energy   TEWEN  =     -1450.42195954
  -Hartree energ DENC   =      -115.74533467
  -exchange      EXHF   =         0.00000000
  -V(xc)+E(xc)   XCENC  =       -32.88664090
  PAW double counting   =      1193.78262552    -1080.73714043
  entropy T*S    EENTRO =        -0.00000000
  eigenvalues    EBANDS =       -88.30036221
  atomic energy  EATOM  =      1448.48460880
  Solvation  Ediel_sol  =         0.00000000
  ---------------------------------------------------
  free energy    TOTEN  =       -34.07505238 eV

  energy without entropy =      -34.07505238  energy(sigma->0) =      -34.07505238


--------------------------------------------------------------------------------------------------------




--------------------------------------- Iteration      1(   4)  ---------------------------------------


     EDDAV:  cpu time      0.3100: real time      0.3132
       DOS:  cpu time      0.0005: real time      0.0005
    --------------------------------------------
      LOOP:  cpu time      0.3106: real time      0.3138

 eigenvalue-minimisations  :  3296
 total energy-change (2. order) :-0.5023523E-01  (-0.5023046E-01)
 number of electron      40.0000000 magnetization 
 augmentation part       40.0000000 magnetization 

 Free energy of the ion-electron system (eV)
  ---------------------------------------------------
  alpha Z        PSCENC =        91.74915106
  Ewald energy   TEWEN  =     -1450.42195954
  -Hartree energ DENC   =      -115.74533467
  -exchange      EXHF   =         0.00000000
  -V(xc)+E(xc)   XCENC  =       -32.88664090
  PAW double counting   =      1193.78262552    -1080.73714043
  entropy T*S    EENTRO =        -0.00000000
  eigenvalues    EBANDS =       -88.35059744
  atomic energy  EATOM  =      1448.48460880
  Solvation  Ediel_sol  =         0.00000000
  ---------------------------------------------------
  free energy    TOTEN  =       -34.12528761 eV

  energy without entropy =      -34.12528761  energy(sigma->0) =      -34.12528761


--------------------------------------------------------------------------------------------------------




--------------------------------------- Iteration      1(   5)  ---------------------------------------


     EDDAV:  cpu time      0.2934: real time      0.2969
       DOS:  cpu time      0.0005: real time      0.0005
    CHARGE:  cpu time      0.0041: real time      0.0041
    MIXING:  cpu time      0.0006: real time      0.0006
    --------------------------------------------
      LOOP:  cpu time      0.2987: real time      0.3021

 eigenvalue-minimisations  :  3136
 total energy-change (2. order) :-0.2901746E-03  (-0.2901684E-03)
 number of electron      40.0000024 magnetization 
 augmentation part       -7.4074555 magnetization 

 Broyden mixing:
  rms(total) = 0.65656E+00    rms(broyden)= 0.65655E+00
  rms(prec ) = 0.73242E+00
  weight for this iteration     100.00

 Free energy of the ion-electron system (eV)
  ---------------------------------------------------
  alpha Z        PSCENC =        91.74915106
  Ewald energy   TEWEN  =     -1450.42195954
  -Hartree energ DENC   =      -115.74533467
  -exchange      EXHF   =         0.00000000
  -V(xc)+E(xc)   XCENC  =       -32.88664090
  PAW double counting   =      1193.78262552    -1080.73714043
  entropy T*S    EENTRO =        -0.00000000
  eigenvalues    EBANDS =       -88.35088762
  atomic energy  EATOM  =      1448.48460880
  Solvation  Ediel_sol  =         0.00000000
  ---------------------------------------------------
  free energy    TOTEN  =       -34.12557778 eV

  energy without entropy =      -34.12557778  energy(sigma->0) =      -34.12557778


--------------------------------------------------------------------------------------------------------




--------------------------------------- Iteration      1(   6)  ---------------------------------------


    POTLOK:  cpu time      0.0051: real time      0.0054
    SETDIJ:  cpu time      0.1385: real time      0.1395
     EDDAV:  cpu time      0.2948: real time      0.2977
       DOS:  cpu time      0.0010: real time      0.0010
    CHARGE:  cpu time      0.0046: real time      0.0047
    MIXING:  cpu time      0.0011: real time      0.0011
    --------------------------------------------
      LOOP:  cpu time      0.4452: real time      0.4492

 eigenvalue-minimisations  :  3088
 total energy-change (2. order) : 0.3586375E+00  (-0.7055583E-01)
 number of electron      40.0000024 magnetization 
 augmentation part       -7.3556864 magnetization 

 Broyden mixing:
  rms(total) = 0.41200E+00    rms(broyden)= 0.41200E+00
  rms(prec ) = 0.43144E+00
  weight for this iteration     100.00

 eigenvalues of (default mixing * dielectric matrix)
  average eigenvalue GAMMA=   2.2493
  2.2493

 Free energy of the ion-electron system (eV)
  ---------------------------------------------------
  alpha Z        PSCENC =        91.74915106
  Ewald energy   TEWEN  =     -1450.42195954
  -Hartree energ DENC   =      -121.11348282
  -exchange      EXHF   =         0.00000000
  -V(xc)+E(xc)   XCENC  =       -32.31504183
  PAW double counting   =      1464.21851401    -1351.49679981
  entropy T*S    EENTRO =        -0.00000000
  eigenvalues    EBANDS =       -82.87193013
  atomic energy  EATOM  =      1448.48460880
  Solvation  Ediel_sol  =         0.00000000
  ---------------------------------------------------
  free energy    TOTEN  =       -33.76694026 eV

  energy without entropy =      -33.76694026  energy(sigma->0) =      -33.76694026


--------------------------------------------------------------------------------------------------------




--------------------------------------- Iteration      1(   7)  ---------------------------------------


    POTLOK:  cpu time      0.0068: real time      0.0070
    SETDIJ:  cpu time      0.1375: real time      0.1383
     EDDAV:  cpu time      0.2877: real time      0.2907
       DOS:  cpu time      0.0007: real time      0.0007
    CHARGE:  cpu time      0.0036: real time      0.0036
    MIXING:  cpu time      0.0005: real time      0.0005
    --------------------------------------------
      LOOP:  cpu time      0.4367: real time      0.4407

 eigenvalue-minimisations  :  3200
 total energy-change (2. order) : 0.9281538E-02  (-0.2346364E-01)
 number of electron      40.0000024 magnetization 
 augmentation part       -7.3426426 magnetization 

 Broyden mixing:
  rms(total) = 0.12177E+00    rms(broyden)= 0.12177E+00
  rms(prec ) = 0.13004E+00
  weight for this iteration     100.00

 eigenvalues of (default mixing * dielectric matrix)
  average eigenvalue GAMMA=   1.8125
  1.2323  2.3927

 Free energy of the ion-electron system (eV)
  ---------------------------------------------------
  alpha Z        PSCENC =        91.74915106
  Ewald energy   TEWEN  =     -1450.42195954
  -Hartree energ DENC   =      -123.63351786
  -exchange      EXHF   =         0.00000000
  -V(xc)+E(xc)   XCENC  =       -31.84745700
  PAW double counting   =      1814.21628101    -1701.75636007
  entropy T*S    EENTRO =        -0.00000000
  eigenvalues    EBANDS =       -80.54840512
  atomic energy  EATOM  =      1448.48460880
  Solvation  Ediel_sol  =         0.00000000
  ---------------------------------------------------
  free energy    TOTEN  =       -33.75765872 eV

  energy without entropy =      -33.75765872  energy(sigma->0) =      -33.75765872


--------------------------------------------------------------------------------------------------------




--------------------------------------- Iteration      1(   8)  ---------------------------------------


    POTLOK:  cpu time      0.0050: real time      0.0052
    SETDIJ:  cpu time      0.1373: real time      0.1383
     EDDAV:  cpu time      0.2705: real time      0.2732
       DOS:  cpu time      0.0006: real time      0.0006
    CHARGE:  cpu time      0.0035: real time      0.0035
    MIXING:  cpu time      0.0005: real time      0.0005
    --------------------------------------------
      LOOP:  cpu time      0.4174: real time      0.4213

 eigenvalue-minimisations  :  2944
 total energy-change (2. order) : 0.2487183E-02  (-0.2617953E-02)
 number of electron      40.0000024 magnetization 
 augmentation part       -7.3524619 magnetization 

 Broyden mixing:
  rms(total) = 0.17192E-01    rms(broyden)= 0.17192E-01
  rms(prec ) = 0.20616E-01
  weight for this iteration     100.00

 eigenvalues of (default mixing * dielectric matrix)
  average eigenvalue GAMMA=   1.7244
  2.5260  1.3237  1.3237

 Free energy of the ion-electron system (eV)
  ---------------------------------------------------
  alpha Z        PSCENC =        91.74915106
  Ewald energy   TEWEN  =     -1450.42195954
  -Hartree energ DENC   =      -123.43876884
  -exchange      EXHF   =         0.00000000
  -V(xc)+E(xc)   XCENC  =       -31.74376626
  PAW double counting   =      1943.27841907    -1830.87344285
  entropy T*S    EENTRO =        -0.00000000
  eigenvalues    EBANDS =       -80.78941297
  atomic energy  EATOM  =      1448.48460880
  Solvation  Ediel_sol  =         0.00000000
  ---------------------------------------------------
  free energy    TOTEN  =       -33.75517154 eV

  energy without entropy =      -33.75517154  energy(sigma->0) =      -33.75517154


--------------------------------------------------------------------------------------------------------




--------------------------------------- Iteration      1(   9)  ---------------------------------------


    POTLOK:  cpu time      0.0049: real time      0.0051
    SETDIJ:  cpu time      0.1372: real time      0.1379
     EDDAV:  cpu time      0.2832: real time      0.2861
       DOS:  cpu time      0.0006: real time      0.0006
    CHARGE:  cpu time      0.0034: real time      0.0035
    MIXING:  cpu time      0.0005: real time      0.0005
    --------------------------------------------
      LOOP:  cpu time      0.4298: real time      0.4337

 eigenvalue-minimisations  :  3120
 total energy-change (2. order) :-0.2157461E-03  (-0.3306067E-03)
 number of electron      40.0000024 magnetization 
 augmentation part       -7.3506845 magnetization 

 Broyden mixing:
  rms(total) = 0.61767E-02    rms(broyden)= 0.61767E-02
  rms(prec ) = 0.67974E-02
  weight for this iteration     100.00

 eigenvalues of (default mixing * dielectric matrix)
  average eigenvalue GAMMA=   1.7172
  2.2503  2.2503  1.1842  1.1842

 Free energy of the ion-electron system (eV)
  ---------------------------------------------------
  alpha Z        PSCENC =        91.74915106
  Ewald energy   TEWEN  =     -1450.42195954
  -Hartree energ DENC   =      -123.77318901
  -exchange      EXHF   =         0.00000000
  -V(xc)+E(xc)   XCENC  =       -31.70585860
  PAW double counting   =      1957.53474670    -1845.14106125
  entropy T*S    EENTRO =        -0.00000000
  eigenvalues    EBANDS =       -80.48182544
  atomic energy  EATOM  =      1448.48460880
  Solvation  Ediel_sol  =         0.00000000
  ---------------------------------------------------
  free energy    TOTEN  =       -33.75538728 eV

  energy without entropy =      -33.75538728  energy(sigma->0) =      -33.75538728


--------------------------------------------------------------------------------------------------------




--------------------------------------- Iteration      1(  10)  ---------------------------------------


    POTLOK:  cpu time      0.0049: real time      0.0051
    SETDIJ:  cpu time      0.1373: real time      0.1381
     EDDAV:  cpu time      0.2183: real time      0.2201
       DOS:  cpu time      0.0003: real time      0.0003
    CHARGE:  cpu time      0.0027: real time      0.0027
    MIXING:  cpu time      0.0003: real time      0.0003
    --------------------------------------------
      LOOP:  cpu time      0.3639: real time      0.3666

 eigenvalue-minimisations  :  3136
 total energy-change (2. order) :-0.4138737E-04  (-0.1980926E-04)
 number of electron      40.0000024 magnetization 
 augmentation part       -7.3506760 magnetization 

 Broyden mixing:
  rms(total) = 0.23510E-02    rms(broyden)= 0.23509E-02
  rms(prec ) = 0.27792E-02
  weight for this iteration     100.00

 eigenvalues of (default mixing * dielectric matrix)
  average eigenvalue GAMMA=   1.7610
  2.7499  2.3740  1.2261  1.2275  1.2275

 Free energy of the ion-electron system (eV)
  ---------------------------------------------------
  alpha Z        PSCENC =        91.74915106
  Ewald energy   TEWEN  =     -1450.42195954
  -Hartree energ DENC   =      -123.78231626
  -exchange      EXHF   =         0.00000000
  -V(xc)+E(xc)   XCENC  =       -31.70570282
  PAW double counting   =      1950.63628266    -1838.23747007
  entropy T*S    EENTRO =        -0.00000000
  eigenvalues    EBANDS =       -80.47802250
  atomic energy  EATOM  =      1448.48460880
  Solvation  Ediel_sol  =         0.00000000
  ---------------------------------------------------
  free energy    TOTEN  =       -33.75542867 eV

  energy without entropy =      -33.75542867  energy(sigma->0) =      -33.75542867


--------------------------------------------------------------------------------------------------------




--------------------------------------- Iteration      1(  11)  ---------------------------------------


    POTLOK:  cpu time      0.0034: real time      0.0036
    SETDIJ:  cpu time      0.1367: real time      0.1371
     EDDAV:  cpu time      0.1834: real time      0.1843
       DOS:  cpu time      0.0003: real time      0.0003
    CHARGE:  cpu time      0.0027: real time      0.0027
    MIXING:  cpu time      0.0003: real time      0.0003
    --------------------------------------------
      LOOP:  cpu time      0.3269: real time      0.3284

 eigenvalue-minimisations  :  3008
 total energy-change (2. order) :-0.2147011E-04  (-0.3213846E-05)
 number of electron      40.0000024 magnetization 
 augmentation part       -7.3508866 magnetization 

 Broyden mixing:
  rms(total) = 0.11391E-02    rms(broyden)= 0.11391E-02
  rms(prec ) = 0.12527E-02
  weight for this iteration     100.00

 eigenvalues of (default mixing * dielectric matrix)
  average eigenvalue GAMMA=   1.7110
  2.5211  2.2881  2.1989  1.1854  1.1854  0.8871

 Free energy of the ion-electron system (eV)
  ---------------------------------------------------
  alpha Z        PSCENC =        91.74915106
  Ewald energy   TEWEN  =     -1450.42195954
  -Hartree energ DENC   =      -123.80297802
  -exchange      EXHF   =         0.00000000
  -V(xc)+E(xc)   XCENC  =       -31.70003533
  PAW double counting   =      1952.25186123    -1839.85339383
  entropy T*S    EENTRO =        -0.00000000
  eigenvalues    EBANDS =       -80.46270451
  atomic energy  EATOM  =      1448.48460880
  Solvation  Ediel_sol  =         0.00000000
  ---------------------------------------------------
  free energy    TOTEN  =       -33.75545014 eV

  energy without entropy =      -33.75545014  energy(sigma->0) =      -33.75545014


--------------------------------------------------------------------------------------------------------




--------------------------------------- Iteration      1(  12)  ---------------------------------------


    POTLOK:  cpu time      0.0034: real time      0.0035
    SETDIJ:  cpu time      0.1087: real time      0.1090
     EDDAV:  cpu time      0.1920: real time      0.1930
       DOS:  cpu time      0.0004: real time      0.0003
    --------------------------------------------
      LOOP:  cpu time      0.3045: real time      0.3059

 eigenvalue-minimisations  :  3136
 total energy-change (2. order) : 0.3238394E-06  (-0.4095200E-06)
 number of electron      40.0000024 magnetization 
 augmentation part       -7.3508866 magnetization 

 Free energy of the ion-electron system (eV)
  ---------------------------------------------------
  alpha Z        PSCENC =        91.74915106
  Ewald energy   TEWEN  =     -1450.42195954
  -Hartree energ DENC   =      -123.81335873
  -exchange      EXHF   =         0.00000000
  -V(xc)+E(xc)   XCENC  =       -31.69929298
  PAW double counting   =      1951.62590386    -1839.22723900
  entropy T*S    EENTRO =        -0.00000000
  eigenvalues    EBANDS =       -80.45326329
  atomic energy  EATOM  =      1448.48460880
  Solvation  Ediel_sol  =         0.00000000
  ---------------------------------------------------
  free energy    TOTEN  =       -33.75544982 eV

  energy without entropy =      -33.75544982  energy(sigma->0) =      -33.75544982


--------------------------------------------------------------------------------------------------------




 average (electrostatic) potential at core
  the test charge radii are     1.1631  1.0808
  (the norm of the test charge is              1.0000)
       1 -33.0898       2 -33.0898       3 -33.0898       4 -33.0898       5 -54.5927
       6 -54.5927       7 -54.5927       8 -54.5927
 
 
 
 E-fermi :   3.9839     XC(G=0):  -9.5324     alpha+bet : -9.1403

 Fermi energy:         3.9838572940

 k-point     1 :       0.0000    0.0000    0.0000
  band No.  band energies     occupation 
      1     -10.7456      2.00000
      2     -10.3963      2.00000
      3      -9.4182      2.00000
      4      -8.8638      2.00000
      5      -4.1009      2.00000
      6      -3.5321      2.00000
      7      -1.9620      2.00000
      8      -1.7796      2.00000
      9      -1.6922      2.00000
     10       0.0979      2.00000
     11       0.1625      2.00000
     12       0.2061      2.00000
     13       0.3461      2.00000
     14       0.6249      2.00000
     15       1.4688      2.00000
     16       1.8546      2.00000
     17       2.1148      2.00000
     18       2.2967      2.00000
     19       2.9661      2.00000
     20       3.4557      2.00000
     21       4.2027      0.00000
     22       6.4762      0.00000
     23       6.4992      0.00000
     24       6.6055      0.00000
     25       6.9305      0.00000
     26       7.2585      0.00000
     27       7.5139      0.00000
     28       8.1321      0.00000
     29       8.8577      0.00000
     30       8.9015      0.00000
     31       9.2399      0.00000
     32       9.7195      0.00000

 k-point     2 :       0.1667    0.0000    0.0000
  band No.  band energies     occupation 
      1     -10.6033      2.00000
      2     -10.2611      2.00000
      3      -9.3900      2.00000
      4      -8.8850      2.00000
      5      -4.5659      2.00000
      6      -3.7880      2.00000
      7      -2.8433      2.00000
      8      -2.2841      2.00000
      9      -1.5056      2.00000
     10       0.3469      2.00000
     11       0.3850      2.00000
     12       0.7806      2.00000
     13       0.7931      2.00000
     14       0.9438      2.00000
     15       1.5695      2.00000
     16       2.1641      2.00000
     17       2.2256      2.00000
     18       2.6561      2.00000
     19       2.8554      2.00000
     20       3.3648      2.00000
     21       4.1943      0.00000
     22       5.9391      0.00000
     23       6.4462      0.00000
     24       6.5686      0.00000
     25       6.7267      0.00000
     26       6.8683      0.00000
     27       7.4931      0.00000
     28       7.6529      0.00000
     29       7.9880      0.00000
     30       8.5233      0.00000
     31       8.9457      0.00000
     32       9.0125      0.00000

 k-point     3 :       0.3333    0.0000    0.0000
  band No.  band energies     occupation 
      1     -10.2162      2.00000
      2      -9.8920      2.00000
      3      -9.4248      2.00000
      4      -9.0357      2.00000
      5      -5.1282      2.00000
      6      -4.1500      2.00000
      7      -4.1326      2.00000
      8      -3.2380      2.00000
      9      -0.9583      2.00000
     10       0.6682      2.00000
     11       0.8763      2.00000
     12       1.2488      2.00000
     13       1.5891      2.00000
     14       1.7002      2.00000
     15       1.7179      2.00000
     16       2.1515      2.00000
     17       2.3528      2.00000
     18       2.9663      2.00000
     19       3.2177      2.00000
     20       3.7637      2.00000
     21       4.7530      0.00000
     22       4.7564      0.00000
     23       5.2486      0.00000
     24       5.7138      0.00000
     25       6.0707      0.00000
     26       6.5683      0.00000
     27       6.6239      0.00000
     28       6.7910      0.00000
     29       7.1784      0.00000
     30       7.6008      0.00000
     31       8.5707      0.00000
     32       9.5007      0.00000

 k-point     4 :       0.5000    0.0000    0.0000
  band No.  band energies     occupation 
      1      -9.7329      2.00000
      2      -9.7329      2.00000
      3      -9.4138      2.00000
      4      -9.4138      2.00000
      5      -5.0035      2.00000
      6      -5.0035      2.00000
      7      -3.9812      2.00000
      8      -3.9812      2.00000
      9      -0.1099      2.00000
     10      -0.1099      2.00000
     11       1.4770      2.00000
     12       1.4770      2.00000
     13       1.8050      2.00000
     14       1.8050      2.00000
     15       2.1893      2.00000
     16       2.1893      2.00000
     17       2.8598      2.00000
     18       2.8598      2.00000
     19       3.3414      2.00000
     20       3.3414      2.00000
     21       4.9539      0.00000
     22       4.9539      0.00000
     23       5.5433      0.00000
     24       5.5433      0.00000
     25       5.6285      0.00000
     26       5.6285      0.00000
     27       5.9626      0.00000
     28       5.9626      0.00000
     29       6.6495      0.00000
     30       6.6495      0.00000
     31       9.3572      0.00000
     32       9.3572      0.00000

 k-point     5 :       0.0000    0.1667    0.0000
  band No.  band energies     occupation 
      1     -10.5538      2.00000
      2     -10.2204      2.00000
      3      -9.3023      2.00000
      4      -8.8184      2.00000
      5      -4.4257      2.00000
      6      -3.9498      2.00000
      7      -2.5888      2.00000
      8      -2.3807      2.00000
      9      -1.5221      2.00000
     10       0.0485      2.00000
     11       0.3168      2.00000
     12       0.5351      2.00000
     13       0.5473      2.00000
     14       0.5846      2.00000
     15       1.6563      2.00000
     16       1.8987      2.00000
     17       2.0700      2.00000
     18       2.7276      2.00000
     19       2.9978      2.00000
     20       3.1791      2.00000
     21       4.3698      0.00000
     22       6.0551      0.00000
     23       6.4878      0.00000
     24       6.8929      0.00000
     25       6.9857      0.00000
     26       7.1018      0.00000
     27       7.3806      0.00000
     28       7.5056      0.00000
     29       7.9607      0.00000
     30       8.4490      0.00000
     31       8.9465      0.00000
     32       8.9644      0.00000

 k-point     6 :       0.1667    0.1667    0.0000
  band No.  band energies     occupation 
      1     -10.4173      2.00000
      2     -10.0919      2.00000
      3      -9.2780      2.00000
      4      -8.8364      2.00000
      5      -4.6760      2.00000
      6      -3.9950      2.00000
      7      -3.0287      2.00000
      8      -2.7053      2.00000
      9      -1.3308      2.00000
     10      -0.5684      2.00000
     11      -0.3454      2.00000
     12       0.6226      2.00000
     13       1.0224      2.00000
     14       1.4808      2.00000
     15       1.6479      2.00000
     16       1.6741      2.00000
     17       2.7493      2.00000
     18       2.7567      2.00000
     19       3.0958      2.00000
     20       3.2222      2.00000
     21       4.4165      0.00000
     22       5.4583      0.00000
     23       5.8404      0.00000
     24       5.9699      0.00000
     25       6.8262      0.00000
     26       7.2791      0.00000
     27       7.6149      0.00000
     28       7.7138      0.00000
     29       8.2375      0.00000
     30       8.4402      0.00000
     31       8.4409      0.00000
     32       9.2478      0.00000

 k-point     7 :      -0.1667    0.1667    0.0000
  band No.  band energies     occupation 
      1     -10.4173      2.00000
      2     -10.0919      2.00000
      3      -9.2780      2.00000
      4      -8.8364      2.00000
      5      -4.6760      2.00000
      6      -3.9950      2.00000
      7      -3.0287      2.00000
      8      -2.7053      2.00000
      9      -1.3308      2.00000
     10      -0.5684      2.00000
     11      -0.3454      2.00000
     12       0.6226      2.00000
     13       1.0224      2.00000
     14       1.4808      2.00000
     15       1.6479      2.00000
     16       1.6741      2.00000
     17       2.7493      2.00000
     18       2.7567      2.00000
     19       3.0958      2.00000
     20       3.2222      2.00000
     21       4.4165      0.00000
     22       5.4583      0.00000
     23       5.8404      0.00000
     24       5.9699      0.00000
     25       6.8262      0.00000
     26       7.2791      0.00000
     27       7.6149      0.00000
     28       7.7138      0.00000
     29       8.2375      0.00000
     30       8.4402      0.00000
     31       8.4409      0.00000
     32       9.2478      0.00000

 k-point     8 :       0.3333    0.1667    0.0000
  band No.  band energies     occupation 
      1     -10.0491      2.00000
      2      -9.7448      2.00000
      3      -9.3135      2.00000
      4      -8.9672      2.00000
      5      -5.0190      2.00000
      6      -4.0924      2.00000
      7      -4.0543      2.00000
      8      -3.3076      2.00000
      9      -0.7917      2.00000
     10      -0.6009      2.00000
     11      -0.3591      2.00000
     12       0.6157      2.00000
     13       0.7405      2.00000
     14       1.2996      2.00000
     15       1.6481      2.00000
     16       2.2813      2.00000
     17       2.5578      2.00000
     18       2.9128      2.00000
     19       3.0047      2.00000
     20       3.1698      2.00000
     21       4.6570      0.00000
     22       5.2339      0.00000
     23       5.9083      0.00000
     24       6.1194      0.00000
     25       6.1458      0.00000
     26       6.7043      0.00000
     27       7.3013      0.00000
     28       8.0600      0.00000
     29       8.2718      0.00000
     30       8.4530      0.00000
     31       8.7610      0.00000
     32       9.2042      0.00000

 k-point     9 :      -0.3333    0.1667    0.0000
  band No.  band energies     occupation 
      1     -10.0491      2.00000
      2      -9.7448      2.00000
      3      -9.3135      2.00000
      4      -8.9672      2.00000
      5      -5.0190      2.00000
      6      -4.0924      2.00000
      7      -4.0543      2.00000
      8      -3.3076      2.00000
      9      -0.7917      2.00000
     10      -0.6009      2.00000
     11      -0.3591      2.00000
     12       0.6157      2.00000
     13       0.7405      2.00000
     14       1.2996      2.00000
     15       1.6481      2.00000
     16       2.2813      2.00000
     17       2.5578      2.00000
     18       2.9128      2.00000
     19       3.0047      2.00000
     20       3.1698      2.00000
     21       4.6570      0.00000
     22       5.2339      0.00000
     23       5.9083      0.00000
     24       6.1194      0.00000
     25       6.1458      0.00000
     26       6.7043      0.00000
     27       7.3013      0.00000
     28       8.0600      0.00000
     29       8.2718      0.00000
     30       8.4530      0.00000
     31       8.7610      0.00000
     32       9.2042      0.00000

 k-point    10 :       0.5000    0.1667    0.0000
  band No.  band energies     occupation 
      1      -9.5977      2.00000
      2      -9.5977      2.00000
      3      -9.3046      2.00000
      4      -9.3046      2.00000
      5      -4.8459      2.00000
      6      -4.8459      2.00000
      7      -3.8906      2.00000
      8      -3.8906      2.00000
      9      -0.2206      2.00000
     10      -0.2206      2.00000
     11       0.0849      2.00000
     12       0.0849      2.00000
     13       0.5790      2.00000
     14       0.5790      2.00000
     15       1.9173      2.00000
     16       1.9173      2.00000
     17       2.6289      2.00000
     18       2.6289      2.00000
     19       3.1311      2.00000
     20       3.1311      2.00000
     21       5.0609      0.00000
     22       5.0609      0.00000
     23       5.9397      0.00000
     24       5.9397      0.00000
     25       6.7189      0.00000
     26       6.7189      0.00000
     27       7.5376      0.00000
     28       7.5376      0.00000
     29       8.0580      0.00000
     30       8.0580      0.00000
     31       9.0555      0.00000
     32       9.0555      0.00000

 k-point    11 :       0.0000    0.3333    0.0000
  band No.  band energies     occupation 
      1     -10.0223      2.00000
      2      -9.7528      2.00000
      3      -9.1029      2.00000
      4      -8.8659      2.00000
      5      -5.0242      2.00000
      6      -4.5587      2.00000
      7      -3.9995      2.00000
      8      -3.4543      2.00000
      9      -0.8913      2.00000
     10       0.3680      2.00000
     11       0.7316      2.00000
     12       0.9272      2.00000
     13       1.0093      2.00000
     14       1.0325      2.00000
     15       1.8375      2.00000
     16       1.9801      2.00000
     17       2.4065      2.00000
     18       2.5488      2.00000
     19       2.8730      2.00000
     20       3.2153      2.00000
     21       4.6095      0.00000
     22       4.7882      0.00000
     23       5.3512      0.00000
     24       5.7027      0.00000
     25       5.8996      0.00000
     26       6.1396      0.00000
     27       6.3120      0.00000
     28       7.1200      0.00000
     29       7.4162      0.00000
     30       7.5763      0.00000
     31       8.0125      0.00000
     32       9.0152      0.00000

 k-point    12 :       0.1667    0.3333    0.0000
  band No.  band energies     occupation 
      1      -9.9073      2.00000
      2      -9.6488      2.00000
      3      -9.0806      2.00000
      4      -8.8583      2.00000
      5      -4.9580      2.00000
      6      -4.4267      2.00000
      7      -3.9531      2.00000
      8      -3.5372      2.00000
      9      -0.7539      2.00000
     10      -0.7436      2.00000
     11      -0.4448      2.00000
     12       0.4076      2.00000
     13       1.0307      2.00000
     14       1.4350      2.00000
     15       1.4643      2.00000
     16       1.9858      2.00000
     17       2.0549      2.00000
     18       2.5168      2.00000
     19       2.7050      2.00000
     20       2.9551      2.00000
     21       4.5342      0.00000
     22       5.2350      0.00000
     23       5.7172      0.00000
     24       5.8138      0.00000
     25       6.1237      0.00000
     26       6.9275      0.00000
     27       7.3786      0.00000
     28       7.8654      0.00000
     29       7.8736      0.00000
     30       8.1916      0.00000
     31       8.6920      0.00000
     32       9.1127      0.00000

 k-point    13 :      -0.1667    0.3333    0.0000
  band No.  band energies     occupation 
      1      -9.9073      2.00000
      2      -9.6488      2.00000
      3      -9.0806      2.00000
      4      -8.8583      2.00000
      5      -4.9580      2.00000
      6      -4.4267      2.00000
      7      -3.9531      2.00000
      8      -3.5372      2.00000
      9      -0.7539      2.00000
     10      -0.7436      2.00000
     11      -0.4448      2.00000
     12       0.4076      2.00000
     13       1.0307      2.00000
     14       1.4350      2.00000
     15       1.4643      2.00000
     16       1.9858      2.00000
     17       2.0549      2.00000
     18       2.5168      2.00000
     19       2.7050      2.00000
     20       2.9551      2.00000
     21       4.5342      0.00000
     22       5.2350      0.00000
     23       5.7172      0.00000
     24       5.8138      0.00000
     25       6.1237      0.00000
     26       6.9275      0.00000
     27       7.3786      0.00000
     28       7.8654      0.00000
     29       7.8736      0.00000
     30       8.1916      0.00000
     31       8.6920      0.00000
     32       9.1127      0.00000

 k-point    14 :       0.3333    0.3333    0.0000
  band No.  band energies     occupation 
      1      -9.6089      2.00000
      2      -9.3808      2.00000
      3      -9.0904      2.00000
      4      -8.8952      2.00000
      5      -4.7899      2.00000
      6      -4.1138      2.00000
      7      -4.0543      2.00000
      8      -3.7111      2.00000
      9      -1.4920      2.00000
     10      -1.1543      2.00000
     11      -0.6191      2.00000
     12      -0.3224      2.00000
     13       0.0534      2.00000
     14       0.6143      2.00000
     15       0.9730      2.00000
     16       1.2641      2.00000
     17       1.7585      2.00000
     18       2.0551      2.00000
     19       2.3254      2.00000
     20       2.7054      2.00000
     21       4.7928      0.00000
     22       6.6002      0.00000
     23       6.7812      0.00000
     24       7.0483      0.00000
     25       7.3126      0.00000
     26       7.7427      0.00000
     27       7.9942      0.00000
     28       8.4077      0.00000
     29       8.9268      0.00000
     30       8.9482      0.00000
     31       9.0895      0.00000
     32       9.8609      0.00000

 k-point    15 :      -0.3333    0.3333    0.0000
  band No.  band energies     occupation 
      1      -9.6089      2.00000
      2      -9.3808      2.00000
      3      -9.0904      2.00000
      4      -8.8952      2.00000
      5      -4.7899      2.00000
      6      -4.1138      2.00000
      7      -4.0543      2.00000
      8      -3.7111      2.00000
      9      -1.4920      2.00000
     10      -1.1543      2.00000
     11      -0.6191      2.00000
     12      -0.3224      2.00000
     13       0.0534      2.00000
     14       0.6143      2.00000
     15       0.9730      2.00000
     16       1.2641      2.00000
     17       1.7585      2.00000
     18       2.0551      2.00000
     19       2.3254      2.00000
     20       2.7054      2.00000
     21       4.7928      0.00000
     22       6.6002      0.00000
     23       6.7812      0.00000
     24       7.0483      0.00000
     25       7.3126      0.00000
     26       7.7427      0.00000
     27       7.9942      0.00000
     28       8.4077      0.00000
     29       8.9268      0.00000
     30       8.9482      0.00000
     31       9.0895      0.00000
     32       9.8609      0.00000

 k-point    16 :       0.5000    0.3333    0.0000
  band No.  band energies     occupation 
      1      -9.2740      2.00000
      2      -9.2740      2.00000
      3      -9.0786      2.00000
      4      -9.0786      2.00000
      5      -4.4842      2.00000
      6      -4.4842      2.00000
      7      -3.8387      2.00000
      8      -3.8387      2.00000
      9      -1.3531      2.00000
     10      -1.3531      2.00000
     11      -0.9030      2.00000
     12      -0.9030      2.00000
     13       0.1358      2.00000
     14       0.1358      2.00000
     15       0.9339      2.00000
     16       0.9339      2.00000
     17       1.4188      2.00000
     18       1.4188      2.00000
     19       2.4132      2.00000
     20       2.4132      2.00000
     21       5.7761      0.00000
     22       5.7761      0.00000
     23       7.6974      0.00000
     24       7.6974      0.00000
     25       8.4493      0.00000
     26       8.4493      0.00000
     27       8.4836      0.00000
     28       8.4836      0.00000
     29       8.8778      0.00000
     30       8.8778      0.00000
     31       9.7869      0.00000
     32       9.7869      0.00000

 k-point    17 :       0.0000    0.5000    0.0000
  band No.  band energies     occupation 
      1      -9.3306      2.00000
      2      -9.3306      2.00000
      3      -9.2377      2.00000
      4      -9.2377      2.00000
      5      -4.9891      2.00000
      6      -4.9891      2.00000
      7      -4.3940      2.00000
      8      -4.3940      2.00000
      9       0.0151      2.00000
     10       0.0151      2.00000
     11       1.2213      2.00000
     12       1.2213      2.00000
     13       1.3668      2.00000
     14       1.3668      2.00000
     15       1.9272      2.00000
     16       1.9272      2.00000
     17       2.5844      2.00000
     18       2.5844      2.00000
     19       2.6188      2.00000
     20       2.6188      2.00000
     21       4.9246      0.00000
     22       4.9246      0.00000
     23       4.9346      0.00000
     24       4.9346      0.00000
     25       5.4331      0.00000
     26       5.4331      0.00000
     27       5.9982      0.00000
     28       5.9982      0.00000
     29       6.6324      0.00000
     30       6.6324      0.00000
     31       8.5971      0.00000
     32       8.5971      0.00000

 k-point    18 :       0.1667    0.5000    0.0000
  band No.  band energies     occupation 
      1      -9.2633      2.00000
      2      -9.2633      2.00000
      3      -9.1808      2.00000
      4      -9.1808      2.00000
      5      -4.8398      2.00000
      6      -4.8398      2.00000
      7      -4.3032      2.00000
      8      -4.3032      2.00000
      9      -0.2079      2.00000
     10      -0.2079      2.00000
     11       0.1482      2.00000
     12       0.1482      2.00000
     13       0.7368      2.00000
     14       0.7368      2.00000
     15       1.4617      2.00000
     16       1.4617      2.00000
     17       2.0396      2.00000
     18       2.0396      2.00000
     19       2.7916      2.00000
     20       2.7916      2.00000
     21       4.8056      0.00000
     22       4.8056      0.00000
     23       5.9414      0.00000
     24       5.9414      0.00000
     25       6.8018      0.00000
     26       6.8018      0.00000
     27       6.9204      0.00000
     28       6.9204      0.00000
     29       7.8627      0.00000
     30       7.8627      0.00000
     31       8.2667      0.00000
     32       8.2667      0.00000

 k-point    19 :       0.3333    0.5000    0.0000
  band No.  band energies     occupation 
      1      -9.1163      2.00000
      2      -9.1163      2.00000
      3      -9.0633      2.00000
      4      -9.0633      2.00000
      5      -4.4679      2.00000
      6      -4.4679      2.00000
      7      -4.1210      2.00000
      8      -4.1210      2.00000
      9      -1.1599      2.00000
     10      -1.1599      2.00000
     11      -0.7622      2.00000
     12      -0.7622      2.00000
     13       0.0033      2.00000
     14       0.0033      2.00000
     15       0.7294      2.00000
     16       0.7294      2.00000
     17       1.3188      2.00000
     18       1.3188      2.00000
     19       2.3514      2.00000
     20       2.3514      2.00000
     21       5.8655      0.00000
     22       5.8655      0.00000
     23       7.3762      0.00000
     24       7.3762      0.00000
     25       8.0969      0.00000
     26       8.0969      0.00000
     27       8.2570      0.00000
     28       8.2570      0.00000
     29       8.7237      0.00000
     30       8.7237      0.00000
     31       9.7973      0.00000
     32       9.7973      0.00000

 k-point    20 :       0.5000    0.5000    0.0000
  band No.  band energies     occupation 
      1      -9.0309      2.00000
      2      -9.0309      2.00000
      3      -9.0073      2.00000
      4      -9.0073      2.00000
      5      -4.2046      2.00000
      6      -4.2046      2.00000
      7      -4.0521      2.00000
      8      -4.0521      2.00000
      9      -1.5577      2.00000
     10      -1.5577      2.00000
     11      -1.2026      2.00000
     12      -1.2026      2.00000
     13      -0.2960      2.00000
     14      -0.2960      2.00000
     15       0.1683      2.00000
     16       0.1683      2.00000
     17       1.4581      2.00000
     18       1.4581      2.00000
[...]
     32       7.9281      0.00000

 k-point    32 :       0.1667    0.3333    0.5000
  band No.  band energies     occupation 
      1      -9.7984      2.00000
      2      -9.7984      2.00000
      3      -8.9477      2.00000
      4      -8.9477      2.00000
      5      -4.7312      2.00000
      6      -4.7312      2.00000
      7      -3.7490      2.00000
      8      -3.7490      2.00000
      9      -0.6501      2.00000
     10      -0.6501      2.00000
     11       0.1617      2.00000
     12       0.1617      2.00000
     13       0.8533      2.00000
     14       0.8533      2.00000
     15       1.7512      2.00000
     16       1.7512      2.00000
     17       2.1055      2.00000
     18       2.1055      2.00000
     19       2.9107      2.00000
     20       2.9107      2.00000
     21       5.4109      0.00000
     22       5.4109      0.00000
     23       5.7778      0.00000
     24       5.7778      0.00000
     25       6.7671      0.00000
     26       6.7671      0.00000
     27       7.0737      0.00000
     28       7.0737      0.00000
     29       7.7023      0.00000
     30       7.7023      0.00000
     31       8.8172      0.00000
     32       8.8172      0.00000

 k-point    33 :      -0.1667    0.3333    0.5000
  band No.  band energies     occupation 
      1      -9.7984      2.00000
      2      -9.7984      2.00000
      3      -8.9477      2.00000
      4      -8.9477      2.00000
      5      -4.7312      2.00000
      6      -4.7312      2.00000
      7      -3.7490      2.00000
      8      -3.7490      2.00000
      9      -0.6501      2.00000
     10      -0.6501      2.00000
     11       0.1617      2.00000
     12       0.1617      2.00000
     13       0.8533      2.00000
     14       0.8533      2.00000
     15       1.7512      2.00000
     16       1.7512      2.00000
     17       2.1055      2.00000
     18       2.1055      2.00000
     19       2.9107      2.00000
     20       2.9107      2.00000
     21       5.4109      0.00000
     22       5.4109      0.00000
     23       5.7778      0.00000
     24       5.7778      0.00000
     25       6.7671      0.00000
     26       6.7671      0.00000
     27       7.0737      0.00000
     28       7.0737      0.00000
     29       7.7023      0.00000
     30       7.7023      0.00000
     31       8.8172      0.00000
     32       8.8172      0.00000

 k-point    34 :       0.3333    0.3333    0.5000
  band No.  band energies     occupation 
      1      -9.5174      2.00000
      2      -9.5174      2.00000
      3      -8.9704      2.00000
      4      -8.9704      2.00000
      5      -4.5293      2.00000
      6      -4.5293      2.00000
      7      -3.8336      2.00000
      8      -3.8336      2.00000
      9      -1.3107      2.00000
     10      -1.3107      2.00000
     11      -0.3670      2.00000
     12      -0.3670      2.00000
     13       0.3018      2.00000
     14       0.3018      2.00000
     15       1.0349      2.00000
     16       1.0349      2.00000
     17       1.7668      2.00000
     18       1.7668      2.00000
     19       2.5987      2.00000
     20       2.5987      2.00000
     21       6.1035      0.00000
     22       6.1035      0.00000
     23       6.7116      0.00000
     24       6.7116      0.00000
     25       6.9770      0.00000
     26       6.9770      0.00000
     27       8.2282      0.00000
     28       8.2282      0.00000
     29       8.6649      0.00000
     30       8.6649      0.00000
     31      10.1085      0.00000
     32      10.1085      0.00000

 k-point    35 :      -0.3333    0.3333    0.5000
  band No.  band energies     occupation 
      1      -9.5174      2.00000
      2      -9.5174      2.00000
      3      -8.9704      2.00000
      4      -8.9704      2.00000
      5      -4.5293      2.00000
      6      -4.5293      2.00000
      7      -3.8336      2.00000
      8      -3.8336      2.00000
      9      -1.3107      2.00000
     10      -1.3107      2.00000
     11      -0.3670      2.00000
     12      -0.3670      2.00000
     13       0.3018      2.00000
     14       0.3018      2.00000
     15       1.0349      2.00000
     16       1.0349      2.00000
     17       1.7668      2.00000
     18       1.7668      2.00000
     19       2.5987      2.00000
     20       2.5987      2.00000
     21       6.1035      0.00000
     22       6.1035      0.00000
     23       6.7116      0.00000
     24       6.7116      0.00000
     25       6.9770      0.00000
     26       6.9770      0.00000
     27       8.2282      0.00000
     28       8.2282      0.00000
     29       8.6649      0.00000
     30       8.6649      0.00000
     31      10.1085      0.00000
     32      10.1085      0.00000

 k-point    36 :       0.5000    0.3333    0.5000
  band No.  band energies     occupation 
      1      -9.2704      2.00000
      2      -9.2704      2.00000
      3      -9.0830      2.00000
      4      -9.0830      2.00000
      5      -4.4335      2.00000
      6      -4.4335      2.00000
      7      -3.9099      2.00000
      8      -3.9099      2.00000
      9      -1.1395      2.00000
     10      -1.1395      2.00000
     11      -1.1390      2.00000
     12      -1.1390      2.00000
     13       0.4338      2.00000
     14       0.4338      2.00000
     15       0.5031      2.00000
     16       0.5031      2.00000
     17       1.8032      2.00000
     18       1.8032      2.00000
     19       2.1819      2.00000
     20       2.1819      2.00000
     21       6.1733      0.00000
     22       6.1733      0.00000
     23       6.9420      0.00000
     24       6.9420      0.00000
     25       8.1563      0.00000
     26       8.1563      0.00000
     27       8.2505      0.00000
     28       8.2505      0.00000
     29       9.6017      0.00000
     30       9.6017      0.00000
     31       9.8647      0.00000
     32       9.8647      0.00000

 k-point    37 :       0.0000    0.5000    0.5000
  band No.  band energies     occupation 
      1      -9.2854      2.00000
      2      -9.2854      2.00000
      3      -9.2854      2.00000
      4      -9.2854      2.00000
      5      -4.7141      2.00000
      6      -4.7141      2.00000
      7      -4.7141      2.00000
      8      -4.7141      2.00000
      9       0.7211      2.00000
     10       0.7211      2.00000
     11       0.7211      2.00000
     12       0.7211      2.00000
     13       1.5152      2.00000
     14       1.5152      2.00000
     15       1.5152      2.00000
     16       1.5152      2.00000
     17       2.4748      2.00000
     18       2.4748      2.00000
     19       2.4748      2.00000
     20       2.4748      2.00000
     21       5.2327      0.00000
     22       5.2327      0.00000
     23       5.2327      0.00000
     24       5.2327      0.00000
     25       5.7022      0.00000
     26       5.7022      0.00000
     27       5.7022      0.00000
     28       5.7022      0.00000
     29       7.3253      0.00000
     30       7.3253      0.00000
     31       7.3253      0.00000
     32       7.3253      0.00000

 k-point    38 :       0.1667    0.5000    0.5000
  band No.  band energies     occupation 
      1      -9.2230      2.00000
      2      -9.2230      2.00000
      3      -9.2230      2.00000
      4      -9.2230      2.00000
      5      -4.5902      2.00000
      6      -4.5902      2.00000
      7      -4.5902      2.00000
      8      -4.5902      2.00000
      9       0.0684      2.00000
     10       0.0684      2.00000
     11       0.0684      2.00000
     12       0.0684      2.00000
     13       1.0269      2.00000
     14       1.0269      2.00000
     15       1.0269      2.00000
     16       1.0269      2.00000
     17       2.2499      2.00000
     18       2.2499      2.00000
     19       2.2499      2.00000
     20       2.2499      2.00000
     21       5.6924      0.00000
     22       5.6924      0.00000
     23       5.6924      0.00000
     24       5.6924      0.00000
     25       6.9315      0.00000
     26       6.9315      0.00000
     27       6.9315      0.00000
     28       6.9316      0.00000
     29       7.6484      0.00000
     30       7.6484      0.00000
     31       7.6484      0.00000
     32       7.6484      0.00000

 k-point    39 :       0.3333    0.5000    0.5000
  band No.  band energies     occupation 
      1      -9.0902      2.00000
      2      -9.0902      2.00000
      3      -9.0902      2.00000
      4      -9.0902      2.00000
      5      -4.3040      2.00000
      6      -4.3040      2.00000
      7      -4.3040      2.00000
      8      -4.3040      2.00000
      9      -0.9202      2.00000
     10      -0.9202      2.00000
     11      -0.9202      2.00000
     12      -0.9202      2.00000
     13       0.1775      2.00000
     14       0.1775      2.00000
     15       0.1775      2.00000
     16       0.1775      2.00000
     17       2.0103      2.00000
     18       2.0103      2.00000
     19       2.0103      2.00000
     20       2.0103      2.00000
     21       6.4358      0.00000
     22       6.4358      0.00000
     23       6.4358      0.00000
     24       6.4358      0.00000
     25       7.8906      0.00000
     26       7.8906      0.00000
     27       7.8906      0.00000
     28       7.8906      0.00000
     29       9.6152      0.00000
     30       9.6152      0.00000
     31       9.6152      0.00000
     32       9.6152      0.00000

 k-point    40 :       0.5000    0.5000    0.5000
  band No.  band energies     occupation 
      1      -9.0192      2.00000
      2      -9.0192      2.00000
      3      -9.0192      2.00000
      4      -9.0192      2.00000
      5      -4.1355      2.00000
      6      -4.1355      2.00000
      7      -4.1355      2.00000
      8      -4.1355      2.00000
      9      -1.2646      2.00000
     10      -1.2646      2.00000
     11      -1.2646      2.00000
     12      -1.2646      2.00000
     13      -0.3515      2.00000
     14      -0.3515      2.00000
     15      -0.3515      2.00000
     16      -0.3515      2.00000
     17       2.0578      2.00000
     18       2.0578      2.00000
     19       2.0578      2.00000
     20       2.0578      2.00000
     21       6.2392      0.00000
     22       6.2392      0.00000
     23       6.2392      0.00000
     24       6.2392      0.00000
     25       9.0128      0.00000
     26       9.0128      0.00000
     27       9.0128      0.00000
     28       9.0128      0.00000
     29      10.5138      0.00000
     30      10.5138      0.00000
     31      10.5138      0.00000
     32      10.5138      0.00000


--------------------------------------------------------------------------------------------------------


 soft charge-density along one line, spin component            1
         0         1         2         3         4         5         6         7         8         9
 total charge-density along one line
 
 pseudopotential strength for first ion, spin component:            1
 14.399  17.960  -0.000   0.045   0.037  -0.000   0.080   0.068
 17.960  22.418  -0.000   0.056   0.047  -0.000   0.102   0.085
 -0.000  -0.000   3.206   0.000   0.000   5.456   0.000   0.000
  0.045   0.056   0.000   3.203  -0.003   0.000   5.451  -0.004
  0.037   0.047   0.000  -0.003   3.205   0.000  -0.004   5.454
 -0.000  -0.000   5.456   0.000   0.000   9.341   0.000   0.000
  0.080   0.102   0.000   5.451  -0.004   0.000   9.333  -0.008
  0.068   0.085   0.000  -0.004   5.454   0.000  -0.008   9.338
 -0.000   0.000   0.006   0.000  -0.000   0.012   0.000  -0.000
  0.000   0.000   0.012  -0.000   0.000   0.021  -0.000   0.000
 -0.003  -0.004   0.000   0.011  -0.003   0.000   0.021  -0.007
 -0.005  -0.007   0.000   0.012   0.012   0.000   0.021   0.021
 -0.001  -0.001   0.000   0.000   0.011   0.000   0.000   0.020
 total augmentation occupancy for first ion, spin component:            1
  2.749  -0.727  -0.000   0.364   0.313   0.000  -0.067  -0.058   0.000   0.000  -0.008  -0.008  -0.011
 -0.727   0.698   0.000  -0.472  -0.397   0.000   0.074   0.063  -0.000  -0.000   0.010   0.006   0.008
 -0.000   0.000   1.260   0.000  -0.000  -0.220   0.000   0.000   0.132   0.033   0.000   0.000  -0.000
  0.364  -0.472   0.000   1.296   0.066  -0.000  -0.213  -0.000  -0.000   0.000   0.108  -0.012   0.002
  0.313  -0.397  -0.000   0.066   1.239   0.000  -0.000  -0.205  -0.000   0.000  -0.086   0.037  -0.003
  0.000   0.000  -0.220  -0.000   0.000   0.043   0.000  -0.000  -0.023  -0.006  -0.000   0.000  -0.000
 -0.067   0.074   0.000  -0.213  -0.000   0.000   0.040  -0.001   0.000  -0.000  -0.019   0.002  -0.000
 -0.058   0.063   0.000  -0.000  -0.205  -0.000  -0.001   0.038   0.000  -0.000   0.014  -0.006   0.000
  0.000  -0.000   0.132  -0.000  -0.000  -0.023   0.000   0.000   0.034   0.003   0.000  -0.000   0.000
  0.000  -0.000   0.033   0.000   0.000  -0.006  -0.000  -0.000   0.003   0.011  -0.000  -0.000  -0.000
 -0.008   0.010   0.000   0.108  -0.086  -0.000  -0.019   0.014   0.000  -0.000   0.034  -0.006   0.002
 -0.008   0.006   0.000  -0.012   0.037   0.000   0.002  -0.006  -0.000  -0.000  -0.006   0.011  -0.001
 -0.011   0.008  -0.000   0.002  -0.003  -0.000  -0.000   0.000   0.000  -0.000   0.002  -0.001   0.009


------------------------ aborting loop because EDIFF is reached ----------------------------------------


    CHARGE:  cpu time      0.0029: real time      0.0029
    FORLOC:  cpu time      0.0001: real time      0.0001
    FORNL :  cpu time      0.0205: real time      0.0206
    STRESS:  cpu time      0.1869: real time      0.1878
    FORCOR:  cpu time      0.0034: real time      0.0034
    FORHAR:  cpu time      0.0013: real time      0.0013
    MIXING:  cpu time      0.0008: real time      0.0008
    OFIELD:  cpu time      0.0000: real time      0.0000

  FORCE on cell =-STRESS in cart. coord.  units (eV):
  Direction    XX          YY          ZZ          XY          YZ          ZX
  --------------------------------------------------------------------------------------
  Alpha Z    91.74915    91.74915    91.74915
  Ewald    -485.70469  -448.10247  -516.61664    -0.00000     0.00000     0.00000
  Hartree    41.98059    56.89285    24.94536    -0.00000     0.00000     0.00000
  E(xc)    -141.42806  -141.40951  -141.85660    -0.00000    -0.00000     0.00000
  Local    -131.07344  -178.40462   -87.20564    -0.00000    -0.00000    -0.00000
  n-local   240.33160   240.94578   242.40556     0.00000     0.00000     0.00000
  augment   -11.73048   -11.36357   -12.10466    -0.00000     0.00000     0.00000
  Kinetic   398.75077   392.28144   399.60005    -0.00000    -0.00000    -0.00000
  Fock        0.00000     0.00000     0.00000     0.00000     0.00000     0.00000
  -------------------------------------------------------------------------------------
  Total       2.87544     2.58903     0.91658    -0.00000    -0.00000    -0.00000
  in kB      24.94539    22.46069     7.95161    -0.00001    -0.00000    -0.00000
  external pressure =       18.45 kB  Pullay stress =        0.00 kB


 VOLUME and BASIS-vectors are now :
 -----------------------------------------------------------------------------
  energy-cutoff  :      360.00
  volume of cell :      184.68
      direct lattice vectors                 reciprocal lattice vectors
     4.250000000  0.000000000  0.000000000     0.235294118  0.000000000  0.000000000
     0.000000000  3.900000000  0.000000000     0.000000000  0.256410256  0.000000000
     0.000000000  0.000000000 11.142221000     0.000000000  0.000000000  0.089748713

  length of vectors
     4.250000000  3.900000000 11.142221000     0.235294118  0.256410256  0.089748713


 FORCES acting on ions
    electron-ion (+dipol)            ewald-force                    non-local-force                 convergence-correction
 -----------------------------------------------------------------------------------------------
   0.122E+02 -.208E-05 0.258E+02   -.145E+02 -.232E-14 -.286E+02   0.228E+01 0.827E-06 0.281E+01   -.762E-04 0.124E-05 -.124E-02
   0.122E+02 0.292E-07 -.258E+02   -.145E+02 0.190E-14 0.286E+02   0.228E+01 0.575E-08 -.281E+01   -.775E-04 -.771E-07 0.124E-02
   -.122E+02 0.691E-06 -.258E+02   0.145E+02 -.132E-14 0.286E+02   -.228E+01 -.157E-06 -.281E+01   0.776E-04 -.530E-06 0.124E-02
   -.122E+02 0.386E-06 0.258E+02   0.145E+02 0.120E-14 -.286E+02   -.228E+01 -.170E-06 0.281E+01   0.766E-04 -.201E-06 -.124E-02
   -.114E+02 0.782E-06 -.265E+02   0.126E+02 -.828E-15 0.281E+02   -.118E+01 -.609E-06 -.158E+01   0.192E-03 -.622E-07 0.219E-02
   -.114E+02 0.534E-05 0.265E+02   0.126E+02 0.427E-14 -.281E+02   -.118E+01 -.213E-05 0.158E+01   0.190E-03 -.332E-05 -.219E-02
   0.114E+02 -.190E-05 0.265E+02   -.126E+02 0.447E-15 -.281E+02   0.118E+01 0.711E-06 0.158E+01   -.190E-03 0.784E-06 -.219E-02
   0.114E+02 -.251E-05 -.265E+02   -.126E+02 0.510E-15 0.281E+02   0.118E+01 0.860E-06 -.158E+01   -.189E-03 0.157E-05 0.219E-02
 -----------------------------------------------------------------------------------------------
   -.290E-05 0.750E-06 -.803E-07   0.355E-14 0.385E-14 0.178E-13   -.156E-06 -.662E-06 -.506E-06   0.343E-05 -.596E-06 0.705E-06
 
 
 POSITION                                       TOTAL-FORCE (eV/Angst)
 -----------------------------------------------------------------------------------
      0.43605      0.97500      1.40297        -0.053963      0.000000      0.022534
      2.56105      2.92500      4.16814        -0.053964      0.000000     -0.022536
      3.81395      2.92500      9.73925         0.053964      0.000000     -0.022533
      1.68895      0.97500      6.97408         0.053964      0.000000      0.022535
      0.02386      0.97500      3.96097         0.069793      0.000000     -0.014356
      2.14886      2.92500      1.61014         0.069793     -0.000000      0.014358
      4.22614      2.92500      7.18125        -0.069793     -0.000000      0.014356
      2.10114      0.97500      9.53208        -0.069793     -0.000000     -0.014357
 -----------------------------------------------------------------------------------
    total drift:                                0.000000     -0.000001      0.000000


--------------------------------------------------------------------------------------------------------



  FREE ENERGIE OF THE ION-ELECTRON SYSTEM (eV)
  ---------------------------------------------------
  free  energy   TOTEN  =       -33.75544982 eV

  energy  without entropy=      -33.75544982  energy(sigma->0) =      -33.75544982
 


--------------------------------------------------------------------------------------------------------


    POTLOK:  cpu time      0.1146: real time      0.1149


--------------------------------------------------------------------------------------------------------


     LOOP+:  cpu time      4.7952: real time      4.8364
    4ORBIT:  cpu time      0.0000: real time      0.0000

 total amount of memory used by VASP MPI-rank0    37921. kBytes
=======================================================================

   base      :      30000. kBytes
   nonl-proj :       6217. kBytes
   fftplans  :        289. kBytes
   grid      :        416. kBytes
   one-center:         16. kBytes
   wavefun   :        983. kBytes
 
  
  
 General timing and accounting informations for this job:
 ========================================================
  
                  Total CPU time used (sec):        5.566
                            User time (sec):        5.337
                          System time (sec):        0.229
                         Elapsed time (sec):        7.063
  
                   Maximum memory used (kb):      191152.
                   Average memory used (kb):          N/A
  
                          Minor page faults:        22419
                          Major page faults:           30
                 Voluntary context switches:         8695
