 vasp.6.4.1 05Apr23 (build May 18 2023 13:19:41) complex                         
 executed on    LinuxNV_CrayMPICH date 2023.09.30  11:59:35
 running  256 mpi-ranks, with    1 threads/rank, on   14 nodes
 distrk:  each k-point on   32 cores,    8 groups
 distr:  one band on NCORE=   2 cores,   16 groups


--------------------------------------------------------------------------------------------------------


 INCAR:
   SIGMA = 0.010000
   EDIFF = 1.00e-06
   ALGO = N
   GGA = PE
   PREC = Accurate
   SYSTEM = 03_BS
   ICHARG = 11
   ISMEAR = 0
   ISPIN = 2
   ISTART = 1
   KPAR = 8
   LORBIT = 11
   NBANDS = 896
   NELMIN = 5
   NPAR = 16
   IVDW = 11
   LCHARG = .TRUE.
   LWAVE = .TRUE.
   LREAL = .FALSE.

 POTCAR:   PAW_PBE C 08Apr2002                    
 POTCAR:   PAW_PBE H 15Jun2001                    
 -----------------------------------------------------------------------------
|                                                                             |
|           W    W    AA    RRRRR   N    N  II  N    N   GGGG   !!!           |
|           W    W   A  A   R    R  NN   N  II  NN   N  G    G  !!!           |
|           W    W  A    A  R    R  N N  N  II  N N  N  G       !!!           |
|           W WW W  AAAAAA  RRRRR   N  N N  II  N  N N  G  GGG   !            |
|           WW  WW  A    A  R   R   N   NN  II  N   NN  G    G                |
|           W    W  A    A  R    R  N    N  II  N    N   GGGG   !!!           |
|                                                                             |
|     You use a magnetic or noncollinear calculation, but did not specify     |
|     the initial magnetic moment with the MAGMOM tag. Note that a            |
|     default of 1 will be used for all atoms. This ferromagnetic setup       |
|     may break the symmetry of the crystal, in particular it may rule        |
|     out finding an antiferromagnetic solution. Thence, we recommend         |
|     setting the initial magnetic moment manually or verifying carefully     |
|     that this magnetic setup is desired.                                    |
|                                                                             |
 -----------------------------------------------------------------------------

 POTCAR:   PAW_PBE C 08Apr2002                    
   VRHFIN =C: s2p2                                                                                  
   LEXCH  = PE                                                                                      
   EATOM  =   147.1560 eV,   10.8157 Ry                                                             
                                                                                                    
   TITEL  = PAW_PBE C 08Apr2002                                                                     
   LULTRA =        F    use ultrasoft PP ?                                                          
   IUNSCR =        0    unscreen: 0-lin 1-nonlin 2-no                                               
   RPACOR =     .000    partial core radius                                                         
   POMASS =   12.011; ZVAL   =    4.000    mass and valenz                                          
   RCORE  =    1.500    outmost cutoff radius                                                       
   RWIGS  =    1.630; RWIGS  =     .863    wigner-seitz radius (au A)                               
   ENMAX  =  400.000; ENMIN  =  300.000 eV                                                          
   ICORE  =        2    local potential                                                             
   LCOR   =        T    correct aug charges                                                         
   LPAW   =        T    paw PP                                                                      
   EAUG   =  644.873                                                                                
   DEXC   =     .000                                                                                
   RMAX   =    2.266    core radius for proj-oper                                                   
   RAUG   =    1.300    factor for augmentation sphere                                              
   RDEP   =    1.501    radius for radial grids                                                     
   RDEPT  =    1.300    core radius for aug-charge                                                  
   QCUT   =   -5.516; QGAM   =   11.032    optimization parameters                                  
                                                                                                    
   Description                                                                                      
     l     E      TYP  RCUT    TYP  RCUT                                                            
     0   .000     23  1.200                                                                         
     0   .000     23  1.200                                                                         
     1   .000     23  1.500                                                                         
     1  2.500     23  1.500                                                                         
     2   .000      7  1.500                                                                         
  local pseudopotential read in
  atomic valenz-charges read in
  non local Contribution for L=            0  read in
    real space projection operators read in
  non local Contribution for L=            0  read in
    real space projection operators read in
  non local Contribution for L=            1  read in
    real space projection operators read in
  non local Contribution for L=            1  read in
    real space projection operators read in
    PAW grid and wavefunctions read in
 
   number of l-projection  operators is LMAX  =            4
   number of lm-projection operators is LMMAX =            8
 
 POTCAR:   PAW_PBE H 15Jun2001                    
   VRHFIN =H: ultrasoft test                                                                        
   LEXCH  = PE                                                                                      
   EATOM  =    12.4884 eV,     .9179 Ry                                                             
                                                                                                    
   TITEL  = PAW_PBE H 15Jun2001                                                                     
   LULTRA =        F    use ultrasoft PP ?                                                          
   IUNSCR =        0    unscreen: 0-lin 1-nonlin 2-no                                               
   RPACOR =     .000    partial core radius                                                         
   POMASS =    1.000; ZVAL   =    1.000    mass and valenz                                          
   RCORE  =    1.100    outmost cutoff radius                                                       
   RWIGS  =     .700; RWIGS  =     .370    wigner-seitz radius (au A)                               
   ENMAX  =  250.000; ENMIN  =  200.000 eV                                                          
   RCLOC  =     .701    cutoff for local pot                                                        
   LCOR   =        T    correct aug charges                                                         
   LPAW   =        T    paw PP                                                                      
   EAUG   =  400.000                                                                                
   RMAX   =    2.174    core radius for proj-oper                                                   
   RAUG   =    1.200    factor for augmentation sphere                                              
   RDEP   =    1.112    radius for radial grids                                                     
   QCUT   =   -5.749; QGAM   =   11.498    optimization parameters                                  
                                                                                                    
   Description                                                                                      
     l     E      TYP  RCUT    TYP  RCUT                                                            
     0   .000     23  1.100                                                                         
     0   .500     23  1.100                                                                         
     1  -.300     23  1.100                                                                         
  local pseudopotential read in
  atomic valenz-charges read in
  non local Contribution for L=            0  read in
    real space projection operators read in
  non local Contribution for L=            0  read in
    real space projection operators read in
  non local Contribution for L=            1  read in
    real space projection operators read in
    PAW grid and wavefunctions read in
 
   number of l-projection  operators is LMAX  =            3
   number of lm-projection operators is LMMAX =            5
 
 -----------------------------------------------------------------------------
|                                                                             |
|               ----> ADVICE to this user running VASP <----                  |
|                                                                             |
|     You have a (more or less) 'large supercell' and for larger cells it     |
|     might be more efficient to use real-space projection operators.         |
|     Therefore, try LREAL= Auto in the INCAR file.                           |
|     Mind: If you want to do very accurate calculations, keep the            |
|     reciprocal projection scheme (i.e. LREAL=.FALSE.).                      |
|                                                                             |
 -----------------------------------------------------------------------------

 PAW_PBE C 08Apr2002                    :
 energy of atom  1       EATOM= -147.1560
 kinetic energy error for atom=    0.0288 (will be added to EATOM!!)
 PAW_PBE H 15Jun2001                    :
 energy of atom  2       EATOM=  -12.4884
 kinetic energy error for atom=    0.0098 (will be added to EATOM!!)
 
 
 POSCAR:  C  H
  positions in cartesian coordinates
  No initial velocities read in
 exchange correlation table for  LEXCH =        8
   RHO(1)=    0.500       N(1)  =     2000
   RHO(2)=  100.500       N(2)  =     4000
 


--------------------------------------------------------------------------------------------------------


 ion  position               nearest neighbor table
   1  0.371  0.538  0.002-  85 1.42 363 1.42 288 1.43
   2  0.369  0.544  0.063- 108 1.42  85 1.42   3 1.43
   3  0.338  0.595  0.061-   4 1.42   8 1.42   2 1.43
   4  0.321  0.611  0.030-   3 1.42 288 1.42   5 1.43
   5  0.278  0.629  0.028- 310 1.42  10 1.42   4 1.43
   6  0.367  0.549  0.123- 131 1.42 108 1.42   7 1.43
   7  0.335  0.599  0.122-   8 1.42  16 1.42   6 1.43
   8  0.317  0.614  0.090-   7 1.42   3 1.42   9 1.43
   9  0.274  0.629  0.089-  10 1.42  18 1.42   8 1.43
  10  0.254  0.627  0.057-   9 1.42   5 1.42  11 1.43
  11  0.212  0.603  0.056-  12 1.42  20 1.42  10 1.43
  12  0.196  0.584  0.024-  11 1.42 311 1.42  13 1.43
  13  0.168  0.528  0.023- 329 1.42  22 1.42  12 1.43
  14  0.364  0.554  0.184- 154 1.42 131 1.42  15 1.43
  15  0.331  0.602  0.182-  16 1.42  28 1.42  14 1.43
  16  0.313  0.616  0.151-  15 1.42   7 1.42  17 1.43
  17  0.270  0.629  0.149-  18 1.42  30 1.42  16 1.43
  18  0.250  0.626  0.118-  17 1.42   9 1.42  19 1.43
  19  0.209  0.600  0.116-  20 1.42  32 1.42  18 1.43
  20  0.193  0.580  0.085-  19 1.42  11 1.42  21 1.43
  21  0.166  0.522  0.083-  22 1.42  34 1.42  20 1.43
  22  0.159  0.492  0.052-  21 1.42  13 1.42  23 1.43
  23  0.155  0.420  0.050-  24 1.42  36 1.42  22 1.43
  24  0.159  0.388  0.019-  23 1.42 330 1.42  25 1.43
  25  0.178  0.324  0.017- 344 1.42  38 1.42  24 1.43
  26  0.362  0.559  0.244- 177 1.42 154 1.42  27 1.43
  27  0.328  0.605  0.242-  28 1.42  45 1.42  26 1.43
  28  0.309  0.619  0.211-  27 1.42  15 1.42  29 1.43
  29  0.266  0.629  0.209-  30 1.42  47 1.42  28 1.43
  30  0.246  0.625  0.178-  29 1.42  17 1.42  31 1.43
  31  0.205  0.596  0.176-  32 1.42  49 1.42  30 1.43
  32  0.190  0.575  0.145-  31 1.42  19 1.42  33 1.43
  33  0.165  0.516  0.144-  34 1.42  51 1.42  32 1.43
  34  0.158  0.485  0.112-  33 1.42  21 1.42  35 1.43
  35  0.155  0.414  0.111-  36 1.42  53 1.42  34 1.43
  36  0.160  0.382  0.079-  35 1.42  23 1.42  37 1.43
  37  0.181  0.319  0.078-  38 1.42  55 1.42  36 1.43
  38  0.195  0.295  0.046-  37 1.42  25 1.42  39 1.43
  39  0.233  0.260  0.045-  40 1.42  57 1.42  38 1.43
  40  0.253  0.252  0.013-  39 1.42 345 1.42  41 1.43
  41  0.297  0.254  0.012- 355 1.42  59 1.42  40 1.43
  42  0.371  0.538  0.336-  43 1.42 199 1.42  64 1.43
  43  0.359  0.565  0.305-  42 1.42 177 1.42  44 1.43
  44  0.324  0.608  0.303-  45 1.42  66 1.42  43 1.43
  45  0.305  0.621  0.272-  44 1.42  27 1.42  46 1.43
  46  0.262  0.628  0.270-  47 1.42  68 1.42  45 1.43
  47  0.242  0.623  0.239-  46 1.42  29 1.42  48 1.43
  48  0.202  0.592  0.237-  49 1.42  70 1.42  47 1.43
  49  0.187  0.570  0.206-  48 1.42  31 1.42  50 1.43
  50  0.163  0.510  0.204-  51 1.42  72 1.42  49 1.43
  51  0.157  0.479  0.173-  50 1.42  33 1.42  52 1.43
  52  0.156  0.407  0.171-  53 1.42  74 1.42  51 1.43
  53  0.161  0.376  0.140-  52 1.42  35 1.42  54 1.43
  54  0.183  0.314  0.138-  55 1.42  76 1.42  53 1.43
  55  0.198  0.291  0.107-  54 1.42  37 1.42  56 1.43
  56  0.237  0.258  0.105-  57 1.42  78 1.42  55 1.43
  57  0.257  0.251  0.074-  56 1.42  39 1.42  58 1.43
  58  0.301  0.255  0.072-  59 1.42  80 1.42  57 1.43
  59  0.320  0.266  0.041-  58 1.42  41 1.42  60 1.43
  60  0.356  0.308  0.039-  61 1.42  82 1.42  59 1.43
  61  0.368  0.334  0.008-  60 1.42 356 1.42  62 1.43
  62  0.386  0.399  0.006- 362 1.42  84 1.42  61 1.43
  63  0.370  0.544  0.396-  64 1.41  87 1.43 221 1.44
  64  0.357  0.569  0.365-  63 1.41  42 1.43  65 1.43
  65  0.321  0.611  0.363-  66 1.42  89 1.42  64 1.43
  66  0.302  0.622  0.332-  65 1.42  44 1.42  67 1.43
  67  0.258  0.627  0.330-  91 1.42  68 1.42  66 1.43
  68  0.238  0.621  0.299-  67 1.42  46 1.42  69 1.43
  69  0.199  0.588  0.297-  70 1.42  93 1.42  68 1.43
  70  0.184  0.566  0.266-  69 1.42  48 1.42  71 1.43
  71  0.161  0.504  0.264-  72 1.42  95 1.42  70 1.43
  72  0.156  0.472  0.233-  71 1.42  50 1.42  73 1.43
  73  0.157  0.401  0.231-  74 1.42  97 1.42  72 1.43
  74  0.163  0.369  0.200-  73 1.42  52 1.42  75 1.43
  75  0.186  0.309  0.198-  76 1.42  99 1.42  74 1.43
  76  0.201  0.287  0.167-  75 1.42  54 1.42  77 1.43
  77  0.241  0.256  0.165-  78 1.42 101 1.42  76 1.43
  78  0.261  0.250  0.134-  77 1.42  56 1.42  79 1.43
  79  0.305  0.257  0.132-  80 1.42 103 1.42  78 1.43
  80  0.323  0.269  0.101-  79 1.42  58 1.42  81 1.43
  81  0.358  0.313  0.100-  82 1.42 105 1.42  80 1.43
  82  0.371  0.339  0.068-  81 1.42  60 1.42  83 1.43
  83  0.386  0.406  0.067-  84 1.42 107 1.42  82 1.43
  84  0.388  0.439  0.035-  83 1.42  62 1.42  85 1.43
  85  0.380  0.509  0.034-   1 1.42   2 1.42  84 1.43
  86  0.367  0.549  0.457-  87 1.40 110 1.40 243 1.53
  87  0.353  0.572  0.426-  86 1.40  88 1.43  63 1.43
  88  0.316  0.611  0.424- 112 1.42  89 1.42  87 1.43
  89  0.297  0.623  0.393-  88 1.42  65 1.42  90 1.43
  90  0.253  0.626  0.391-  91 1.42 114 1.42  89 1.43
  91  0.234  0.619  0.360-  90 1.42  67 1.42  92 1.43
  92  0.195  0.584  0.358-  93 1.42 116 1.42  91 1.43
  93  0.181  0.561  0.327-  92 1.42  69 1.42  94 1.43
  94  0.160  0.498  0.325-  95 1.42 118 1.42  93 1.43
  95  0.156  0.466  0.294-  94 1.42  71 1.42  96 1.43
  96  0.158  0.394  0.292-  97 1.42 120 1.42  95 1.43
  97  0.164  0.363  0.261-  96 1.42  73 1.42  98 1.43
  98  0.189  0.304  0.259-  99 1.42 122 1.42  97 1.43
  99  0.204  0.283  0.228-  98 1.42  75 1.42 100 1.43
 100  0.245  0.254  0.226- 101 1.42 124 1.42  99 1.43
 101  0.265  0.249  0.195- 100 1.42  77 1.42 102 1.43
 102  0.308  0.259  0.193- 103 1.42 126 1.42 101 1.43
 103  0.327  0.272  0.162- 102 1.42  79 1.42 104 1.43
 104  0.361  0.317  0.160- 105 1.42 128 1.42 103 1.43
 105  0.373  0.345  0.129- 104 1.42  81 1.42 106 1.43
 106  0.387  0.412  0.127- 107 1.42 130 1.42 105 1.43
 107  0.388  0.445  0.096- 106 1.42  83 1.42 108 1.43
 108  0.378  0.515  0.094-   2 1.42   6 1.42 107 1.43
 109  0.365  0.554  0.517- 133 1.41 110 1.43 265 1.44
 110  0.350  0.576  0.486-  86 1.40 111 1.43 109 1.43
 111  0.313  0.614  0.484- 112 1.42 135 1.42 110 1.43
 112  0.293  0.623  0.453- 111 1.42  88 1.42 113 1.43
 113  0.249  0.625  0.451- 114 1.42 137 1.42 112 1.43
 114  0.230  0.617  0.420- 113 1.42  90 1.42 115 1.43
 115  0.192  0.580  0.418- 116 1.42 139 1.42 114 1.43
 116  0.179  0.555  0.387- 115 1.42  92 1.42 117 1.43
 117  0.159  0.492  0.385- 118 1.42 141 1.42 116 1.43
 118  0.155  0.459  0.354- 117 1.42  94 1.42 119 1.43
 119  0.159  0.388  0.352- 120 1.42 143 1.42 118 1.43
 120  0.166  0.357  0.321- 119 1.42  96 1.42 121 1.43
 121  0.192  0.300  0.319- 122 1.42 145 1.42 120 1.43
 122  0.208  0.279  0.288- 121 1.42  98 1.42 123 1.43
 123  0.249  0.252  0.286- 124 1.42 147 1.42 122 1.43
 124  0.269  0.249  0.255- 123 1.42 100 1.42 125 1.43
 125  0.312  0.261  0.253- 126 1.42 149 1.42 124 1.43
 126  0.330  0.275  0.222- 125 1.42 102 1.42 127 1.43
 127  0.363  0.322  0.220- 128 1.42 151 1.42 126 1.43
 128  0.374  0.350  0.189- 127 1.42 104 1.42 129 1.43
 129  0.387  0.419  0.187- 130 1.42 153 1.42 128 1.43
 130  0.388  0.452  0.156- 129 1.42 106 1.42 131 1.43
 131  0.377  0.521  0.155-   6 1.42  14 1.42 130 1.43
 132  0.362  0.559  0.578- 156 1.42 287 1.42 133 1.43
 133  0.348  0.583  0.546- 109 1.41 132 1.43 134 1.43
 134  0.309  0.618  0.544- 135 1.42 158 1.42 133 1.43
 135  0.289  0.625  0.513- 134 1.42 111 1.42 136 1.43
 136  0.245  0.624  0.512- 160 1.42 137 1.42 135 1.43
 137  0.226  0.614  0.480- 113 1.42 136 1.42 138 1.43
 138  0.189  0.575  0.479- 139 1.42 162 1.42 137 1.43
 139  0.176  0.550  0.448- 138 1.42 115 1.42 140 1.43
 140  0.158  0.485  0.446- 141 1.42 164 1.42 139 1.43
 141  0.155  0.453  0.415- 140 1.42 117 1.42 142 1.43
 142  0.160  0.382  0.413- 143 1.42 166 1.42 141 1.43
 143  0.168  0.351  0.382- 142 1.42 119 1.42 144 1.43
 144  0.195  0.295  0.380- 145 1.42 168 1.42 143 1.43
 145  0.211  0.276  0.349- 144 1.42 121 1.42 146 1.43
 146  0.253  0.251  0.347- 147 1.42 170 1.42 145 1.43
 147  0.273  0.249  0.316- 146 1.42 123 1.42 148 1.43
 148  0.316  0.263  0.314- 149 1.42 172 1.42 147 1.43
 149  0.334  0.278  0.283- 148 1.42 125 1.42 150 1.43
 150  0.366  0.328  0.281- 174 1.42 151 1.42 149 1.43
 151  0.376  0.356  0.250- 127 1.42 150 1.42 152 1.43
 152  0.388  0.425  0.248- 153 1.42 176 1.42 151 1.43
 153  0.387  0.458  0.217- 152 1.42 129 1.42 154 1.43
 154  0.375  0.527  0.215-  14 1.42  26 1.42 153 1.43
 155  0.359  0.564  0.638- 156 1.42 179 1.42 309 1.43
 156  0.344  0.587  0.607- 132 1.42 155 1.42 157 1.43
 157  0.306  0.621  0.605- 181 1.42 158 1.42 156 1.43
 158  0.286  0.627  0.574- 134 1.42 157 1.42 159 1.43
 159  0.242  0.623  0.572- 160 1.42 183 1.42 158 1.43
 160  0.222  0.612  0.541- 159 1.42 136 1.42 161 1.43
 161  0.187  0.570  0.539- 162 1.42 185 1.42 160 1.43
 162  0.174  0.545  0.508- 161 1.42 138 1.42 163 1.43
 163  0.157  0.479  0.506- 164 1.42 187 1.42 162 1.43
 164  0.154  0.446  0.475- 163 1.42 140 1.42 165 1.43
 165  0.161  0.376  0.473- 166 1.42 189 1.42 164 1.43
 166  0.169  0.346  0.442- 165 1.42 142 1.42 167 1.43
 167  0.198  0.291  0.440- 168 1.42 191 1.42 166 1.43
 168  0.215  0.272  0.409- 167 1.42 144 1.42 169 1.43
 169  0.257  0.250  0.407- 170 1.42 193 1.42 168 1.43
 170  0.277  0.249  0.376- 169 1.42 146 1.42 171 1.43
 171  0.319  0.266  0.374- 172 1.42 195 1.42 170 1.43
 172  0.337  0.282  0.343- 171 1.42 148 1.42 173 1.42
 173  0.368  0.333  0.341- 174 1.42 197 1.42 172 1.42
 174  0.378  0.362  0.310- 173 1.42 150 1.42 175 1.43
 175  0.388  0.431  0.308- 176 1.42 199 1.42 174 1.43
 176  0.387  0.464  0.277- 175 1.42 152 1.42 177 1.43
 177  0.373  0.532  0.275-  26 1.42  43 1.42 176 1.43
 178  0.356  0.569  0.698- 201 1.42 179 1.42 328 1.43
 179  0.341  0.591  0.667- 178 1.42 155 1.42 180 1.43
 180  0.302  0.623  0.665- 203 1.42 181 1.42 179 1.43
 181  0.282  0.628  0.634- 157 1.42 180 1.42 182 1.43
 182  0.238  0.621  0.632- 183 1.42 205 1.42 181 1.43
 183  0.219  0.609  0.601- 182 1.42 159 1.42 184 1.43
 184  0.184  0.566  0.600- 185 1.42 207 1.42 183 1.43
 185  0.172  0.539  0.568- 161 1.42 184 1.42 186 1.43
 186  0.156  0.472  0.567- 187 1.42 209 1.42 185 1.43
 187  0.154  0.440  0.535- 186 1.42 163 1.42 188 1.43
 188  0.163  0.369  0.534- 189 1.42 211 1.42 187 1.43
 189  0.172  0.340  0.502- 188 1.42 165 1.42 190 1.43
 190  0.201  0.287  0.501- 191 1.42 213 1.42 189 1.43
 191  0.218  0.270  0.469- 190 1.42 167 1.42 192 1.42
 192  0.261  0.250  0.468- 193 1.42 215 1.42 191 1.42
 193  0.281  0.250  0.437- 192 1.42 169 1.42 194 1.42
 194  0.323  0.271  0.435- 195 1.42 193 1.42 217 1.43
 195  0.340  0.287  0.404- 194 1.42 171 1.42 196 1.42
 196  0.370  0.340  0.402- 197 1.42 195 1.42 219 1.43
 197  0.379  0.368  0.370- 196 1.42 198 1.42 173 1.42
 198  0.388  0.438  0.368- 199 1.42 221 1.42 197 1.42
 199  0.386  0.471  0.337- 198 1.42 175 1.42  42 1.42
 200  0.354  0.574  0.759- 201 1.42 223 1.42 343 1.43
 201  0.338  0.595  0.728- 178 1.42 200 1.42 202 1.43
 202  0.298  0.624  0.726- 203 1.42 225 1.42 201 1.43
 203  0.278  0.629  0.695- 202 1.42 180 1.42 204 1.43
 204  0.234  0.619  0.693- 205 1.42 227 1.42 203 1.43
 205  0.216  0.606  0.662- 204 1.42 182 1.42 206 1.43
 206  0.181  0.561  0.660- 207 1.42 229 1.42 205 1.43
 207  0.170  0.534  0.629- 206 1.42 184 1.42 208 1.43
 208  0.156  0.466  0.627- 209 1.42 231 1.42 207 1.43
 209  0.154  0.433  0.596- 208 1.42 186 1.42 210 1.43
 210  0.164  0.363  0.594- 211 1.42 233 1.42 209 1.43
 211  0.174  0.334  0.563- 210 1.42 188 1.42 212 1.43
 212  0.204  0.283  0.561- 213 1.42 235 1.42 211 1.43
 213  0.222  0.267  0.530- 212 1.42 190 1.42 214 1.43
 214  0.265  0.249  0.528- 215 1.42 237 1.42 213 1.43
 215  0.285  0.251  0.497- 214 1.42 216 1.42 192 1.42
 216  0.327  0.274  0.495- 239 1.42 215 1.42 217 1.43
 217  0.343  0.293  0.464- 218 1.42 216 1.43 194 1.43
 218  0.372  0.346  0.462- 217 1.42 219 1.43 241 1.43
 219  0.381  0.376  0.431- 220 1.41 196 1.43 218 1.43
 220  0.391  0.445  0.429- 219 1.41 221 1.41 243 1.50
 221  0.387  0.477  0.398- 220 1.41 198 1.42  63 1.44
 222  0.351  0.579  0.819- 223 1.42 245 1.42 354 1.43
 223  0.335  0.599  0.788- 222 1.42 200 1.42 224 1.43
 224  0.294  0.626  0.786- 225 1.42 247 1.42 223 1.43
 225  0.274  0.629  0.755- 224 1.42 202 1.42 226 1.43
 226  0.230  0.617  0.753- 227 1.42 249 1.42 225 1.43
 227  0.212  0.603  0.722- 226 1.42 204 1.42 228 1.43
 228  0.179  0.556  0.720- 229 1.42 251 1.42 227 1.43
 229  0.168  0.528  0.689- 228 1.42 206 1.42 230 1.43
 230  0.155  0.460  0.687- 231 1.42 253 1.42 229 1.43
 231  0.155  0.427  0.656- 230 1.42 208 1.42 232 1.43
 232  0.166  0.357  0.655- 233 1.42 255 1.42 231 1.43
 233  0.176  0.329  0.623- 232 1.42 210 1.42 234 1.43
 234  0.208  0.279  0.622- 235 1.42 257 1.42 233 1.43
 235  0.226  0.264  0.590- 234 1.42 212 1.42 236 1.43
 236  0.269  0.249  0.589- 237 1.42 259 1.42 235 1.43
 237  0.289  0.251  0.557- 214 1.42 236 1.42 238 1.43
 238  0.330  0.275  0.556- 239 1.42 261 1.42 237 1.43
 239  0.347  0.295  0.524- 216 1.42 238 1.42 240 1.42
 240  0.374  0.351  0.523- 263 1.42 239 1.42 241 1.43
 241  0.382  0.382  0.492- 242 1.41 240 1.43 218 1.43
 242  0.391  0.452  0.490- 241 1.41 265 1.41 243 1.50
 243  0.396  0.489  0.458- 365 1.12 242 1.50 220 1.50  86 1.53
 244  0.348  0.583  0.880- 245 1.42 267 1.42 361 1.43
 245  0.331  0.602  0.849- 244 1.42 222 1.42 246 1.43
 246  0.290  0.627  0.847- 247 1.42 269 1.42 245 1.43
 247  0.270  0.629  0.816- 246 1.42 224 1.42 248 1.43
 248  0.227  0.615  0.814- 249 1.42 271 1.42 247 1.43
 249  0.209  0.599  0.783- 248 1.42 226 1.42 250 1.43
 250  0.177  0.550  0.781- 251 1.42 273 1.42 249 1.43
 251  0.166  0.522  0.750- 250 1.42 228 1.42 252 1.43
 252  0.155  0.453  0.748- 253 1.42 275 1.42 251 1.43
 253  0.155  0.420  0.717- 252 1.42 230 1.42 254 1.43
 254  0.168  0.352  0.715- 255 1.42 277 1.42 253 1.43
 255  0.178  0.324  0.684- 254 1.42 232 1.42 256 1.43
 256  0.211  0.276  0.682- 257 1.42 279 1.42 255 1.43
 257  0.229  0.262  0.651- 256 1.42 234 1.42 258 1.43
 258  0.273  0.249  0.649- 259 1.42 281 1.42 257 1.43
 259  0.293  0.252  0.618- 258 1.42 236 1.42 260 1.43
 260  0.334  0.278  0.616- 261 1.42 283 1.42 259 1.43
 261  0.350  0.299  0.585- 260 1.42 238 1.42 262 1.42
 262  0.376  0.356  0.583- 285 1.42 263 1.42 261 1.42
 263  0.383  0.387  0.552- 240 1.42 262 1.42 264 1.42
 264  0.388  0.458  0.550- 287 1.42 265 1.42 263 1.42
 265  0.385  0.490  0.519- 242 1.41 264 1.42 109 1.44
 266  0.345  0.587  0.940- 267 1.42 289 1.42 364 1.43
 267  0.328  0.606  0.909- 266 1.42 244 1.42 268 1.43
 268  0.286  0.628  0.907- 269 1.42 291 1.42 267 1.43
 269  0.266  0.629  0.876- 268 1.42 246 1.42 270 1.43
 270  0.223  0.612  0.874- 271 1.42 293 1.42 269 1.43
 271  0.205  0.596  0.843- 270 1.42 248 1.42 272 1.43
 272  0.174  0.545  0.841- 273 1.42 295 1.42 271 1.43
 273  0.164  0.516  0.810- 272 1.42 250 1.42 274 1.43
 274  0.154  0.447  0.808- 275 1.42 297 1.42 273 1.43
 275  0.155  0.414  0.777- 274 1.42 252 1.42 276 1.43
 276  0.169  0.346  0.775- 277 1.42 299 1.42 275 1.43
 277  0.181  0.319  0.744- 276 1.42 254 1.42 278 1.43
 278  0.215  0.273  0.742- 279 1.42 301 1.42 277 1.43
 279  0.233  0.259  0.711- 278 1.42 256 1.42 280 1.43
 280  0.277  0.249  0.710- 281 1.42 303 1.42 279 1.43
 281  0.297  0.254  0.678- 280 1.42 258 1.42 282 1.43
 282  0.337  0.282  0.677- 283 1.42 305 1.42 281 1.43
 283  0.353  0.303  0.645- 282 1.42 260 1.42 284 1.43
 284  0.378  0.362  0.644- 285 1.42 307 1.42 283 1.43
 285  0.384  0.393  0.613- 284 1.42 262 1.42 286 1.43
 286  0.387  0.464  0.611- 287 1.42 309 1.42 285 1.43
 287  0.382  0.496  0.580- 286 1.42 264 1.42 132 1.42
 288  0.341  0.591  0.001- 289 1.42   4 1.42   1 1.43
 289  0.324  0.609  0.970- 288 1.42 266 1.42 290 1.43
 290  0.282  0.628  0.968- 291 1.42 310 1.42 289 1.43
 291  0.262  0.629  0.937- 290 1.42 268 1.42 292 1.43
 292  0.219  0.609  0.935- 293 1.42 312 1.42 291 1.43
 293  0.202  0.592  0.904- 292 1.42 270 1.42 294 1.43
 294  0.172  0.540  0.902- 295 1.42 314 1.42 293 1.43
 295  0.163  0.510  0.871- 294 1.42 272 1.42 296 1.43
 296  0.154  0.440  0.869- 297 1.42 316 1.42 295 1.43
 297  0.156  0.407  0.838- 296 1.42 274 1.42 298 1.43
 298  0.171  0.340  0.836- 299 1.42 318 1.42 297 1.43
 299  0.183  0.314  0.805- 298 1.42 276 1.42 300 1.43
 300  0.218  0.270  0.803- 301 1.42 320 1.42 299 1.43
 301  0.237  0.257  0.772- 300 1.42 278 1.42 302 1.43
 302  0.281  0.250  0.770- 303 1.42 322 1.42 301 1.43
 303  0.301  0.255  0.739- 302 1.42 280 1.42 304 1.43
 304  0.340  0.286  0.737- 305 1.42 324 1.42 303 1.43
 305  0.356  0.308  0.706- 304 1.42 282 1.42 306 1.43
 306  0.379  0.368  0.704- 307 1.42 326 1.42 305 1.43
 307  0.385  0.399  0.673- 306 1.42 284 1.42 308 1.43
 308  0.386  0.471  0.671- 309 1.42 328 1.42 307 1.43
 309  0.381  0.503  0.640- 286 1.42 308 1.42 155 1.43
 310  0.258  0.628  0.997-   5 1.42 290 1.42 311 1.43
 311  0.216  0.606  0.995- 312 1.42  12 1.42 310 1.43
 312  0.199  0.588  0.964- 311 1.42 292 1.42 313 1.43
 313  0.170  0.534  0.962- 314 1.42 329 1.42 312 1.43
 314  0.161  0.504  0.931- 313 1.42 294 1.42 315 1.43
 315  0.154  0.433  0.929- 316 1.42 331 1.42 314 1.43
 316  0.157  0.401  0.898- 315 1.42 296 1.42 317 1.43
 317  0.174  0.335  0.896- 318 1.42 333 1.42 316 1.43
 318  0.186  0.309  0.865- 317 1.42 298 1.42 319 1.43
 319  0.222  0.267  0.863- 320 1.42 335 1.42 318 1.43
 320  0.241  0.256  0.832- 319 1.42 300 1.42 321 1.43
 321  0.285  0.251  0.830- 322 1.42 337 1.42 320 1.43
 322  0.305  0.257  0.799- 321 1.42 302 1.42 323 1.43
 323  0.344  0.290  0.797- 324 1.42 339 1.42 322 1.43
 324  0.358  0.313  0.766- 323 1.42 304 1.42 325 1.43
 325  0.381  0.374  0.764- 326 1.42 341 1.42 324 1.43
 326  0.386  0.406  0.733- 325 1.42 306 1.42 327 1.43
 327  0.386  0.477  0.731- 328 1.42 343 1.42 326 1.43
 328  0.380  0.509  0.700- 327 1.42 308 1.42 178 1.43
 329  0.160  0.498  0.991-  13 1.42 313 1.42 330 1.43
 330  0.155  0.427  0.990- 331 1.42  24 1.42 329 1.43
 331  0.158  0.394  0.959- 330 1.42 315 1.42 332 1.43
 332  0.176  0.329  0.957- 333 1.42 344 1.42 331 1.43
 333  0.189  0.304  0.926- 332 1.42 317 1.42 334 1.43
 334  0.226  0.264  0.924- 335 1.42 346 1.42 333 1.43
 335  0.245  0.254  0.893- 334 1.42 319 1.42 336 1.43
 336  0.289  0.251  0.891- 337 1.42 348 1.42 335 1.43
 337  0.309  0.259  0.860- 336 1.42 321 1.42 338 1.43
 338  0.347  0.294  0.858- 339 1.42 350 1.42 337 1.43
 339  0.361  0.318  0.827- 338 1.42 323 1.42 340 1.43
 340  0.382  0.380  0.825- 341 1.42 352 1.42 339 1.43
 341  0.387  0.412  0.794- 340 1.42 325 1.42 342 1.43
 342  0.385  0.484  0.792- 343 1.42 354 1.42 341 1.43
 343  0.378  0.515  0.761- 342 1.42 327 1.42 200 1.43
 344  0.192  0.300  0.986-  25 1.42 332 1.42 345 1.43
 345  0.229  0.262  0.984- 346 1.42  40 1.42 344 1.43
 346  0.249  0.253  0.953- 345 1.42 334 1.42 347 1.43
 347  0.293  0.253  0.951- 348 1.42 355 1.42 346 1.43
 348  0.312  0.261  0.920- 347 1.42 336 1.42 349 1.43
 349  0.350  0.299  0.918- 350 1.42 357 1.42 348 1.43
 350  0.364  0.323  0.887- 349 1.42 338 1.42 351 1.43
 351  0.384  0.387  0.885- 352 1.42 359 1.42 350 1.43
 352  0.387  0.419  0.854- 351 1.42 340 1.42 353 1.43
 353  0.384  0.490  0.852- 354 1.42 361 1.42 352 1.43
 354  0.377  0.521  0.821- 353 1.42 342 1.42 222 1.43
 355  0.316  0.264  0.980-  41 1.42 347 1.42 356 1.43
 356  0.353  0.303  0.979- 357 1.42  61 1.42 355 1.43
 357  0.366  0.328  0.948- 356 1.42 349 1.42 358 1.43
 358  0.385  0.393  0.946- 359 1.42 362 1.42 357 1.43
 359  0.388  0.426  0.915- 358 1.42 351 1.42 360 1.43
 360  0.383  0.497  0.913- 361 1.42 364 1.42 359 1.43
 361  0.375  0.527  0.882- 360 1.42 353 1.42 244 1.43
 362  0.388  0.432  0.975-  62 1.42 358 1.42 363 1.43
 363  0.381  0.503  0.973- 364 1.42   1 1.42 362 1.43
 364  0.373  0.533  0.942- 363 1.42 360 1.42 266 1.43
 365  0.428  0.508  0.458- 243 1.12
 
  LATTYP: Found a simple orthorhombic cell.
 ALAT       =    19.9214134216
 B/A-ratio  =     1.6250001197
 C/A-ratio  =     2.0303804144
  
  Lattice vectors:
  
 A1 = (   0.0000000000, -19.9214134216,   0.0000000000)
 A2 = (  32.3722991943,   0.0000000000,   0.0000000000)
 A3 = (   0.0000000000,   0.0000000000,  40.4480476379)


Analysis of symmetry for initial positions (statically):
=====================================================================
 Subroutine PRICEL returns:
 Original cell was already a primitive cell.
 

 Routine SETGRP: Setting up the symmetry group for a 
 simple orthorhombic supercell.


 Subroutine GETGRP returns: Found  1 space group operations
 (whereof  1 operations were pure point group operations)
 out of a pool of  8 trial point group operations.


The static configuration has the point symmetry C_1 .


Analysis of symmetry for dynamics (positions and initial velocities):
=====================================================================
 Subroutine PRICEL returns:
 Original cell was already a primitive cell.
 

 Routine SETGRP: Setting up the symmetry group for a 
 simple orthorhombic supercell.


 Subroutine GETGRP returns: Found  1 space group operations
 (whereof  1 operations were pure point group operations)
 out of a pool of  8 trial point group operations.


The dynamic configuration has the point symmetry C_1 .


Analysis of structural, dynamic, and magnetic symmetry:
=====================================================================
 Subroutine PRICEL returns:
 Original cell was already a primitive cell.
 

 Routine SETGRP: Setting up the symmetry group for a 
 simple orthorhombic supercell.


 Subroutine GETGRP returns: Found  1 space group operations
 (whereof  1 operations were pure point group operations)
 out of a pool of  8 trial point group operations.


The overall configuration has the point symmetry C_1 .


 Subroutine INISYM returns: Found  1 space group operations
 (whereof  1 operations are pure point group operations),
 and found     1 'primitive' translations


----------------------------------------------------------------------------------------

                                     Primitive cell                                     

  volume of cell :   26085.0250

  direct lattice vectors                    reciprocal lattice vectors
    32.372299194  0.000000000  0.000000000     0.030890608  0.000000000  0.000000000
     0.000000000 19.921413422  0.000000000     0.000000000  0.050197241  0.000000000
     0.000000000  0.000000000 40.448047638     0.000000000  0.000000000  0.024723072

  length of vectors
    32.372299194 19.921413422 40.448047638     0.030890608  0.050197241  0.024723072

  position of ions in fractional coordinates (direct lattice)
     0.370985333  0.538320417  0.002473899
     0.368824514  0.543817124  0.062914999
     0.338105458  0.595010875  0.061113750
     0.320539538  0.611441551  0.029956464
     0.277861241  0.628832858  0.028139029
     0.366536620  0.549172482  0.123354315
     0.334752427  0.598633456  0.121557330
     0.316854139  0.614072496  0.090403461
     0.273827286  0.629056820  0.088581272
     0.253609360  0.626924645  0.057425464
     0.212150559  0.602982430  0.055609515
     0.195633480  0.583920433  0.024447797
     0.168064179  0.528194726  0.022631331
     0.364087026  0.554375308  0.183795468
     0.331300756  0.602079896  0.182005107
     0.313098808  0.616496504  0.150846341
     0.269790283  0.629078751  0.149024244
     0.249632114  0.625800756  0.117865520
     0.208707942  0.599544566  0.116051312
     0.192602051  0.579582099  0.084892718
     0.166228022  0.522342696  0.083066581
     0.158962976  0.491616471  0.051913517
     0.154987411  0.420404785  0.050089545
     0.158738399  0.388040357  0.018936708
     0.178351983  0.324037713  0.017126200
     0.361506824  0.559454010  0.244217622
     0.327793302  0.605361918  0.242447280
     0.309297563  0.618773314  0.211292345
     0.265738403  0.628922431  0.209467343
     0.245673429  0.624502914  0.178315136
     0.205326668  0.595924710  0.176494052
     0.189662798  0.575063796  0.145339214
     0.164519403  0.516380206  0.143505488
     0.157915482  0.485265772  0.112347887
     0.155444739  0.413880851  0.110524433
     0.159876286  0.381753235  0.079365415
     0.180827465  0.318881162  0.077545598
     0.194982352  0.295301534  0.046401448
     0.233126685  0.259654981  0.044577731
     0.252799011  0.251656543  0.013436106
     0.296778167  0.253858951  0.011632178
     0.371116850  0.537961029  0.335723695
     0.359016083  0.564517563  0.304653845
     0.324251432  0.608456073  0.302889483
     0.305482591  0.620831600  0.271782665
     0.261686093  0.628454868  0.269935436
     0.241742063  0.622924270  0.238777764
     0.202035707  0.592090600  0.236940536
     0.186832047  0.570353968  0.205776863
     0.162960500  0.510298599  0.203939287
     0.157007599  0.478845838  0.172780543
     0.156047097  0.407357803  0.170960001
     0.161138539  0.375512966  0.139801405
     0.183407034  0.313840365  0.137971488
     0.198059782  0.291091848  0.106823882
     0.236933205  0.257609525  0.104998773
     0.256767962  0.250727151  0.073853462
     0.300672842  0.255397719  0.072048183
     0.319782678  0.266436350  0.040909825
     0.355654666  0.307848877  0.039093080
     0.368359226  0.333528571  0.007950680
     0.385541825  0.399353428  0.006149757
     0.369870874  0.543802902  0.396098721
     0.356697195  0.569239325  0.365274045
     0.320550059  0.610619635  0.363412652
     0.301576000  0.622132543  0.332303143
     0.257664479  0.627417899  0.330418961
     0.237846176  0.620977180  0.299222667
     0.198789886  0.588056351  0.297369571
     0.184063859  0.565519338  0.266207990
     0.161482312  0.504129925  0.264367770
     0.156231453  0.472363546  0.233217320
     0.156802185  0.400859747  0.231400070
     0.162568147  0.369330228  0.200239400
     0.186117673  0.308941860  0.198405120
     0.201221213  0.287026865  0.167245462
     0.240772079  0.255719680  0.165420720
     0.260738293  0.249968449  0.134274934
     0.304521669  0.257088218  0.132464219
     0.323393873  0.269222580  0.101330820
     0.358370453  0.312604367  0.099518784
     0.370530667  0.339000101  0.068376982
     0.386316980  0.405738922  0.066583814
     0.388155849  0.438559573  0.035436922
     0.380021611  0.508831425  0.033623580
     0.366907359  0.549123503  0.456676164
     0.353276908  0.572270293  0.425836281
     0.316378718  0.611407987  0.423845056
     0.297400428  0.622573022  0.392670315
     0.253477223  0.626230912  0.390813289
     0.233847506  0.618912084  0.359636888
     0.195422218  0.583974048  0.357783506
     0.181299186  0.560533559  0.326632939
     0.160087763  0.497879733  0.324799463
     0.155580373  0.465816490  0.293643925
     0.157710517  0.394413408  0.291832863
     0.164135760  0.363216336  0.260671981
     0.188943226  0.304166741  0.258836094
     0.204483775  0.283094703  0.227678290
     0.244664205  0.253947188  0.225853645
     0.264730505  0.249356402  0.194703381
     0.308331900  0.258896879  0.192885200
     0.326930044  0.272143917  0.161747433
     0.360959593  0.317462818  0.159937839
     0.372572299  0.344544449  0.128805160
     0.386930438  0.412141546  0.127013076
     0.388090408  0.445061624  0.095875219
     0.378479492  0.514843011  0.094065429
     0.364977143  0.554325559  0.517269927
     0.350252067  0.576436018  0.485737292
     0.312607124  0.613728853  0.484061201
     0.293275456  0.623400241  0.453022656
     0.249195452  0.625340051  0.451203050
     0.229772374  0.616777302  0.420071023
     0.192122276  0.579765227  0.418225522
     0.178544196  0.555475562  0.387050921
     0.158792012  0.491608586  0.385233075
     0.155008818  0.459282752  0.354076212
     0.158715139  0.388025212  0.352263554
     0.165823242  0.357207029  0.321117177
     0.191850787  0.299539257  0.319281251
     0.207836532  0.279339557  0.288122157
     0.248585909  0.252386965  0.286305652
     0.268740210  0.248896444  0.255138673
     0.312110611  0.260853347  0.253310005
     0.330414454  0.275132613  0.222173796
     0.363446400  0.322400746  0.220359445
     0.374458532  0.350166854  0.189236271
     0.387353303  0.418536517  0.187437419
     0.387832729  0.451527408  0.156305112
     0.376756741  0.520723976  0.154503670
     0.361737369  0.559347351  0.577651118
     0.347813223  0.582585750  0.546239227
     0.309267912  0.617762300  0.544465680
     0.289439761  0.625033229  0.513380465
     0.245458197  0.623928009  0.511610085
     0.225962678  0.614427669  0.480475635
     0.189130639  0.575279387  0.478660672
     0.175937046  0.550354759  0.447507892
     0.157628762  0.485265240  0.445690382
     0.154577778  0.452744930  0.414539336
     0.159834657  0.381742363  0.412717958
     0.167616728  0.351320558  0.381562041
     0.194813639  0.295133653  0.379732206
     0.211237389  0.275788200  0.348568082
     0.252541015  0.251149490  0.346757729
     0.272751255  0.248687543  0.315600659
     0.315856349  0.263127915  0.313764726
     0.333834588  0.278369567  0.282622869
     0.365801571  0.327502749  0.280787736
     0.376196218  0.355881194  0.249649718
     0.387583402  0.424932566  0.247829197
     0.387400534  0.457935678  0.216718494
     0.374878187  0.526505436  0.214932800
     0.358949139  0.564342526  0.638028554
     0.344421997  0.587188977  0.606841516
     0.305505730  0.620671264  0.604984381
     0.285711489  0.627061611  0.573737934
     0.241756539  0.622593706  0.572004763
     0.222487885  0.611751627  0.540920467
     0.186511109  0.570495352  0.539117591
     0.173755697  0.544820734  0.507978934
     0.156814503  0.478852055  0.506166892
     0.154376102  0.446174260  0.474990331
     0.161134670  0.375541256  0.473170784
     0.169488328  0.345565678  0.442007376
     0.197857244  0.290904930  0.440178435
     0.214662612  0.272478424  0.409038734
     0.256527860  0.250412540  0.407226880
     0.276779003  0.249112478  0.376087450
     0.319458069  0.266371862  0.374267295
     0.337122673  0.282220256  0.343063276
     0.367994586  0.333019560  0.341179072
     0.377847239  0.361727017  0.310052409
     0.387719086  0.431443623  0.308182121
     0.386793325  0.464364925  0.277102784
     0.372912994  0.532216393  0.275356629
     0.356274906  0.569266755  0.698458043
     0.341153721  0.591205696  0.667297598
     0.301637670  0.622600586  0.665449350
     0.281717318  0.628361340  0.634239686
     0.237894151  0.621144102  0.632469026
     0.219041761  0.608940321  0.601338406
     0.184038929  0.565597671  0.599550657
     0.171798625  0.539237116  0.568411598
     0.156149906  0.472411394  0.566609121
     0.154344494  0.439613748  0.535457263
     0.162564527  0.369365617  0.533639086
     0.171575699  0.339897959  0.502484337
     0.201085158  0.286927771  0.500684024
     0.218264789  0.269529549  0.469497007
     0.260514888  0.250132881  0.467679148
     0.280804687  0.250269571  0.436526274
     0.322907485  0.270585977  0.434696269
     0.340117845  0.287349885  0.403539161
     0.369798111  0.340000391  0.401645886
     0.379282828  0.368234154  0.370440254
     0.388035184  0.438088620  0.368477236
     0.386210701  0.470920194  0.337386510
     0.353522324  0.574040848  0.758891110
     0.337936070  0.595098637  0.727729684
     0.297741527  0.624197455  0.725905243
     0.277680530  0.628881302  0.694738422
     0.234071062  0.619249532  0.692935367
     0.215507569  0.606029328  0.661769021
     0.181499559  0.560642928  0.659981235
     0.169887429  0.533605065  0.628842286
     0.155577089  0.465975513  0.627045341
     0.154472725  0.433065720  0.595901853
     0.164142370  0.363329003  0.594083778
     0.173781357  0.334360203  0.562925943
     0.204435392  0.283071601  0.561126100
     0.221943271  0.266599469  0.529958020
     0.264644076  0.249336651  0.528132236
     0.284877137  0.251005106  0.496961939
     0.326512906  0.273600357  0.495144014
     0.343308308  0.292863893  0.463976313
     0.372130425  0.346294434  0.462171032
     0.380794309  0.376251104  0.430815733
     0.390643461  0.444917526  0.428539399
     0.387147984  0.477422236  0.397739881
     0.350636998  0.578629334  0.819327912
     0.334618139  0.598798400  0.788170198
     0.293816539  0.625570506  0.786358661
     0.273660417  0.629086574  0.755198136
     0.230291493  0.617041536  0.753383784
     0.212006845  0.602859317  0.722220367
     0.178976850  0.555586144  0.720426430
     0.167991024  0.527892015  0.689279504
     0.155093073  0.459531999  0.687480638
     0.154672533  0.426578871  0.656332081
     0.165788849  0.357398399  0.654518293
     0.176059578  0.328973018  0.623372840
     0.207803387  0.279447016  0.621579371
     0.225696268  0.263946644  0.590423608
     0.268695883  0.248853235  0.588602374
     0.288902911  0.251192920  0.557412540
     0.330268426  0.275495423  0.555602843
     0.346525039  0.295446909  0.524457745
     0.373956726  0.351230733  0.522750087
     0.382318240  0.382394985  0.491681421
     0.390615077  0.451682942  0.490391047
     0.395979497  0.488786619  0.458444649
     0.347647002  0.583029416  0.879773214
     0.331210975  0.602289226  0.848612887
     0.289864384  0.626739351  0.846805683
     0.269648310  0.629115000  0.815646614
     0.226556813  0.614638305  0.813828038
     0.208575314  0.599433237  0.782674276
     0.176559625  0.550373302  0.780876556
     0.166170361  0.522094680  0.749718123
     0.154721740  0.453053645  0.747916903
     0.154984235  0.420105967  0.716770735
     0.167538647  0.351569748  0.714964972
     0.178418209  0.323744520  0.683818309
     0.211205673  0.276071959  0.682028312
     0.229421188  0.261563486  0.650877499
     0.272718163  0.248868431  0.649067570
     0.292883551  0.252049694  0.617907389
     0.333799387  0.278348750  0.616124740
     0.349840044  0.298556771  0.584966220
     0.376133942  0.355763676  0.583255728
     0.383355554  0.386794409  0.552134542
     0.387578466  0.457772730  0.550449957
     0.385277193  0.490337732  0.519289262
     0.344554856  0.587219860  0.940218842
     0.327721706  0.605563157  0.909058557
     0.285879851  0.627686053  0.907250616
     0.265627989  0.628928236  0.876093151
     0.222873692  0.612035875  0.874273661
     0.205228558  0.595824756  0.843118028
     0.174266804  0.545017886  0.841319755
     0.164460902  0.516188487  0.810163840
     0.154486463  0.446539835  0.808356866
     0.155447612  0.413634159  0.777209740
     0.169442375  0.345846156  0.775411188
     0.180882182  0.318647712  0.744258785
     0.214677605  0.272862224  0.742466133
     0.233192208  0.259421130  0.711323883
     0.276741528  0.249239947  0.709519561
     0.296829697  0.253534237  0.678367812
     0.337158145  0.282072526  0.676579970
     0.352821224  0.302883931  0.645410235
     0.377876539  0.361649112  0.643631119
     0.384458575  0.392780657  0.612506746
     0.386811774  0.464201129  0.610735773
     0.382459810  0.496434626  0.579642176
     0.341373629  0.591210643  0.000667159
     0.324165544  0.608616485  0.969507975
     0.281880962  0.628386357  0.967695478
     0.261613174  0.628506421  0.936538505
     0.219243260  0.609229995  0.934718786
     0.201952809  0.592046268  0.903561232
     0.172091534  0.539527490  0.901759960
     0.162906240  0.510169163  0.870608411
     0.154415036  0.440012564  0.868794594
     0.156064621  0.407182537  0.837645235
     0.171492874  0.340223808  0.835849224
     0.183490135  0.313683370  0.804698700
     0.218252950  0.269846593  0.802899801
     0.237031527  0.257490934  0.771755567
     0.280772227  0.249819434  0.769951051
     0.300741674  0.255280974  0.738798875
     0.340443585  0.286075452  0.736998918
     0.355656386  0.307729463  0.705845608
     0.379486966  0.367839589  0.704031520
     0.385362766  0.399282189  0.672884165
     0.386260898  0.470754527  0.671080983
     0.381115531  0.502598336  0.639934933
     0.257609386  0.627836774  0.996982674
     0.215670414  0.606204390  0.995164331
     0.198756894  0.588073031  0.964005536
     0.170025421  0.533917788  0.962197612
     0.161473948  0.504059759  0.931045783
     0.154480642  0.433472043  0.929227338
     0.156831317  0.400762629  0.898077698
     0.173677548  0.334709740  0.896280245
     0.186233676  0.308871375  0.865132110
     0.221905870  0.267016904  0.863323422
     0.240936671  0.255743406  0.832176867
     0.284816580  0.250542853  0.830371625
     0.304648533  0.257166252  0.799221688
     0.343679272  0.290166792  0.797413689
     0.358407215  0.312715142  0.766263533
     0.380979894  0.374083630  0.764439032
     0.386211825  0.405837094  0.733280627
     0.385633797  0.477333320  0.731467978
     0.379812554  0.508844502  0.700318480
     0.160158929  0.497874420  0.991478684
     0.154670380  0.426931142  0.989656277
     0.157722974  0.394371514  0.958507653
     0.175964240  0.329303662  0.956705135
     0.189070431  0.304188515  0.925558162
     0.225611425  0.264357260  0.923741599
     0.244875264  0.254167069  0.892595945
     0.288842588  0.251435783  0.890791709
     0.308524082  0.259193290  0.859641934
     0.346833229  0.294364434  0.857829509
     0.361074673  0.317755402  0.826679523
     0.382338577  0.380351351  0.824855863
     0.386911854  0.412398827  0.793700559
     0.384825110  0.483824248  0.791886591
     0.378355163  0.515015104  0.760731810
     0.191992504  0.299670279  0.985980419
     0.229356069  0.261906954  0.984159292
     0.248831202  0.252796339  0.953016121
     0.292833852  0.252533203  0.951213504
     0.312344202  0.261409774  0.920065306
     0.349880650  0.298715109  0.918249081
     0.363624434  0.322897719  0.887099806
     0.383541776  0.386652529  0.885284054
     0.387436016  0.418956635  0.854128190
     0.383824989  0.490216426  0.852315315
     0.376715897  0.521036385  0.821158223
     0.316106891  0.263810710  0.980488150
     0.352830463  0.303201395  0.978670599
     0.366054813  0.328154862  0.947523823
     0.384614830  0.392983311  0.945715865
     0.387819540  0.425500925  0.914561161
     0.382697453  0.496517784  0.912748336
     0.374934726  0.526937500  0.881594580
     0.388062200  0.432037439  0.974997456
     0.381427858  0.502720856  0.973184495
     0.373024167  0.532696858  0.942032673
     0.428269366  0.508466714  0.457958706

  ion indices of the primitive-cell ions
   primitive index   ion index
                 1           1
                 2           2
                 3           3
                 4           4
                 5           5
                 6           6
                 7           7
                 8           8
                 9           9
                10          10
                11          11
                12          12
                13          13
                14          14
                15          15
                16          16
                17          17
                18          18
                19          19
                20          20
                21          21
                22          22
                23          23
                24          24
                25          25
                26          26
                27          27
                28          28
                29          29
                30          30
                31          31
                32          32
                33          33
                34          34
                35          35
                36          36
                37          37
                38          38
                39          39
                40          40
                41          41
                42          42
                43          43
                44          44
                45          45
                46          46
                47          47
                48          48
                49          49
                50          50
                51          51
                52          52
                53          53
                54          54
                55          55
                56          56
                57          57
                58          58
                59          59
                60          60
                61          61
                62          62
                63          63
                64          64
                65          65
                66          66
                67          67
                68          68
                69          69
                70          70
                71          71
                72          72
                73          73
                74          74
                75          75
                76          76
                77          77
                78          78
                79          79
                80          80
                81          81
                82          82
                83          83
                84          84
                85          85
                86          86
                87          87
                88          88
                89          89
                90          90
                91          91
                92          92
                93          93
                94          94
                95          95
                96          96
                97          97
                98          98
                99          99
               100         100
               101         101
               102         102
               103         103
               104         104
               105         105
               106         106
               107         107
               108         108
               109         109
               110         110
               111         111
               112         112
               113         113
               114         114
               115         115
               116         116
               117         117
               118         118
               119         119
               120         120
               121         121
               122         122
               123         123
               124         124
               125         125
               126         126
               127         127
               128         128
               129         129
               130         130
               131         131
               132         132
               133         133
               134         134
               135         135
               136         136
               137         137
               138         138
               139         139
               140         140
               141         141
               142         142
               143         143
               144         144
               145         145
               146         146
               147         147
               148         148
               149         149
               150         150
               151         151
               152         152
               153         153
               154         154
               155         155
               156         156
               157         157
               158         158
               159         159
               160         160
               161         161
               162         162
               163         163
               164         164
               165         165
               166         166
               167         167
               168         168
               169         169
               170         170
               171         171
               172         172
               173         173
               174         174
               175         175
               176         176
               177         177
               178         178
               179         179
               180         180
               181         181
               182         182
               183         183
               184         184
               185         185
               186         186
               187         187
               188         188
               189         189
               190         190
               191         191
               192         192
               193         193
               194         194
               195         195
               196         196
               197         197
               198         198
               199         199
               200         200
               201         201
               202         202
               203         203
               204         204
               205         205
               206         206
               207         207
               208         208
               209         209
               210         210
               211         211
               212         212
               213         213
               214         214
               215         215
               216         216
               217         217
               218         218
               219         219
               220         220
               221         221
               222         222
               223         223
               224         224
               225         225
               226         226
               227         227
               228         228
               229         229
               230         230
               231         231
               232         232
               233         233
               234         234
               235         235
               236         236
               237         237
               238         238
               239         239
               240         240
               241         241
               242         242
               243         243
               244         244
               245         245
               246         246
               247         247
               248         248
               249         249
               250         250
               251         251
               252         252
               253         253
               254         254
               255         255
               256         256
               257         257
               258         258
               259         259
               260         260
               261         261
               262         262
               263         263
               264         264
               265         265
               266         266
               267         267
               268         268
               269         269
               270         270
               271         271
               272         272
               273         273
               274         274
               275         275
               276         276
               277         277
               278         278
               279         279
               280         280
               281         281
               282         282
               283         283
               284         284
               285         285
               286         286
               287         287
               288         288
               289         289
               290         290
               291         291
               292         292
               293         293
               294         294
               295         295
               296         296
               297         297
               298         298
               299         299
               300         300
               301         301
               302         302
               303         303
               304         304
               305         305
               306         306
               307         307
               308         308
               309         309
               310         310
               311         311
               312         312
               313         313
               314         314
               315         315
               316         316
               317         317
               318         318
               319         319
               320         320
               321         321
               322         322
               323         323
               324         324
               325         325
               326         326
               327         327
               328         328
               329         329
               330         330
               331         331
               332         332
               333         333
               334         334
               335         335
               336         336
               337         337
               338         338
               339         339
               340         340
               341         341
               342         342
               343         343
               344         344
               345         345
               346         346
               347         347
               348         348
               349         349
               350         350
               351         351
               352         352
               353         353
               354         354
               355         355
               356         356
               357         357
               358         358
               359         359
               360         360
               361         361
               362         362
               363         363
               364         364
               365         365

----------------------------------------------------------------------------------------

 
 
 KPOINTS: KPOINTS created by Atomic Simulation Env

Read explicit list of k-points.

 Found     16 k-points:

 Following reciprocal coordinates:
            Coordinates               Weight
  0.000000  0.000000  0.000000      0.062500
  0.000000  0.000000 -0.033333      0.062500
  0.000000  0.000000 -0.066667      0.062500
  0.000000  0.000000 -0.100000      0.062500
  0.000000  0.000000 -0.133333      0.062500
  0.000000  0.000000 -0.166667      0.062500
  0.000000  0.000000 -0.200000      0.062500
  0.000000  0.000000 -0.233333      0.062500
  0.000000  0.000000 -0.266667      0.062500
  0.000000  0.000000 -0.300000      0.062500
  0.000000  0.000000 -0.333333      0.062500
  0.000000  0.000000 -0.366667      0.062500
  0.000000  0.000000 -0.400000      0.062500
  0.000000  0.000000 -0.433333      0.062500
  0.000000  0.000000 -0.466667      0.062500
  0.000000  0.000000 -0.500000      0.062500

 Following cartesian coordinates:
            Coordinates               Weight
  0.000000  0.000000  0.000000      0.062500
  0.000000  0.000000 -0.000824      0.062500
  0.000000  0.000000 -0.001648      0.062500
  0.000000  0.000000 -0.002472      0.062500
  0.000000  0.000000 -0.003296      0.062500
  0.000000  0.000000 -0.004121      0.062500
  0.000000  0.000000 -0.004945      0.062500
  0.000000  0.000000 -0.005769      0.062500
  0.000000  0.000000 -0.006593      0.062500
  0.000000  0.000000 -0.007417      0.062500
  0.000000  0.000000 -0.008241      0.062500
  0.000000  0.000000 -0.009065      0.062500
  0.000000  0.000000 -0.009889      0.062500
  0.000000  0.000000 -0.010713      0.062500
  0.000000  0.000000 -0.011537      0.062500
  0.000000  0.000000 -0.012362      0.062500
 


--------------------------------------------------------------------------------------------------------




 Dimension of arrays:
   k-points           NKPTS =     16   k-points in BZ     NKDIM =     16   number of bands    NBANDS=    896
   number of dos      NEDOS =    301   number of ions     NIONS =    365
   non local maximal  LDIM  =      4   non local SUM 2l+1 LMDIM =      8
   total plane-waves  NPLWV = ******
   max r-space proj   IRMAX =      1   max aug-charges    IRDMAX=   3893
   dimension x,y,z NGX =   216 NGY =  140 NGZ =  270
   dimension x,y,z NGXF=   432 NGYF=  280 NGZF=  540
   support grid    NGXF=   432 NGYF=  280 NGZF=  540
   ions per type =             364   1
   NGX,Y,Z   is equivalent  to a cutoff of  11.09, 11.68, 11.10 a.u.
   NGXF,Y,Z  is equivalent  to a cutoff of  22.19, 23.37, 22.19 a.u.

 SYSTEM =  03_BS                                   
 POSCAR =   C  H                                   

 Startparameter for this run:
   NWRITE =      2    write-flag & timer
   PREC   = accura    normal or accurate (medium, high low for compatibility)
   ISTART =      1    job   : 0-new  1-cont  2-samecut
   ICHARG =     11    charge: 1-file 2-atom 10-const
   ISPIN  =      2    spin polarized calculation?
   LNONCOLLINEAR =      F non collinear calculations
   LSORBIT =      F    spin-orbit coupling
   INIWAV =      1    electr: 0-lowe 1-rand  2-diag
   LASPH  =      F    aspherical Exc in radial PAW
 Electronic Relaxation 1
   ENCUT  =  400.0 eV  29.40 Ry    5.42 a.u.  52.79 32.49 65.96*2*pi/ulx,y,z
   ENINI  =  400.0     initial cutoff
   ENAUG  =  644.9 eV  augmentation charge cutoff
   NELM   =     60;   NELMIN=  5; NELMDL=  0     # of ELM steps 
   EDIFF  = 0.1E-05   stopping-criterion for ELM
   LREAL  =      F    real-space projection
   NLSPLINE    = F    spline interpolate recip. space projectors
   LCOMPAT=      F    compatible to vasp.4.4
   GGA_COMPAT  = T    GGA compatible to vasp.4.4-vasp.4.6
   LMAXPAW     = -100 max onsite density
   LMAXMIX     =    2 max onsite mixed and CHGCAR
   VOSKOWN=      0    Vosko Wilk Nusair interpolation
   ROPT   =    0.00000   0.00000
 Ionic relaxation
   EDIFFG = 0.1E-04   stopping-criterion for IOM
   NSW    =      0    number of steps for IOM
   NBLOCK =      1;   KBLOCK =      1    inner block; outer block 
   IBRION =     -1    ionic relax: 0-MD 1-quasi-New 2-CG
   NFREE  =      0    steps in history (QN), initial steepest desc. (CG)
   ISIF   =      2    stress and relaxation
   IWAVPR =     10    prediction:  0-non 1-charg 2-wave 3-comb
   ISYM   =      2    0-nonsym 1-usesym 2-fastsym
   LCORR  =      T    Harris-Foulkes like correction to forces

   POTIM  = 0.5000    time-step for ionic-motion
   TEIN   =    0.0    initial temperature
   TEBEG  =    0.0;   TEEND  =   0.0 temperature during run
   SMASS  =  -3.00    Nose mass-parameter (am)
   estimated Nose-frequenzy (Omega)   =  0.10E-29 period in steps = 0.13E+47 mass=  -0.239E-25a.u.
   SCALEE = 1.0000    scale energy and forces
   NPACO  =    256;   APACO  = 10.0  distance and # of slots for P.C.
   PSTRESS=    0.0 pullay stress

  Mass of Ions in am
   POMASS =  12.01  1.00
  Ionic Valenz
   ZVAL   =   4.00  1.00
  Atomic Wigner-Seitz radii
   RWIGS  =  -1.00 -1.00
  virtual crystal weights 
   VCA    =   1.00  1.00
   NELECT =    1457.0000    total number of electrons
   NUPDOWN=      -1.0000    fix difference up-down

 DOS related values:
   EMIN   =  10.00;   EMAX   =-10.00  energy-range for DOS
   EFERMI =   0.00;   METHOD = LEGACY      
   ISMEAR =     0;   SIGMA  =   0.01  broadening in eV -4-tet -1-fermi 0-gaus

 Electronic relaxation 2 (details)
   IALGO  =     38    algorithm
   LDIAG  =      T    sub-space diagonalisation (order eigenvalues)
   LSUBROT=      F    optimize rotation matrix (better conditioning)
   TURBO    =      0    0=normal 1=particle mesh
   IRESTART =      0    0=no restart 2=restart with 2 vectors
   NREBOOT  =      0    no. of reboots
   NMIN     =      0    reboot dimension
   EREF     =   0.00    reference energy to select bands
   IMIX   =      4    mixing-type and parameters
     AMIX     =   0.40;   BMIX     =  1.00
     AMIX_MAG =   1.60;   BMIX_MAG =  1.00
     AMIN     =   0.10
     WC   =   100.;   INIMIX=   1;  MIXPRE=   1;  MAXMIX= -45

 Intra band minimization:
   WEIMIN = 0.0000     energy-eigenvalue tresh-hold
   EBREAK =  0.28E-09  absolut break condition
   DEPER  =   0.30     relativ break condition  

   TIME   =   0.40     timestep for ELM

  volume/ion in A,a.u.               =      71.47       482.28
  Fermi-wavevector in a.u.,A,eV,Ry     =   0.625793  1.182578  5.328277  0.391617
  Thomas-Fermi vector in A             =   1.686822
 
 Write flags
   LWAVE        =      T    write WAVECAR
   LDOWNSAMPLE  =      F    k-point downsampling of WAVECAR
   LCHARG       =      T    write CHGCAR
   LVTOT        =      F    write LOCPOT, total local potential
   LVHAR        =      F    write LOCPOT, Hartree potential only
   LELF         =      F    write electronic localiz. function (ELF)
   LORBIT       =     11    0 simple, 1 ext, 2 COOP (PROOUT), +10 PAW based schemes


 Dipole corrections
   LMONO  =      F    monopole corrections only (constant potential shift)
   LDIPOL =      F    correct potential (dipole corrections)
   IDIPOL =      0    1-x, 2-y, 3-z, 4-all directions 
   EPSILON=  1.0000000 bulk dielectric constant

 Exchange correlation treatment:
   GGA     =    PE    GGA type
   LEXCH   =     8    internal setting for exchange type
   LIBXC   =     F    Libxc                    
   VOSKOWN =     0    Vosko Wilk Nusair interpolation
   LHFCALC =     F    Hartree Fock is set to
   LHFONE  =     F    Hartree Fock one center treatment
   AEXX    =    0.0000 exact exchange contribution

 Linear response parameters
   LEPSILON=     F    determine dielectric tensor
   LRPA    =     F    only Hartree local field effects (RPA)
   LNABLA  =     F    use nabla operator in PAW spheres
   LVEL    =     F    velocity operator in full k-point grid
   CSHIFT  =0.1000    complex shift for real part using Kramers Kronig
   OMEGAMAX=  -1.0    maximum frequency
   DEG_THRESHOLD= 0.2000000E-02 threshold for treating states as degnerate
   RTIME   =   -0.100 relaxation time in fs
  (WPLASMAI=    0.000 imaginary part of plasma frequency in eV, 0.658/RTIME)
   DFIELD  = 0.0000000 0.0000000 0.0000000 field for delta impulse in time
 
  Optional k-point grid parameters
   LKPOINTS_OPT  =     F    use optional k-point grid
   KPOINTS_OPT_MODE=     1    mode for optional k-point grid
 
 Orbital magnetization related:
   ORBITALMAG=     F  switch on orbital magnetization
   LCHIMAG   =     F  perturbation theory with respect to B field
   DQ        =  0.001000  dq finite difference perturbation B field
   LLRAUG    =     F  two centre corrections for induced B field
   LBONE     =     F  B-component reconstruction in AE one-centre
   LVGVCALC  =     T  calculate vGv susceptibility
   LVGVAPPL  =     F  apply vGv susceptibility instead of pGv for G=0

 Random number generation:
   RANDOM_GENERATOR = DEFAULT
   PCG_SEED         = not used


--------------------------------------------------------------------------------------------------------


 Static calculation
 charge density and potential remain constant during run
 spin polarized calculation
 Variant of blocked Davidson
 Davidson routine will perform the subspace rotation
 perform sub-space diagonalisation
    after iterative eigenvector-optimisation
 no mixing
 using additional bands           167
 reciprocal scheme for non local part
 calculate Harris-corrections to forces 
   (improved forces if not selfconsistent)
 use gradient corrections 
 WARNING: stress and forces are not correct
  (second derivative of E(xc) not defined)
 use of overlap-Matrix (Vanderbilt PP)
 Gauss-broadening in eV      SIGMA  =   0.01


--------------------------------------------------------------------------------------------------------


  energy-cutoff  :      400.00
  volume of cell :    26085.03
      direct lattice vectors                 reciprocal lattice vectors
    32.372299194  0.000000000  0.000000000     0.030890608  0.000000000  0.000000000
     0.000000000 19.921413422  0.000000000     0.000000000  0.050197241  0.000000000
     0.000000000  0.000000000 40.448047638     0.000000000  0.000000000  0.024723072

  length of vectors
    32.372299194 19.921413422 40.448047638     0.030890608  0.050197241  0.024723072


 
 old parameters found on file WAVECAR:
  energy-cutoff  :      400.00
  volume of cell :    26085.03
      direct lattice vectors                 reciprocal lattice vectors
    32.372299194  0.000000000  0.000000000     0.030890608  0.000000000  0.000000000
     0.000000000 19.921413422  0.000000000     0.000000000  0.050197241  0.000000000
     0.000000000  0.000000000 40.448047638     0.000000000  0.000000000  0.024723072

  length of vectors

 
 k-points in units of 2pi/SCALE and weight: KPOINTS created by Atomic Simulation Env
   0.00000000  0.00000000  0.00000000       0.063
   0.00000000  0.00000000 -0.00082409       0.063
   0.00000000  0.00000000 -0.00164821       0.063
   0.00000000  0.00000000 -0.00247231       0.063
   0.00000000  0.00000000 -0.00329640       0.063
   0.00000000  0.00000000 -0.00412052       0.063
   0.00000000  0.00000000 -0.00494461       0.063
   0.00000000  0.00000000 -0.00576871       0.063
   0.00000000  0.00000000 -0.00659283       0.063
   0.00000000  0.00000000 -0.00741692       0.063
   0.00000000  0.00000000 -0.00824102       0.063
   0.00000000  0.00000000 -0.00906513       0.063
   0.00000000  0.00000000 -0.00988923       0.063
   0.00000000  0.00000000 -0.01071332       0.063
   0.00000000  0.00000000 -0.01153744       0.063
   0.00000000  0.00000000 -0.01236154       0.063
 
 k-points in reciprocal lattice and weights: KPOINTS created by Atomic Simulation Env
   0.00000000  0.00000000  0.00000000       0.063
   0.00000000  0.00000000 -0.03333300       0.063
   0.00000000  0.00000000 -0.06666700       0.063
   0.00000000  0.00000000 -0.10000000       0.063
   0.00000000  0.00000000 -0.13333300       0.063
   0.00000000  0.00000000 -0.16666700       0.063
   0.00000000  0.00000000 -0.20000000       0.063
   0.00000000  0.00000000 -0.23333300       0.063
   0.00000000  0.00000000 -0.26666700       0.063
   0.00000000  0.00000000 -0.30000000       0.063
   0.00000000  0.00000000 -0.33333300       0.063
   0.00000000  0.00000000 -0.36666700       0.063
   0.00000000  0.00000000 -0.40000000       0.063
   0.00000000  0.00000000 -0.43333300       0.063
   0.00000000  0.00000000 -0.46666700       0.063
   0.00000000  0.00000000 -0.50000000       0.063
 
 position of ions in fractional coordinates (direct lattice) 
   0.37098533  0.53832042  0.00247390
   0.36882451  0.54381712  0.06291500
   0.33810546  0.59501088  0.06111375
   0.32053954  0.61144155  0.02995646
   0.27786124  0.62883286  0.02813903
   0.36653662  0.54917248  0.12335432
   0.33475243  0.59863346  0.12155733
   0.31685414  0.61407250  0.09040346
   0.27382729  0.62905682  0.08858127
   0.25360936  0.62692464  0.05742546
   0.21215056  0.60298243  0.05560952
   0.19563348  0.58392043  0.02444780
   0.16806418  0.52819473  0.02263133
   0.36408703  0.55437531  0.18379547
   0.33130076  0.60207990  0.18200511
   0.31309881  0.61649650  0.15084634
   0.26979028  0.62907875  0.14902424
   0.24963211  0.62580076  0.11786552
   0.20870794  0.59954457  0.11605131
   0.19260205  0.57958210  0.08489272
   0.16622802  0.52234270  0.08306658
   0.15896298  0.49161647  0.05191352
   0.15498741  0.42040478  0.05008955
   0.15873840  0.38804036  0.01893671
   0.17835198  0.32403771  0.01712620
   0.36150682  0.55945401  0.24421762
   0.32779330  0.60536192  0.24244728
   0.30929756  0.61877331  0.21129234
   0.26573840  0.62892243  0.20946734
   0.24567343  0.62450291  0.17831514
   0.20532667  0.59592471  0.17649405
   0.18966280  0.57506380  0.14533921
   0.16451940  0.51638021  0.14350549
   0.15791548  0.48526577  0.11234789
   0.15544474  0.41388085  0.11052443
   0.15987629  0.38175324  0.07936542
   0.18082747  0.31888116  0.07754560
   0.19498235  0.29530153  0.04640145
   0.23312668  0.25965498  0.04457773
   0.25279901  0.25165654  0.01343611
   0.29677817  0.25385895  0.01163218
   0.37111685  0.53796103  0.33572370
   0.35901608  0.56451756  0.30465384
   0.32425143  0.60845607  0.30288948
   0.30548259  0.62083160  0.27178266
   0.26168609  0.62845487  0.26993544
   0.24174206  0.62292427  0.23877776
   0.20203571  0.59209060  0.23694054
   0.18683205  0.57035397  0.20577686
   0.16296050  0.51029860  0.20393929
   0.15700760  0.47884584  0.17278054
   0.15604710  0.40735780  0.17096000
   0.16113854  0.37551297  0.13980141
   0.18340703  0.31384036  0.13797149
   0.19805978  0.29109185  0.10682388
   0.23693321  0.25760953  0.10499877
   0.25676796  0.25072715  0.07385346
   0.30067284  0.25539772  0.07204818
   0.31978268  0.26643635  0.04090982
   0.35565467  0.30784888  0.03909308
   0.36835923  0.33352857  0.00795068
   0.38554182  0.39935343  0.00614976
   0.36987087  0.54380290  0.39609872
   0.35669720  0.56923933  0.36527404
   0.32055006  0.61061963  0.36341265
   0.30157600  0.62213254  0.33230314
   0.25766448  0.62741790  0.33041896
   0.23784618  0.62097718  0.29922267
   0.19878989  0.58805635  0.29736957
   0.18406386  0.56551934  0.26620799
   0.16148231  0.50412992  0.26436777
   0.15623145  0.47236355  0.23321732
   0.15680218  0.40085975  0.23140007
   0.16256815  0.36933023  0.20023940
   0.18611767  0.30894186  0.19840512
   0.20122121  0.28702686  0.16724546
   0.24077208  0.25571968  0.16542072
   0.26073829  0.24996845  0.13427493
   0.30452167  0.25708822  0.13246422
   0.32339387  0.26922258  0.10133082
   0.35837045  0.31260437  0.09951878
   0.37053067  0.33900010  0.06837698
   0.38631698  0.40573892  0.06658381
   0.38815585  0.43855957  0.03543692
   0.38002161  0.50883143  0.03362358
   0.36690736  0.54912350  0.45667616
   0.35327691  0.57227029  0.42583628
   0.31637872  0.61140799  0.42384506
   0.29740043  0.62257302  0.39267031
   0.25347722  0.62623091  0.39081329
   0.23384751  0.61891208  0.35963689
   0.19542222  0.58397405  0.35778351
   0.18129919  0.56053356  0.32663294
   0.16008776  0.49787973  0.32479946
   0.15558037  0.46581649  0.29364392
   0.15771052  0.39441341  0.29183286
   0.16413576  0.36321634  0.26067198
   0.18894323  0.30416674  0.25883609
   0.20448378  0.28309470  0.22767829
   0.24466420  0.25394719  0.22585365
   0.26473050  0.24935640  0.19470338
   0.30833190  0.25889688  0.19288520
   0.32693004  0.27214392  0.16174743
   0.36095959  0.31746282  0.15993784
   0.37257230  0.34454445  0.12880516
   0.38693044  0.41214155  0.12701308
   0.38809041  0.44506162  0.09587522
   0.37847949  0.51484301  0.09406543
   0.36497714  0.55432556  0.51726993
   0.35025207  0.57643602  0.48573729
   0.31260712  0.61372885  0.48406120
   0.29327546  0.62340024  0.45302266
   0.24919545  0.62534005  0.45120305
   0.22977237  0.61677730  0.42007102
   0.19212228  0.57976523  0.41822552
   0.17854420  0.55547556  0.38705092
   0.15879201  0.49160859  0.38523307
   0.15500882  0.45928275  0.35407621
   0.15871514  0.38802521  0.35226355
   0.16582324  0.35720703  0.32111718
   0.19185079  0.29953926  0.31928125
   0.20783653  0.27933956  0.28812216
   0.24858591  0.25238697  0.28630565
   0.26874021  0.24889644  0.25513867
   0.31211061  0.26085335  0.25331000
   0.33041445  0.27513261  0.22217380
   0.36344640  0.32240075  0.22035945
   0.37445853  0.35016685  0.18923627
   0.38735330  0.41853652  0.18743742
   0.38783273  0.45152741  0.15630511
   0.37675674  0.52072398  0.15450367
   0.36173737  0.55934735  0.57765112
   0.34781322  0.58258575  0.54623923
   0.30926791  0.61776230  0.54446568
   0.28943976  0.62503323  0.51338047
   0.24545820  0.62392801  0.51161008
   0.22596268  0.61442767  0.48047564
   0.18913064  0.57527939  0.47866067
   0.17593705  0.55035476  0.44750789
   0.15762876  0.48526524  0.44569038
   0.15457778  0.45274493  0.41453934
   0.15983466  0.38174236  0.41271796
   0.16761673  0.35132056  0.38156204
   0.19481364  0.29513365  0.37973221
   0.21123739  0.27578820  0.34856808
   0.25254102  0.25114949  0.34675773
   0.27275125  0.24868754  0.31560066
   0.31585635  0.26312792  0.31376473
   0.33383459  0.27836957  0.28262287
   0.36580157  0.32750275  0.28078774
   0.37619622  0.35588119  0.24964972
   0.38758340  0.42493257  0.24782920
   0.38740053  0.45793568  0.21671849
   0.37487819  0.52650544  0.21493280
   0.35894914  0.56434253  0.63802855
   0.34442200  0.58718898  0.60684152
   0.30550573  0.62067126  0.60498438
   0.28571149  0.62706161  0.57373793
   0.24175654  0.62259371  0.57200476
   0.22248789  0.61175163  0.54092047
   0.18651111  0.57049535  0.53911759
   0.17375570  0.54482073  0.50797893
   0.15681450  0.47885206  0.50616689
   0.15437610  0.44617426  0.47499033
   0.16113467  0.37554126  0.47317078
   0.16948833  0.34556568  0.44200738
   0.19785724  0.29090493  0.44017844
   0.21466261  0.27247842  0.40903873
   0.25652786  0.25041254  0.40722688
   0.27677900  0.24911248  0.37608745
   0.31945807  0.26637186  0.37426730
   0.33712267  0.28222026  0.34306328
   0.36799459  0.33301956  0.34117907
   0.37784724  0.36172702  0.31005241
   0.38771909  0.43144362  0.30818212
   0.38679333  0.46436493  0.27710278
   0.37291299  0.53221639  0.27535663
   0.35627491  0.56926675  0.69845804
   0.34115372  0.59120570  0.66729760
   0.30163767  0.62260059  0.66544935
   0.28171732  0.62836134  0.63423969
   0.23789415  0.62114410  0.63246903
   0.21904176  0.60894032  0.60133841
   0.18403893  0.56559767  0.59955066
   0.17179863  0.53923712  0.56841160
   0.15614991  0.47241139  0.56660912
   0.15434449  0.43961375  0.53545726
[...]
  168            m_alltoall_d                          0.611176                      384   5
  169            fft_gq                                0.050734                        1   5
  170              fft3d_mpi                             0.047406                      2   6
  171                fftbrc_mpi                            0.043609                    2   7
  172                  fftbas_plan_mpi                       0.043608                  2   8
  173                    dfftw_execute                         0.019073                6   9
  174                    map_backward                          0.024445                4   9
  175                      map_gather                            0.008506              4  10
  176                      m_alltoallv_z                         0.014457              4  10
  177                      map_scatter                           0.001458              4  10
  178          depsum                                0.094684                          1   4
  179            m_alltoall_d                          0.091460                        4   5
  180          augmentation_charge                   0.127230                          1   4
  181            m_alltoall_d                          0.000198                        6   5
  182            fft3d_mpi                             0.104450                        2   5
  183              fftbrc_mpi                            0.101417                      2   6
  184                fftbas_plan_mpi                       0.101416                    2   7
  185                  dfftw_execute                         0.031372                  6   8
  186                  map_backward                          0.069977                  4   8
  187                    map_gather                            0.014081                2   9
  188                    m_alltoallv_z                         0.043488                2   9
  189                    map_scatter                           0.012380                2   9
  190        forloc                                1.213614                            1   3
  191          m_sumb_d                              0.013589                          1   4
  192        fornl                               703.277585                            1   3
  193          phase                                 2.587587                          2   4
  194          m_sumb_d                             15.729703                        898   4
  195        fordep                                0.082976                            1   3
  196          setdij_                               0.082769                          6   4
  197            m_alltoall_d                          0.003698                       12   5
  198          m_sumb_d                              0.000017                          1   4
  199        setdij_                               0.274507                           20   3
  200          m_alltoall_d                          0.018368                         40   4
  201        set_dd_magatom                        0.000000                            1   3
  202        set_dd_paw                            0.007394                            1   3
  203          set_rsgf_all                          0.000000                          1   4
  204          m_alltoall_d                          0.003707                          4   4
  205          m_sumb_d                              0.000632                          6   4
  206        strkin                                0.296061                            1   3
  207          m_sumb_d                              0.017669                          1   4
  208        strelo                                0.059138                            1   3
  209          m_sumb_d                              0.000647                          2   4
  210        strenl                             1666.445650                            1   3
  211          spher                                11.311001                         19   4
  212          phase                                22.836169                         18   4
  213          proj1                              1604.283718                       2016   4
  214            crexp_mul_wave                      490.248623                   735840   5
  215            m_sumb_d                              0.070294                     2016   5
  216          m_sumb_d                             27.965022                          1   4
  217        m_sumb_d                              0.000023                            1   3
  218        chggra                                0.192661                            1   3
  219          fft3d_mpi                             0.144312                          3   4
  220            fftbrc_mpi                            0.140990                        3   5
  221              fftbas_plan_mpi                       0.140987                      3   6
  222                dfftw_execute                         0.045880                    9   7
  223                map_backward                          0.027861                    2   7
  224                  map_gather                            0.006995                  1   8
  225                  m_alltoallv_z                         0.014232                  1   8
  226                  map_scatter                           0.006622                  1   8
  227                map_forward                           0.067177                    4   7
  228                  map_gather                            0.013087                  2   8
  229                  m_alltoallv_z                         0.039304                  2   8
  230                  map_scatter                           0.014764                  2   8
  231          m_sumb_d                              0.000015                          2   4
  232          pothar                                0.012653                          1   4
  233            m_sumb_d                              0.001269                        1   5
  234        forhar                                1.216399                            1   3
  235          m_sumb_d                              0.005625                          1   4
  236        m_bcast_d                             0.735128                            2   3
  237      potlok                                2.397954                              1   2
  238        fft3d_mpi                             1.020468                           26   3
  239          fftbrc_mpi                            0.983709                         26   4
  240            fftbas_plan_mpi                       0.983690                       26   5
  241              dfftw_execute                         0.391842                     78   6
  242              map_forward                           0.327420                     28   6
  243                map_gather                            0.070354                   16   7
  244                m_alltoallv_z                         0.150377                   16   7
  245                map_scatter                           0.106536                   16   7
  246              map_backward                          0.263839                     24   6
  247                map_gather                            0.083742                   12   7
  248                m_alltoallv_z                         0.105381                   12   7
  249                map_scatter                           0.074579                   12   7
  250        m_sumb_d                              0.000056                            5   3
  251        pothar                                0.011913                            1   3
  252          m_sumb_d                              0.000187                          1   4
  253        m_bcast_d                             0.014191                            2   3
  254      potlok_metagga                        0.000001                              1   2
  255      set_dd_magatom                        0.000000                              1   2
  256      set_dd_paw                            0.066942                              1   2
  257        set_rsgf_all                          0.000000                            1   3
  258        m_alltoall_d                          0.059030                            4   3
  259        m_sumb_d                              0.004742                            6   3
  260      m_alltoall_d                        233.979754                         678114   2
  261      densta                                0.098572                              1   2
  262        m_sumb_d                              0.001652                           10   3
  263        m_alltoall_d                          0.069494                           98   3
 
 Flat profile
 ============
 
             routine name                   CPU           calls
 ---------------------------------------------------------------
 proj1                                2760.875504        4930
 gemm                                 2693.303997     1472410
 eddav                                1295.578854           6
 crexp_mul_wave                       1206.369357     1799450
 work_mul_crexp                       1192.033197     1472410
 fornl                                 684.960295           1
 total_time                            684.183270           1
 m_bcast_z                             573.914298       63182
 m_alltoall_d                          523.828696      715628
 dfftw_execute                         368.394776       24951
 orth1                                 192.661880       12214
 ggemm                                 165.452973        5378
 vhamil                                 74.404206        4034
 phase                                  58.099681          47
 m_sumb_d                               56.730953       53610
 lincom                                 56.095436          28
 m_alltoallv_z                          41.688967        8323
 fftext_mpi                             33.357793        4034
 map_gather                             28.931491        8323
 map_scatter                            24.130346        8323
 fftwav_mpi                             22.898529        4218
 map_forward                            17.496789        8504
 sphpro_fast                            13.039415           2
 spher                                  11.998111          20
 redis_pw                               11.181571       10814
 eccp                                   10.306286        1344
 vnlac0                                  6.150187        4034
 w1_copy                                 5.693505       12102
 pdssyex_zheevx                          3.043532          24
 potlok                                  2.699840           2
 stufak                                  2.269038           2
 force_and_stress                        2.155540           1
 kinhamil                                2.040477        4034
 lapack                                  1.744126        4034
 apply_precond                           1.612175        2690
 setup_precond                           1.553279        1344
 m_bcast_d                               1.412521        9160
 pw_charge                               1.217564         184
 forhar                                  1.210774           1
 forloc                                  1.200025           1
 hamiltmu                                0.819439        4034
 setdij_                                 0.373618          29
 strkin                                  0.278392           1
 fftbas_plan_mpi                         0.266284        8317
 choleski                                0.241565           4
 overl1                                  0.125163        4034
 fft3d_mpi                               0.109151        8317
 overl                                   0.098475        6728
 soft_charge                             0.090083           1
 redis_proj                              0.064266       13508
 strelo                                  0.058491           1
 strenl                                  0.049740           1
 elmin                                   0.040314           1
 chggra                                  0.035681           1
 map_backward                            0.034511        8130
 pothar                                  0.033730           3
 orthch                                  0.033457           1
 densta                                  0.029171           7
 augmentation_charge                     0.022582           1
 newband                                 0.021604        4058
 w1_projall                              0.014263        2690
 set_dd_paw                              0.009336           3
 fftbas_mpi                              0.008865        8252
 inisym                                  0.006873           1
 rsp                                     0.004444           1
 fft_gq                                  0.003328           1
 set_charge                              0.003321           1
 depsum                                  0.003224           1
 fewald                                  0.001610           1
 truncate_high_frequency_w1              0.001348        5378
 proj                                    0.001043           2
 rcp                                     0.000298           1
 fordep                                  0.000190           1
 posmap                                  0.000128           2
 fftbrc_mpi                              0.000052          65
 crpa_reader                             0.000028           1
 proall                                  0.000013           1
 FERMAT_RAZOR                            0.000010           1
 set_rsgf_all                            0.000002           3
 potlok_metagga                          0.000002           2
 vectorpot                               0.000000           2
 set_dd_magatom                          0.000000           3
 redis_pw_over_bands                     0.000000           1
 rotate_active_occupied_orbital          0.000000           1
 ---------------------------------------------------------------
  summed up times     12838.80334901810     
 
 Accumulative profile
 ====================
 
             routine name                   CPU           calls
 ---------------------------------------------------------------
 total_time                          12838.803349           1
 elmin                                8732.351038           1
 eddav                                8729.505596           6
 hamiltmu                             4212.353522        4034
 proj1                                3967.429288        4930
 vnlac0                               3891.668878        4034
 gemm                                 2693.303997     1472410
 force_and_stress                     2389.490733           1
 w1_projall                           2179.956079        2690
 strenl                               1666.445650           1
 crexp_mul_wave                       1206.369357     1799450
 work_mul_crexp                       1192.033197     1472410
 fornl                                 703.277585           1
 m_bcast_z                             573.914298       63182
 m_alltoall_d                          523.828696      715628
 fft3d_mpi                             481.061233        8317
 fftbas_plan_mpi                       480.943164        8317
 fftbas_mpi                            478.419461        8252
 dfftw_execute                         368.394776       24951
 fftwav_mpi                            291.394293        4218
 kinhamil                              245.335837        4034
 fftext_mpi                            243.295360        4034
 orth1                                 192.661880       12214
 proall                                185.843603           1
 proj                                  183.204797           2
 ggemm                                 165.452973        5378
 redis_proj                            142.512351       13508
 redis_pw                              133.316842       10814
 newband                               109.702190        4058
 map_forward                            84.768266        8504
 vhamil                                 74.404206        4034
 phase                                  58.099681          47
 m_sumb_d                               56.730953       53610
 lincom                                 56.095436          28
 m_alltoallv_z                          41.688967        8323
 map_gather                             28.931491        8323
 map_backward                           27.513839        8130
 map_scatter                            24.130346        8323
 orthch                                 14.652734           1
 sphpro_fast                            14.555619           2
 set_charge                             13.534058           1
 soft_charge                            13.308823           1
 spher                                  11.998111          20
 eccp                                   10.336316        1344
 w1_copy                                 5.693505       12102
 potlok                                  4.927994           2
 pdssyex_zheevx                          3.043542          24
 fftbrc_mpi                              2.532621          65
 stufak                                  2.269038           2
 fewald                                  1.983836           1
 lapack                                  1.744126        4034
 apply_precond                           1.612175        2690
 setup_precond                           1.560611        1344
 m_bcast_d                               1.412521        9160
 pw_charge                               1.217564         184
 forhar                                  1.216399           1
 forloc                                  1.213614           1
 setdij_                                 0.409113          29
 strkin                                  0.296061           1
 choleski                                0.241565           4
 chggra                                  0.192661           1
 densta                                  0.159464           7
 set_dd_paw                              0.153106           3
 augmentation_charge                     0.127230           1
 overl1                                  0.125163        4034
 overl                                   0.098475        6728
 depsum                                  0.094684           1
 fordep                                  0.082976           1
 strelo                                  0.059138           1
 fft_gq                                  0.050734           1
 pothar                                  0.037160           3
 inisym                                  0.007001           1
 rsp                                     0.004444           1
 truncate_high_frequency_w1              0.001348        5378
 rcp                                     0.000298           1
 posmap                                  0.000128           2
 crpa_reader                             0.000028           1
 FERMAT_RAZOR                            0.000010           1
 set_rsgf_all                            0.000002           3
 potlok_metagga                          0.000002           2
 vectorpot                               0.000000           2
 set_dd_magatom                          0.000000           3
 redis_pw_over_bands                     0.000000           1
 rotate_active_occupied_orbital          0.000000           1
 ---------------------------------------------------------------
 
Profiling took   2.951419  1.365929  0.003971  0.003951 seconds
Profiling took   3.931228 seconds
