 running  256 mpi-ranks, with    1 threads/rank, on   14 nodes
 distrk:  each k-point on   32 cores,    8 groups
 distr:  one band on    2 cores,   16 groups
 vasp.6.4.1 05Apr23 (build May 18 2023 13:19:41) complex                         
 POSCAR found type information on POSCAR C H 
 POSCAR found :  2 types and     365 ions
 Reading from existing POTCAR
 -----------------------------------------------------------------------------
|                                                                             |
|           W    W    AA    RRRRR   N    N  II  N    N   GGGG   !!!           |
|           W    W   A  A   R    R  NN   N  II  NN   N  G    G  !!!           |
|           W    W  A    A  R    R  N N  N  II  N N  N  G       !!!           |
|           W WW W  AAAAAA  RRRRR   N  N N  II  N  N N  G  GGG   !            |
|           WW  WW  A    A  R   R   N   NN  II  N   NN  G    G                |
|           W    W  A    A  R    R  N    N  II  N    N   GGGG   !!!           |
|                                                                             |
|     You use a magnetic or noncollinear calculation, but did not specify     |
|     the initial magnetic moment with the MAGMOM tag. Note that a            |
|     default of 1 will be used for all atoms. This ferromagnetic setup       |
|     may break the symmetry of the crystal, in particular it may rule        |
|     out finding an antiferromagnetic solution. Thence, we recommend         |
|     setting the initial magnetic moment manually or verifying carefully     |
|     that this magnetic setup is desired.                                    |
|                                                                             |
 -----------------------------------------------------------------------------

 scaLAPACK will be used
 Reading from existing POTCAR
 -----------------------------------------------------------------------------
|                                                                             |
|               ----> ADVICE to this user running VASP <----                  |
|                                                                             |
|     You have a (more or less) 'large supercell' and for larger cells it     |
|     might be more efficient to use real-space projection operators.         |
|     Therefore, try LREAL= Auto in the INCAR file.                           |
|     Mind: If you want to do very accurate calculations, keep the            |
|     reciprocal projection scheme (i.e. LREAL=.FALSE.).                      |
|                                                                             |
 -----------------------------------------------------------------------------

 LDA part: xc-table for Pade appr. of Perdew
 found WAVECAR, reading the header
  number of k-points has changed, file:     2 present:    16
  trying to continue reading WAVECAR, but it might fail
 WARNING: stress and forces are not correct
 POSCAR, INCAR and KPOINTS ok, starting setup
 FFT: planning ... GRIDC
 FFT: planning ... GRID_SOFT
 FFT: planning ... GRID
 reading WAVECAR
 the WAVECAR file was read successfully
 charge-density read from file: 02_SCF                                  
 magnetization density read from file 1
 entering main loop
       N       E                     dE             d eps       ncg     rms          rms(c)
DAV:   1    -0.330904060354E+04   -0.33090E+04   -0.62274E+02 60608   0.185E+01
DAV:   2    -0.331108190218E+04   -0.20413E+01   -0.20411E+01 65088   0.470E+00
DAV:   3    -0.331114072261E+04   -0.58820E-01   -0.58817E-01 80208   0.713E-01
DAV:   4    -0.331114130910E+04   -0.58649E-03   -0.58619E-03 67296   0.800E-02
DAV:   5    -0.331114133654E+04   -0.27442E-04   -0.27327E-04 81680   0.148E-02
DAV:   6    -0.331114133715E+04   -0.60711E-06   -0.49536E-06 56224   0.216E-03
   1 F= -.33251147E+04 E0= -.33251147E+04  d E =-.104123E-33  mag=     1.0000
 writing wavefunctions
 PROFILE, used timers:     263
