 vasp.6.4.2 20Jul23 (build Oct 12 2023 10:31:02) complex                         
 executed on              LinuxNV date 2025.05.28  17:01:34
 running  128 mpi-ranks, with    1 threads/rank, on    2 nodes
 distrk:  each k-point on   64 cores,    2 groups
 distr:  one band on NCORE=   4 cores,   16 groups


--------------------------------------------------------------------------------------------------------


 INCAR:
   ENCUT = 360.000000
   SIGMA = 0.050000
   EDIFF = 1.00e-06
   ALGO = Normal
   GGA = PE
   PREC = Normal
   SYSTEM = ./
   ICHARG = 2
   ISMEAR = 0
   ISPIN = 1
   ISTART = 0
   ISYM = 0
   KPAR = 2
   LMAXMIX = 4
   NELM = 100
   NPAR = 16
   LASPH = .TRUE.
   LCHARG = .FALSE.
   LWAVE = .FALSE.

 POTCAR:    PAW_PBE Ge 05Jan2001                  
 POTCAR:    PAW_PBE Se 06Sep2000                  
 POTCAR:    PAW_PBE Ge 05Jan2001                  
   VRHFIN =Ge: s2p2                                                                                 
   LEXCH  = PE                                                                                      
   EATOM  =   104.9960 eV,    7.7170 Ry                                                             
                                                                                                    
   TITEL  = PAW_PBE Ge 05Jan2001                                                                    
   LULTRA =        F    use ultrasoft PP ?                                                          
   IUNSCR =        1    unscreen: 0-lin 1-nonlin 2-no                                               
   RPACOR =    2.170    partial core radius                                                         
   POMASS =   72.610; ZVAL   =    4.000    mass and valenz                                          
   RCORE  =    2.300    outmost cutoff radius                                                       
   RWIGS  =    2.300; RWIGS  =    1.217    wigner-seitz radius (au A)                               
   ENMAX  =  173.807; ENMIN  =  130.355 eV                                                          
   ICORE  =        3    local potential                                                             
   LCOR   =        T    correct aug charges                                                         
   LPAW   =        T    paw PP                                                                      
   EAUG   =  385.843                                                                                
   DEXC   =    0.000                                                                                
   RMAX   =    2.342    core radius for proj-oper                                                   
   RAUG   =    1.300    factor for augmentation sphere                                              
   RDEP   =    2.318    radius for radial grids                                                     
   RDEPT  =    2.103    core radius for aug-charge                                                  
                                                                                                    
   Atomic configuration                                                                             
   10 entries                                                                                       
     n  l   j            E        occ.                                                              
     1  0  0.50    -10959.8463   2.0000                                                             
     2  0  0.50     -1371.6056   2.0000                                                             
     2  1  1.50     -1198.4791   6.0000                                                             
     3  0  0.50      -168.4733   2.0000                                                             
     3  1  1.50      -115.6019   6.0000                                                             
     3  2  2.50       -29.3106  10.0000                                                             
     4  0  0.50       -11.7309   2.0000                                                             
     4  1  0.50        -3.8952   2.0000                                                             
     4  2  1.50        -4.0817   0.0000                                                             
     4  3  2.50        -4.0817   0.0000                                                             
   Description                                                                                      
     l       E           TYP  RCUT    TYP  RCUT                                                     
     0    -11.7309493     23  2.300                                                                 
     0     -7.4578696     23  2.300                                                                 
     1     -3.8952261     23  2.300                                                                 
     1      6.1178114     23  2.300                                                                 
     2     -4.0817478     23  2.300                                                                 
     3     -1.3605826      7  2.300                                                                 
  local pseudopotential read in
  partial core-charges read in
  partial kinetic energy density read in
  atomic valenz-charges read in
  non local Contribution for L=            0  read in
    real space projection operators read in
  non local Contribution for L=            0  read in
    real space projection operators read in
  non local Contribution for L=            1  read in
    real space projection operators read in
  non local Contribution for L=            1  read in
    real space projection operators read in
  non local Contribution for L=            2  read in
    real space projection operators read in
    PAW grid and wavefunctions read in
 
   number of l-projection  operators is LMAX  =            5
   number of lm-projection operators is LMMAX =           13
 
 POTCAR:    PAW_PBE Se 06Sep2000                  
   VRHFIN =Se: s2p4                                                                                 
   LEXCH  = PE                                                                                      
   EATOM  =   257.1286 eV,   18.8984 Ry                                                             
                                                                                                    
   TITEL  = PAW_PBE Se 06Sep2000                                                                    
   LULTRA =        F    use ultrasoft PP ?                                                          
   IUNSCR =        1    unscreen: 0-lin 1-nonlin 2-no                                               
   RPACOR =    1.900    partial core radius                                                         
   POMASS =   78.960; ZVAL   =    6.000    mass and valenz                                          
   RCORE  =    2.100    outmost cutoff radius                                                       
   RWIGS  =    2.200; RWIGS  =    1.164    wigner-seitz radius (au A)                               
   ENMAX  =  211.555; ENMIN  =  158.666 eV                                                          
   ICORE  =        3    local potential                                                             
   LCOR   =        T    correct aug charges                                                         
   LPAW   =        T    paw PP                                                                      
   EAUG   =  446.842                                                                                
   DEXC   =    0.000                                                                                
   RMAX   =    2.147    core radius for proj-oper                                                   
   RAUG   =    1.300    factor for augmentation sphere                                              
   RDEP   =    2.177    radius for radial grids                                                     
   RDEPT  =    1.928    core radius for aug-charge                                                  
                                                                                                    
   Atomic configuration                                                                             
   10 entries                                                                                       
     n  l   j            E        occ.                                                              
     1  0  0.50    -12503.4787   2.0000                                                             
     2  0  0.50     -1606.9547   2.0000                                                             
     2  1  1.50     -1413.3140   6.0000                                                             
     3  0  0.50      -213.4885   2.0000                                                             
     3  1  1.50      -152.9538   6.0000                                                             
     3  2  2.50       -53.1221  10.0000                                                             
     4  0  0.50       -17.2865   2.0000                                                             
     4  1  0.50        -6.5110   4.0000                                                             
     4  2  2.50        -6.8029   0.0000                                                             
     4  3  2.50        -6.8029   0.0000                                                             
   Description                                                                                      
     l       E           TYP  RCUT    TYP  RCUT                                                     
     0    -17.2865377     23  2.100                                                                 
     0    -15.3094411     23  2.100                                                                 
     1     -6.5110275     23  2.100                                                                 
     1     -0.0695192     23  2.100                                                                 
     2     -6.8029130     23  2.100                                                                 
     3     -1.3605826      7  2.100                                                                 
  local pseudopotential read in
  partial core-charges read in
  partial kinetic energy density read in
  atomic valenz-charges read in
  non local Contribution for L=            0  read in
    real space projection operators read in
  non local Contribution for L=            0  read in
    real space projection operators read in
  non local Contribution for L=            1  read in
    real space projection operators read in
  non local Contribution for L=            1  read in
    real space projection operators read in
  non local Contribution for L=            2  read in
    real space projection operators read in
    PAW grid and wavefunctions read in
 
   number of l-projection  operators is LMAX  =            5
   number of lm-projection operators is LMMAX =           13
 
  PAW_PBE Ge 05Jan2001                  :
 energy of atom  1       EATOM= -104.9960
 kinetic energy error for atom=    0.0005 (will be added to EATOM!!)
  PAW_PBE Se 06Sep2000                  :
 energy of atom  2       EATOM= -257.1286
 kinetic energy error for atom=    0.0030 (will be added to EATOM!!)
 
 
 POSCAR: Ge Se
  positions in cartesian coordinates
  No initial velocities read in
 exchange correlation table for  LEXCH =        8
   RHO(1)=    0.500       N(1)  =     2000
   RHO(2)=  100.500       N(2)  =     4000
 


--------------------------------------------------------------------------------------------------------


 ion  position               nearest neighbor table
   1  0.000  0.250  0.146-   5 2.43
   2  0.500  0.750  0.354-   6 2.43
   3  0.000  0.750  0.854-   7 2.43
   4  0.500  0.250  0.646-   8 2.43
   5  0.000  0.250  0.364-   1 2.43
   6  0.500  0.750  0.136-   2 2.43
   7  0.000  0.750  0.636-   3 2.43
   8  0.500  0.250  0.864-   4 2.43
 

IMPORTANT INFORMATION: All symmetrisations will be switched off!
NOSYMM: (Re-)initialisation of all symmetry stuff for point group C_1.


----------------------------------------------------------------------------------------

                                     Primitive cell                                     

  volume of cell :     230.6718

  direct lattice vectors                    reciprocal lattice vectors
     4.550000000  0.000000000  0.000000000     0.219780220  0.000000000  0.000000000
     0.000000000  4.550000000  0.000000000     0.000000000  0.219780220  0.000000000
     0.000000000  0.000000000 11.142221000     0.000000000  0.000000000  0.089748713

  length of vectors
     4.550000000  4.550000000 11.142221000     0.219780220  0.219780220  0.089748713

  position of ions in fractional coordinates (direct lattice)
     0.000000000  0.250000000  0.146017726
     0.500000000  0.750000000  0.353982274
     0.000000000  0.750000000  0.853982274
     0.500000000  0.250000000  0.646017726
     0.000000000  0.250000000  0.364341614
     0.500000000  0.750000000  0.135658386
     0.000000000  0.750000000  0.635658386
     0.500000000  0.250000000  0.864341614

  ion indices of the primitive-cell ions
   primitive index   ion index
                 1           1
                 2           2
                 3           3
                 4           4
                 5           5
                 6           6
                 7           7
                 8           8

----------------------------------------------------------------------------------------

 
 
 KPOINTS: KPOINTS created by Atomic Simulation Env

Automatic generation of k-mesh.
 Grid dimensions read from file:
 generate k-points for:    6    6    2

 Generating k-lattice:

  Cartesian coordinates                     Fractional coordinates (reciprocal lattice)
     0.036630037  0.000000000  0.000000000     0.166666667  0.000000000  0.000000000
     0.000000000  0.036630037  0.000000000     0.000000000  0.166666667  0.000000000
     0.000000000  0.000000000  0.044874357     0.000000000  0.000000000  0.500000000

  Length of vectors
     0.036630037  0.036630037  0.044874357

  Shift w.r.t. Gamma in fractional coordinates (k-lattice)
     0.000000000  0.000000000  0.000000000

 
 Subroutine IBZKPT returns following result:
 ===========================================
 
 Found     40 irreducible k-points:
 
 Following reciprocal coordinates:
            Coordinates               Weight
  0.000000  0.000000  0.000000      1.000000
  0.166667  0.000000  0.000000      2.000000
  0.000000  0.166667  0.000000      2.000000
  0.333333  0.000000  0.000000      2.000000
  0.000000  0.333333  0.000000      2.000000
  0.500000  0.000000  0.000000      1.000000
  0.000000  0.500000  0.000000      1.000000
  0.166667  0.166667  0.000000      2.000000
 -0.166667  0.166667  0.000000      2.000000
  0.333333  0.166667  0.000000      2.000000
 -0.166667  0.333333  0.000000      2.000000
 -0.333333  0.166667  0.000000      2.000000
  0.166667  0.333333  0.000000      2.000000
  0.500000  0.166667  0.000000      2.000000
 -0.166667  0.500000  0.000000      2.000000
  0.333333  0.333333  0.000000      2.000000
 -0.333333  0.333333  0.000000      2.000000
  0.500000  0.333333  0.000000      2.000000
 -0.333333  0.500000  0.000000      2.000000
  0.500000  0.500000  0.000000      1.000000
  0.000000  0.000000  0.500000      1.000000
  0.166667  0.000000  0.500000      2.000000
  0.000000  0.166667  0.500000      2.000000
  0.333333  0.000000  0.500000      2.000000
  0.000000  0.333333  0.500000      2.000000
  0.500000  0.000000  0.500000      1.000000
  0.000000  0.500000  0.500000      1.000000
  0.166667  0.166667  0.500000      2.000000
 -0.166667  0.166667  0.500000      2.000000
  0.333333  0.166667  0.500000      2.000000
 -0.166667  0.333333  0.500000      2.000000
 -0.333333  0.166667  0.500000      2.000000
  0.166667  0.333333  0.500000      2.000000
  0.500000  0.166667  0.500000      2.000000
 -0.166667  0.500000  0.500000      2.000000
  0.333333  0.333333  0.500000      2.000000
 -0.333333  0.333333  0.500000      2.000000
  0.500000  0.333333  0.500000      2.000000
 -0.333333  0.500000  0.500000      2.000000
  0.500000  0.500000  0.500000      1.000000
 
 Following cartesian coordinates:
            Coordinates               Weight
  0.000000  0.000000  0.000000      1.000000
  0.036630  0.000000  0.000000      2.000000
  0.000000  0.036630  0.000000      2.000000
  0.073260  0.000000  0.000000      2.000000
  0.000000  0.073260  0.000000      2.000000
  0.109890  0.000000  0.000000      1.000000
  0.000000  0.109890  0.000000      1.000000
  0.036630  0.036630  0.000000      2.000000
 -0.036630  0.036630  0.000000      2.000000
  0.073260  0.036630  0.000000      2.000000
 -0.036630  0.073260  0.000000      2.000000
 -0.073260  0.036630  0.000000      2.000000
  0.036630  0.073260  0.000000      2.000000
  0.109890  0.036630  0.000000      2.000000
 -0.036630  0.109890  0.000000      2.000000
  0.073260  0.073260  0.000000      2.000000
 -0.073260  0.073260  0.000000      2.000000
  0.109890  0.073260  0.000000      2.000000
 -0.073260  0.109890  0.000000      2.000000
  0.109890  0.109890  0.000000      1.000000
  0.000000  0.000000  0.044874      1.000000
  0.036630  0.000000  0.044874      2.000000
  0.000000  0.036630  0.044874      2.000000
  0.073260  0.000000  0.044874      2.000000
  0.000000  0.073260  0.044874      2.000000
  0.109890  0.000000  0.044874      1.000000
  0.000000  0.109890  0.044874      1.000000
  0.036630  0.036630  0.044874      2.000000
 -0.036630  0.036630  0.044874      2.000000
  0.073260  0.036630  0.044874      2.000000
 -0.036630  0.073260  0.044874      2.000000
 -0.073260  0.036630  0.044874      2.000000
  0.036630  0.073260  0.044874      2.000000
  0.109890  0.036630  0.044874      2.000000
 -0.036630  0.109890  0.044874      2.000000
  0.073260  0.073260  0.044874      2.000000
 -0.073260  0.073260  0.044874      2.000000
  0.109890  0.073260  0.044874      2.000000
 -0.073260  0.109890  0.044874      2.000000
  0.109890  0.109890  0.044874      1.000000
 


--------------------------------------------------------------------------------------------------------




 Dimension of arrays:
   k-points           NKPTS =     40   k-points in BZ     NKDIM =     40   number of bands    NBANDS=     32
   number of dos      NEDOS =    301   number of ions     NIONS =      8
   non local maximal  LDIM  =      5   non local SUM 2l+1 LMDIM =     13
   total plane-waves  NPLWV =  31104
   max r-space proj   IRMAX =      1   max aug-charges    IRDMAX=   7527
   dimension x,y,z NGX =    24 NGY =   24 NGZ =   54
   dimension x,y,z NGXF=    48 NGYF=   48 NGZF=  108
   support grid    NGXF=    48 NGYF=   48 NGZF=  108
   ions per type =               4   4
   NGX,Y,Z   is equivalent  to a cutoff of   8.77,  8.77,  8.06 a.u.
   NGXF,Y,Z  is equivalent  to a cutoff of  17.54, 17.54, 16.11 a.u.

 SYSTEM =  ./                                      
 POSCAR =  Ge Se                                   

 Startparameter for this run:
   NWRITE =      2    write-flag & timer
   PREC   = normal    normal or accurate (medium, high low for compatibility)
   ISTART =      0    job   : 0-new  1-cont  2-samecut
   ICHARG =      2    charge: 1-file 2-atom 10-const
   ISPIN  =      1    spin polarized calculation?
   LNONCOLLINEAR =      F non collinear calculations
   LSORBIT =      F    spin-orbit coupling
   INIWAV =      1    electr: 0-lowe 1-rand  2-diag
   LASPH  =      T    aspherical Exc in radial PAW
 Electronic Relaxation 1
   ENCUT  =  360.0 eV  26.46 Ry    5.14 a.u.   7.04  7.04 17.24*2*pi/ulx,y,z
   ENINI  =  360.0     initial cutoff
   ENAUG  =  446.8 eV  augmentation charge cutoff
   NELM   =    100;   NELMIN=  2; NELMDL= -5     # of ELM steps 
   EDIFF  = 0.1E-05   stopping-criterion for ELM
   LREAL  =      F    real-space projection
   NLSPLINE    = F    spline interpolate recip. space projectors
   LCOMPAT=      F    compatible to vasp.4.4
   GGA_COMPAT  = T    GGA compatible to vasp.4.4-vasp.4.6
   LMAXPAW     = -100 max onsite density
   LMAXMIX     =    4 max onsite mixed and CHGCAR
   VOSKOWN=      0    Vosko Wilk Nusair interpolation
   ROPT   =    0.00000   0.00000
 Ionic relaxation
   EDIFFG = 0.1E-04   stopping-criterion for IOM
   NSW    =      0    number of steps for IOM
   NBLOCK =      1;   KBLOCK =      1    inner block; outer block 
   IBRION =     -1    ionic relax: 0-MD 1-quasi-New 2-CG
   NFREE  =      0    steps in history (QN), initial steepest desc. (CG)
   ISIF   =      2    stress and relaxation
   IWAVPR =     10    prediction:  0-non 1-charg 2-wave 3-comb
   ISYM   =      0    0-nonsym 1-usesym 2-fastsym
   LCORR  =      T    Harris-Foulkes like correction to forces

   POTIM  = 0.5000    time-step for ionic-motion
   TEIN   =    0.0    initial temperature
   TEBEG  =    0.0;   TEEND  =   0.0 temperature during run
   SMASS  =  -3.00    Nose mass-parameter (am)
   estimated Nose-frequenzy (Omega)   =  0.10E-29 period in steps = 0.13E+47 mass=  -0.473E-27a.u.
   SCALEE = 1.0000    scale energy and forces
   NPACO  =    256;   APACO  = 10.0  distance and # of slots for P.C.
   PSTRESS=    0.0 pullay stress

  Mass of Ions in am
   POMASS =  72.61 78.96
  Ionic Valenz
   ZVAL   =   4.00  6.00
  Atomic Wigner-Seitz radii
   RWIGS  =  -1.00 -1.00
  virtual crystal weights 
   VCA    =   1.00  1.00
   NELECT =      40.0000    total number of electrons
   NUPDOWN=      -1.0000    fix difference up-down

 DOS related values:
   EMIN   =  10.00;   EMAX   =-10.00  energy-range for DOS
   EFERMI =   0.00;   METHOD = LEGACY      
   ISMEAR =     0;   SIGMA  =   0.05  broadening in eV -4-tet -1-fermi 0-gaus

 Electronic relaxation 2 (details)
   IALGO  =     38    algorithm
   LDIAG  =      T    sub-space diagonalisation (order eigenvalues)
   LSUBROT=      F    optimize rotation matrix (better conditioning)
   TURBO    =      0    0=normal 1=particle mesh
   IRESTART =      0    0=no restart 2=restart with 2 vectors
   NREBOOT  =      0    no. of reboots
   NMIN     =      0    reboot dimension
   EREF     =   0.00    reference energy to select bands
   IMIX   =      4    mixing-type and parameters
     AMIX     =   0.40;   BMIX     =  1.00
     AMIX_MAG =   1.60;   BMIX_MAG =  1.00
     AMIN     =   0.10
     WC   =   100.;   INIMIX=   1;  MIXPRE=   1;  MAXMIX= -45

 Intra band minimization:
   WEIMIN = 0.0000     energy-eigenvalue tresh-hold
   EBREAK =  0.78E-08  absolut break condition
   DEPER  =   0.30     relativ break condition  

   TIME   =   0.40     timestep for ELM

  volume/ion in A,a.u.               =      28.83       194.58
  Fermi-wavevector in a.u.,A,eV,Ry     =   0.912914  1.725158 11.339264  0.833412
  Thomas-Fermi vector in A             =   2.037365
 
 Write flags
   LWAVE        =      F    write WAVECAR
   LDOWNSAMPLE  =      F    k-point downsampling of WAVECAR
   LCHARG       =      F    write CHGCAR
   LVTOT        =      F    write LOCPOT, total local potential
   LVHAR        =      F    write LOCPOT, Hartree potential only
   LELF         =      F    write electronic localiz. function (ELF)
   LORBIT       =      0    0 simple, 1 ext, 2 COOP (PROOUT), +10 PAW based schemes


 Dipole corrections
   LMONO  =      F    monopole corrections only (constant potential shift)
   LDIPOL =      F    correct potential (dipole corrections)
   IDIPOL =      0    1-x, 2-y, 3-z, 4-all directions 
   EPSILON=  1.0000000 bulk dielectric constant

 Exchange correlation treatment:
   GGA     =    PE    GGA type
   LEXCH   =     8    internal setting for exchange type
   LIBXC   =     F    Libxc                    
   VOSKOWN =     0    Vosko Wilk Nusair interpolation
   LHFCALC =     F    Hartree Fock is set to
   LHFONE  =     F    Hartree Fock one center treatment
   AEXX    =    0.0000 exact exchange contribution

 Linear response parameters
   LEPSILON=     F    determine dielectric tensor
   LRPA    =     F    only Hartree local field effects (RPA)
   LNABLA  =     F    use nabla operator in PAW spheres
   LVEL    =     F    velocity operator in full k-point grid
   CSHIFT  =0.1000    complex shift for real part using Kramers Kronig
   OMEGAMAX=  -1.0    maximum frequency
   DEG_THRESHOLD= 0.2000000E-02 threshold for treating states as degnerate
   RTIME   =   -0.100 relaxation time in fs
  (WPLASMAI=    0.000 imaginary part of plasma frequency in eV, 0.658/RTIME)
   DFIELD  = 0.0000000 0.0000000 0.0000000 field for delta impulse in time
 
  Optional k-point grid parameters
   LKPOINTS_OPT  =     F    use optional k-point grid
   KPOINTS_OPT_MODE=     1    mode for optional k-point grid
 
 Orbital magnetization related:
   ORBITALMAG=     F  switch on orbital magnetization
   LCHIMAG   =     F  perturbation theory with respect to B field
   DQ        =  0.001000  dq finite difference perturbation B field
   LLRAUG    =     F  two centre corrections for induced B field
   LBONE     =     F  B-component reconstruction in AE one-centre
   LVGVCALC  =     T  calculate vGv susceptibility
   LVGVAPPL  =     F  apply vGv susceptibility instead of pGv for G=0

 Random number generation:
   RANDOM_GENERATOR = DEFAULT
   PCG_SEED         = not used


--------------------------------------------------------------------------------------------------------


 Static calculation
 charge density and potential will be updated during run
 non-spin polarized calculation
 Variant of blocked Davidson
 Davidson routine will perform the subspace rotation
 perform sub-space diagonalisation
    after iterative eigenvector-optimisation
 modified Broyden-mixing scheme, WC =      100.0
 initial mixing is a Kerker type mixing with AMIX =  0.4000 and BMIX =      1.0000
 Hartree-type preconditioning will be used
 using additional bands            12
 reciprocal scheme for non local part
 use partial core corrections
 calculate Harris-corrections to forces 
   (improved forces if not selfconsistent)
 use gradient corrections 
 use of overlap-Matrix (Vanderbilt PP)
 Gauss-broadening in eV      SIGMA  =   0.05


--------------------------------------------------------------------------------------------------------


  energy-cutoff  :      360.00
  volume of cell :      230.67
      direct lattice vectors                 reciprocal lattice vectors
     4.550000000  0.000000000  0.000000000     0.219780220  0.000000000  0.000000000
     0.000000000  4.550000000  0.000000000     0.000000000  0.219780220  0.000000000
     0.000000000  0.000000000 11.142221000     0.000000000  0.000000000  0.089748713

  length of vectors
     4.550000000  4.550000000 11.142221000     0.219780220  0.219780220  0.089748713


 
 k-points in units of 2pi/SCALE and weight: KPOINTS created by Atomic Simulation Env
   0.00000000  0.00000000  0.00000000       0.014
   0.03663004  0.00000000  0.00000000       0.028
   0.00000000  0.03663004  0.00000000       0.028
   0.07326007  0.00000000  0.00000000       0.028
   0.00000000  0.07326007  0.00000000       0.028
   0.10989011  0.00000000  0.00000000       0.014
   0.00000000  0.10989011  0.00000000       0.014
   0.03663004  0.03663004  0.00000000       0.028
  -0.03663004  0.03663004  0.00000000       0.028
   0.07326007  0.03663004  0.00000000       0.028
  -0.03663004  0.07326007  0.00000000       0.028
  -0.07326007  0.03663004  0.00000000       0.028
   0.03663004  0.07326007  0.00000000       0.028
   0.10989011  0.03663004  0.00000000       0.028
  -0.03663004  0.10989011  0.00000000       0.028
   0.07326007  0.07326007  0.00000000       0.028
  -0.07326007  0.07326007  0.00000000       0.028
   0.10989011  0.07326007  0.00000000       0.028
  -0.07326007  0.10989011  0.00000000       0.028
   0.10989011  0.10989011  0.00000000       0.014
   0.00000000  0.00000000  0.04487436       0.014
   0.03663004  0.00000000  0.04487436       0.028
   0.00000000  0.03663004  0.04487436       0.028
   0.07326007  0.00000000  0.04487436       0.028
   0.00000000  0.07326007  0.04487436       0.028
   0.10989011  0.00000000  0.04487436       0.014
   0.00000000  0.10989011  0.04487436       0.014
   0.03663004  0.03663004  0.04487436       0.028
  -0.03663004  0.03663004  0.04487436       0.028
   0.07326007  0.03663004  0.04487436       0.028
  -0.03663004  0.07326007  0.04487436       0.028
  -0.07326007  0.03663004  0.04487436       0.028
   0.03663004  0.07326007  0.04487436       0.028
   0.10989011  0.03663004  0.04487436       0.028
  -0.03663004  0.10989011  0.04487436       0.028
   0.07326007  0.07326007  0.04487436       0.028
  -0.07326007  0.07326007  0.04487436       0.028
   0.10989011  0.07326007  0.04487436       0.028
  -0.07326007  0.10989011  0.04487436       0.028
   0.10989011  0.10989011  0.04487436       0.014
 
 k-points in reciprocal lattice and weights: KPOINTS created by Atomic Simulation Env
   0.00000000  0.00000000  0.00000000       0.014
   0.16666667  0.00000000  0.00000000       0.028
   0.00000000  0.16666667  0.00000000       0.028
   0.33333333  0.00000000  0.00000000       0.028
   0.00000000  0.33333333  0.00000000       0.028
   0.50000000  0.00000000  0.00000000       0.014
   0.00000000  0.50000000  0.00000000       0.014
   0.16666667  0.16666667  0.00000000       0.028
  -0.16666667  0.16666667  0.00000000       0.028
   0.33333333  0.16666667  0.00000000       0.028
  -0.16666667  0.33333333  0.00000000       0.028
  -0.33333333  0.16666667  0.00000000       0.028
   0.16666667  0.33333333  0.00000000       0.028
   0.50000000  0.16666667  0.00000000       0.028
  -0.16666667  0.50000000  0.00000000       0.028
   0.33333333  0.33333333  0.00000000       0.028
  -0.33333333  0.33333333  0.00000000       0.028
   0.50000000  0.33333333  0.00000000       0.028
  -0.33333333  0.50000000  0.00000000       0.028
   0.50000000  0.50000000  0.00000000       0.014
   0.00000000  0.00000000  0.50000000       0.014
   0.16666667  0.00000000  0.50000000       0.028
   0.00000000  0.16666667  0.50000000       0.028
   0.33333333  0.00000000  0.50000000       0.028
   0.00000000  0.33333333  0.50000000       0.028
   0.50000000  0.00000000  0.50000000       0.014
   0.00000000  0.50000000  0.50000000       0.014
   0.16666667  0.16666667  0.50000000       0.028
  -0.16666667  0.16666667  0.50000000       0.028
   0.33333333  0.16666667  0.50000000       0.028
  -0.16666667  0.33333333  0.50000000       0.028
  -0.33333333  0.16666667  0.50000000       0.028
   0.16666667  0.33333333  0.50000000       0.028
   0.50000000  0.16666667  0.50000000       0.028
  -0.16666667  0.50000000  0.50000000       0.028
   0.33333333  0.33333333  0.50000000       0.028
  -0.33333333  0.33333333  0.50000000       0.028
   0.50000000  0.33333333  0.50000000       0.028
  -0.33333333  0.50000000  0.50000000       0.028
   0.50000000  0.50000000  0.50000000       0.014
 
 position of ions in fractional coordinates (direct lattice) 
   0.00000000  0.25000000  0.14601773
   0.50000000  0.75000000  0.35398227
   0.00000000  0.75000000  0.85398227
   0.50000000  0.25000000  0.64601773
   0.00000000  0.25000000  0.36434161
   0.50000000  0.75000000  0.13565839
   0.00000000  0.75000000  0.63565839
   0.50000000  0.25000000  0.86434161
 
 position of ions in cartesian coordinates  (Angst):
   0.00000000  1.13750000  1.62696178
   2.27500000  3.41250000  3.94414872
   0.00000000  3.41250000  9.51525922
   2.27500000  1.13750000  7.19807228
   0.00000000  1.13750000  4.05957478
   2.27500000  3.41250000  1.51153572
   0.00000000  3.41250000  7.08264622
   2.27500000  1.13750000  9.63068528
 


--------------------------------------------------------------------------------------------------------


 k-point   1 :   0.0000 0.0000 0.0000  plane waves:    3543
 k-point   2 :   0.1667 0.0000 0.0000  plane waves:    3546
 k-point   3 :   0.0000 0.1667 0.0000  plane waves:    3546
 k-point   4 :   0.3333 0.0000 0.0000  plane waves:    3568
 k-point   5 :   0.0000 0.3333 0.0000  plane waves:    3568
 k-point   6 :   0.5000 0.0000 0.0000  plane waves:    3606
 k-point   7 :   0.0000 0.5000 0.0000  plane waves:    3606
 k-point   8 :   0.1667 0.1667 0.0000  plane waves:    3566
 k-point   9 :  -0.1667 0.1667 0.0000  plane waves:    3566
 k-point  10 :   0.3333 0.1667 0.0000  plane waves:    3586
 k-point  11 :  -0.1667 0.3333 0.0000  plane waves:    3586
 k-point  12 :  -0.3333 0.1667 0.0000  plane waves:    3586
 k-point  13 :   0.1667 0.3333 0.0000  plane waves:    3586
 k-point  14 :   0.5000 0.1667 0.0000  plane waves:    3564
 k-point  15 :  -0.1667 0.5000 0.0000  plane waves:    3564
 k-point  16 :   0.3333 0.3333 0.0000  plane waves:    3576
 k-point  17 :  -0.3333 0.3333 0.0000  plane waves:    3576
 k-point  18 :   0.5000 0.3333 0.0000  plane waves:    3590
 k-point  19 :  -0.3333 0.5000 0.0000  plane waves:    3590
 k-point  20 :   0.5000 0.5000 0.0000  plane waves:    3580
 k-point  21 :   0.0000 0.0000 0.5000  plane waves:    3538
 k-point  22 :   0.1667 0.0000 0.5000  plane waves:    3560
 k-point  23 :   0.0000 0.1667 0.5000  plane waves:    3560
 k-point  24 :   0.3333 0.0000 0.5000  plane waves:    3600
 k-point  25 :   0.0000 0.3333 0.5000  plane waves:    3600
 k-point  26 :   0.5000 0.0000 0.5000  plane waves:    3576
 k-point  27 :   0.0000 0.5000 0.5000  plane waves:    3576
 k-point  28 :   0.1667 0.1667 0.5000  plane waves:    3568
 k-point  29 :  -0.1667 0.1667 0.5000  plane waves:    3568
 k-point  30 :   0.3333 0.1667 0.5000  plane waves:    3602
 k-point  31 :  -0.1667 0.3333 0.5000  plane waves:    3602
 k-point  32 :  -0.3333 0.1667 0.5000  plane waves:    3602
 k-point  33 :   0.1667 0.3333 0.5000  plane waves:    3602
 k-point  34 :   0.5000 0.1667 0.5000  plane waves:    3572
 k-point  35 :  -0.1667 0.5000 0.5000  plane waves:    3572
 k-point  36 :   0.3333 0.3333 0.5000  plane waves:    3576
 k-point  37 :  -0.3333 0.3333 0.5000  plane waves:    3576
 k-point  38 :   0.5000 0.3333 0.5000  plane waves:    3604
 k-point  39 :  -0.3333 0.5000 0.5000  plane waves:    3604
 k-point  40 :   0.5000 0.5000 0.5000  plane waves:    3624

 maximum and minimum number of plane-waves per node :       918      873

 maximum number of plane-waves:      3624
 maximum index in each direction: 
   IXMAX=    7   IYMAX=    7   IZMAX=   17
   IXMIN=   -7   IYMIN=   -7   IZMIN=  -17


 parallel 3D FFT for wavefunctions:
    minimum data exchange during FFTs selected (reduces bandwidth)
 parallel 3D FFT for charge:
    minimum data exchange during FFTs selected (reduces bandwidth)


 total amount of memory used by VASP MPI-rank0    39953. kBytes
=======================================================================

   base      :      30000. kBytes
   nonl-proj :       7704. kBytes
   fftplans  :        418. kBytes
   grid      :        607. kBytes
   one-center:         16. kBytes
   wavefun   :       1208. kBytes
 
     INWAV:  cpu time      0.0000: real time      0.0001
 Broyden mixing: mesh for mixing (old mesh)
   NGX = 15   NGY = 15   NGZ = 35
  (NGX  = 48   NGY  = 48   NGZ  =108)
  gives a total of   7875 points

 initial charge density was supplied:
 charge density of overlapping atoms calculated
 number of electron      40.0000000 magnetization 
 keeping initial charge density in first step


--------------------------------------------------------------------------------------------------------


 Maximum index for augmentation-charges           439 (set IRDMAX)


--------------------------------------------------------------------------------------------------------


 First call to EWALD:  gamma=   0.289
 Maximum number of real-space cells 4x 4x 2
 Maximum number of reciprocal cells 2x 2x 5

    FEWALD:  cpu time      0.0018: real time      0.0018


--------------------------------------- Ionic step        1  -------------------------------------------




--------------------------------------- Iteration      1(   1)  ---------------------------------------


    POTLOK:  cpu time      0.0076: real time      0.0080
    SETDIJ:  cpu time      0.1394: real time      0.1398
     EDDAV:  cpu time      0.2706: real time      0.2737
       DOS:  cpu time      0.0017: real time      0.0017
    --------------------------------------------
      LOOP:  cpu time      0.4193: real time      0.4232

 eigenvalue-minimisations  :  2560
 total energy-change (2. order) : 0.1332601E+03  (-0.1251831E+04)
 number of electron      40.0000000 magnetization 
 augmentation part       40.0000000 magnetization 

 Free energy of the ion-electron system (eV)
  ---------------------------------------------------
  alpha Z        PSCENC =        73.45693413
  Ewald energy   TEWEN  =     -1339.99218017
  -Hartree energ DENC   =      -149.60134073
  -exchange      EXHF   =         0.00000000
  -V(xc)+E(xc)   XCENC  =       -35.84532542
  PAW double counting   =      1193.78262552    -1080.73714043
  entropy T*S    EENTRO =        -0.00334944
  eigenvalues    EBANDS =        23.71530297
  atomic energy  EATOM  =      1448.48460880
  Solvation  Ediel_sol  =         0.00000000
  ---------------------------------------------------
  free energy    TOTEN  =       133.26013521 eV

  energy without entropy =      133.26348465  energy(sigma->0) =      133.26180993


--------------------------------------------------------------------------------------------------------




--------------------------------------- Iteration      1(   2)  ---------------------------------------


     EDDAV:  cpu time      0.3468: real time      0.3501
       DOS:  cpu time      0.0005: real time      0.0005
    --------------------------------------------
      LOOP:  cpu time      0.3474: real time      0.3506

 eigenvalue-minimisations  :  3760
 total energy-change (2. order) :-0.1566445E+03  (-0.1517026E+03)
 number of electron      40.0000000 magnetization 
 augmentation part       40.0000000 magnetization 

 Free energy of the ion-electron system (eV)
  ---------------------------------------------------
  alpha Z        PSCENC =        73.45693413
  Ewald energy   TEWEN  =     -1339.99218017
  -Hartree energ DENC   =      -149.60134073
  -exchange      EXHF   =         0.00000000
  -V(xc)+E(xc)   XCENC  =       -35.84532542
  PAW double counting   =      1193.78262552    -1080.73714043
  entropy T*S    EENTRO =        -0.00000000
  eigenvalues    EBANDS =      -132.93250073
  atomic energy  EATOM  =      1448.48460880
  Solvation  Ediel_sol  =         0.00000000
  ---------------------------------------------------
  free energy    TOTEN  =       -23.38431905 eV

  energy without entropy =      -23.38431905  energy(sigma->0) =      -23.38431905


--------------------------------------------------------------------------------------------------------




--------------------------------------- Iteration      1(   3)  ---------------------------------------


     EDDAV:  cpu time      0.3090: real time      0.3122
       DOS:  cpu time      0.0005: real time      0.0005
    --------------------------------------------
      LOOP:  cpu time      0.3096: real time      0.3127

 eigenvalue-minimisations  :  3072
 total energy-change (2. order) :-0.9617072E+01  (-0.9593492E+01)
 number of electron      40.0000000 magnetization 
 augmentation part       40.0000000 magnetization 

 Free energy of the ion-electron system (eV)
  ---------------------------------------------------
  alpha Z        PSCENC =        73.45693413
  Ewald energy   TEWEN  =     -1339.99218017
  -Hartree energ DENC   =      -149.60134073
  -exchange      EXHF   =         0.00000000
  -V(xc)+E(xc)   XCENC  =       -35.84532542
  PAW double counting   =      1193.78262552    -1080.73714043
  entropy T*S    EENTRO =        -0.00000000
  eigenvalues    EBANDS =      -142.54957281
  atomic energy  EATOM  =      1448.48460880
  Solvation  Ediel_sol  =         0.00000000
  ---------------------------------------------------
  free energy    TOTEN  =       -33.00139113 eV

  energy without entropy =      -33.00139113  energy(sigma->0) =      -33.00139113


--------------------------------------------------------------------------------------------------------




--------------------------------------- Iteration      1(   4)  ---------------------------------------


     EDDAV:  cpu time      0.3174: real time      0.3209
       DOS:  cpu time      0.0005: real time      0.0005
    --------------------------------------------
      LOOP:  cpu time      0.3179: real time      0.3215

 eigenvalue-minimisations  :  3248
 total energy-change (2. order) :-0.7290534E-01  (-0.7289189E-01)
 number of electron      40.0000000 magnetization 
 augmentation part       40.0000000 magnetization 

 Free energy of the ion-electron system (eV)
  ---------------------------------------------------
  alpha Z        PSCENC =        73.45693413
  Ewald energy   TEWEN  =     -1339.99218017
  -Hartree energ DENC   =      -149.60134073
  -exchange      EXHF   =         0.00000000
  -V(xc)+E(xc)   XCENC  =       -35.84532542
  PAW double counting   =      1193.78262552    -1080.73714043
  entropy T*S    EENTRO =        -0.00000000
  eigenvalues    EBANDS =      -142.62247816
  atomic energy  EATOM  =      1448.48460880
  Solvation  Ediel_sol  =         0.00000000
  ---------------------------------------------------
  free energy    TOTEN  =       -33.07429647 eV

  energy without entropy =      -33.07429647  energy(sigma->0) =      -33.07429647


--------------------------------------------------------------------------------------------------------




--------------------------------------- Iteration      1(   5)  ---------------------------------------


     EDDAV:  cpu time      0.3020: real time      0.3050
       DOS:  cpu time      0.0006: real time      0.0006
    CHARGE:  cpu time      0.0051: real time      0.0051
    MIXING:  cpu time      0.0007: real time      0.0007
    --------------------------------------------
      LOOP:  cpu time      0.3084: real time      0.3115

 eigenvalue-minimisations  :  3056
 total energy-change (2. order) :-0.4836814E-03  (-0.4836534E-03)
 number of electron      39.9999963 magnetization 
 augmentation part       -7.4341059 magnetization 

 Broyden mixing:
  rms(total) = 0.62377E+00    rms(broyden)= 0.62376E+00
  rms(prec ) = 0.80533E+00
  weight for this iteration     100.00

 Free energy of the ion-electron system (eV)
  ---------------------------------------------------
  alpha Z        PSCENC =        73.45693413
  Ewald energy   TEWEN  =     -1339.99218017
  -Hartree energ DENC   =      -149.60134073
  -exchange      EXHF   =         0.00000000
  -V(xc)+E(xc)   XCENC  =       -35.84532542
  PAW double counting   =      1193.78262552    -1080.73714043
  entropy T*S    EENTRO =        -0.00000000
  eigenvalues    EBANDS =      -142.62296184
  atomic energy  EATOM  =      1448.48460880
  Solvation  Ediel_sol  =         0.00000000
  ---------------------------------------------------
  free energy    TOTEN  =       -33.07478016 eV

  energy without entropy =      -33.07478016  energy(sigma->0) =      -33.07478016


--------------------------------------------------------------------------------------------------------




--------------------------------------- Iteration      1(   6)  ---------------------------------------


    POTLOK:  cpu time      0.0061: real time      0.0063
    SETDIJ:  cpu time      0.1377: real time      0.1383
     EDDAV:  cpu time      0.3212: real time      0.3242
       DOS:  cpu time      0.0006: real time      0.0006
    CHARGE:  cpu time      0.0051: real time      0.0051
    MIXING:  cpu time      0.0006: real time      0.0006
    --------------------------------------------
      LOOP:  cpu time      0.4712: real time      0.4751

 eigenvalue-minimisations  :  2960
 total energy-change (2. order) : 0.9989929E+00  (-0.2065174E+00)
 number of electron      39.9999963 magnetization 
 augmentation part       -7.3447166 magnetization 

 Broyden mixing:
  rms(total) = 0.37142E+00    rms(broyden)= 0.37142E+00
  rms(prec ) = 0.39872E+00
  weight for this iteration     100.00

 eigenvalues of (default mixing * dielectric matrix)
  average eigenvalue GAMMA=   1.5682
  1.5682

 Free energy of the ion-electron system (eV)
  ---------------------------------------------------
  alpha Z        PSCENC =        73.45693413
  Ewald energy   TEWEN  =     -1339.99218017
  -Hartree energ DENC   =      -158.37817324
  -exchange      EXHF   =         0.00000000
  -V(xc)+E(xc)   XCENC  =       -35.14192974
  PAW double counting   =      1393.60116653    -1280.81892866
  entropy T*S    EENTRO =        -0.00000000
  eigenvalues    EBANDS =      -133.28728491
  atomic energy  EATOM  =      1448.48460880
  Solvation  Ediel_sol  =         0.00000000
  ---------------------------------------------------
  free energy    TOTEN  =       -32.07578727 eV

  energy without entropy =      -32.07578727  energy(sigma->0) =      -32.07578727


--------------------------------------------------------------------------------------------------------




--------------------------------------- Iteration      1(   7)  ---------------------------------------


    POTLOK:  cpu time      0.0059: real time      0.0061
    SETDIJ:  cpu time      0.1379: real time      0.1385
     EDDAV:  cpu time      0.2919: real time      0.2950
       DOS:  cpu time      0.0006: real time      0.0007
    CHARGE:  cpu time      0.0049: real time      0.0049
    MIXING:  cpu time      0.0006: real time      0.0006
    --------------------------------------------
      LOOP:  cpu time      0.4418: real time      0.4458

 eigenvalue-minimisations  :  2944
 total energy-change (2. order) : 0.5622375E-02  (-0.4229251E-01)
 number of electron      39.9999963 magnetization 
 augmentation part       -7.3447343 magnetization 

 Broyden mixing:
  rms(total) = 0.17798E+00    rms(broyden)= 0.17798E+00
  rms(prec ) = 0.19013E+00
  weight for this iteration     100.00

 eigenvalues of (default mixing * dielectric matrix)
  average eigenvalue GAMMA=   1.6943
  1.1846  2.2040

 Free energy of the ion-electron system (eV)
  ---------------------------------------------------
  alpha Z        PSCENC =        73.45693413
  Ewald energy   TEWEN  =     -1339.99218017
  -Hartree energ DENC   =      -159.79857639
  -exchange      EXHF   =         0.00000000
  -V(xc)+E(xc)   XCENC  =       -34.90023527
  PAW double counting   =      1567.68851631    -1454.97502689
  entropy T*S    EENTRO =        -0.00000000
  eigenvalues    EBANDS =      -132.03420541
  atomic energy  EATOM  =      1448.48460880
  Solvation  Ediel_sol  =         0.00000000
  ---------------------------------------------------
  free energy    TOTEN  =       -32.07016490 eV

  energy without entropy =      -32.07016490  energy(sigma->0) =      -32.07016490


--------------------------------------------------------------------------------------------------------




--------------------------------------- Iteration      1(   8)  ---------------------------------------


    POTLOK:  cpu time      0.0058: real time      0.0060
    SETDIJ:  cpu time      0.1376: real time      0.1382
     EDDAV:  cpu time      0.2946: real time      0.2975
       DOS:  cpu time      0.0006: real time      0.0006
    CHARGE:  cpu time      0.0048: real time      0.0048
    MIXING:  cpu time      0.0006: real time      0.0006
    --------------------------------------------
      LOOP:  cpu time      0.4440: real time      0.4476

 eigenvalue-minimisations  :  2960
 total energy-change (2. order) : 0.1025571E-02  (-0.3924934E-02)
 number of electron      39.9999963 magnetization 
 augmentation part       -7.3653949 magnetization 

 Broyden mixing:
  rms(total) = 0.23987E-01    rms(broyden)= 0.23987E-01
  rms(prec ) = 0.33311E-01
  weight for this iteration     100.00

 eigenvalues of (default mixing * dielectric matrix)
  average eigenvalue GAMMA=   1.5551
  2.4162  1.1245  1.1245

 Free energy of the ion-electron system (eV)
  ---------------------------------------------------
  alpha Z        PSCENC =        73.45693413
  Ewald energy   TEWEN  =     -1339.99218017
  -Hartree energ DENC   =      -159.11211479
  -exchange      EXHF   =         0.00000000
  -V(xc)+E(xc)   XCENC  =       -34.81286490
  PAW double counting   =      1708.57274668    -1595.87172105
  entropy T*S    EENTRO =        -0.00000000
  eigenvalues    EBANDS =      -132.79454801
  atomic energy  EATOM  =      1448.48460880
  Solvation  Ediel_sol  =         0.00000000
  ---------------------------------------------------
  free energy    TOTEN  =       -32.06913933 eV

  energy without entropy =      -32.06913933  energy(sigma->0) =      -32.06913933


--------------------------------------------------------------------------------------------------------




--------------------------------------- Iteration      1(   9)  ---------------------------------------


    POTLOK:  cpu time      0.0060: real time      0.0062
    SETDIJ:  cpu time      0.1374: real time      0.1380
     EDDAV:  cpu time      0.3216: real time      0.3250
       DOS:  cpu time      0.0005: real time      0.0005
    CHARGE:  cpu time      0.0046: real time      0.0046
    MIXING:  cpu time      0.0005: real time      0.0005
    --------------------------------------------
      LOOP:  cpu time      0.4706: real time      0.4748

 eigenvalue-minimisations  :  3232
 total energy-change (2. order) : 0.5867437E-03  (-0.7587304E-03)
 number of electron      39.9999963 magnetization 
 augmentation part       -7.3633667 magnetization 

 Broyden mixing:
  rms(total) = 0.98143E-02    rms(broyden)= 0.98143E-02
  rms(prec ) = 0.11040E-01
  weight for this iteration     100.00

 eigenvalues of (default mixing * dielectric matrix)
  average eigenvalue GAMMA=   1.7473
  2.3787  2.3787  1.1160  1.1160

 Free energy of the ion-electron system (eV)
  ---------------------------------------------------
  alpha Z        PSCENC =        73.45693413
  Ewald energy   TEWEN  =     -1339.99218017
  -Hartree energ DENC   =      -159.67368406
  -exchange      EXHF   =         0.00000000
  -V(xc)+E(xc)   XCENC  =       -34.76223190
  PAW double counting   =      1723.78076482    -1611.09101751
  entropy T*S    EENTRO =        -0.00000000
  eigenvalues    EBANDS =      -132.27174669
  atomic energy  EATOM  =      1448.48460880
  Solvation  Ediel_sol  =         0.00000000
  ---------------------------------------------------
  free energy    TOTEN  =       -32.06855258 eV

  energy without entropy =      -32.06855258  energy(sigma->0) =      -32.06855258


--------------------------------------------------------------------------------------------------------




--------------------------------------- Iteration      1(  10)  ---------------------------------------


    POTLOK:  cpu time      0.0044: real time      0.0045
    SETDIJ:  cpu time      0.1389: real time      0.1392
     EDDAV:  cpu time      0.1996: real time      0.2005
       DOS:  cpu time      0.0004: real time      0.0004
    CHARGE:  cpu time      0.0040: real time      0.0040
    MIXING:  cpu time      0.0003: real time      0.0003
    --------------------------------------------
      LOOP:  cpu time      0.3475: real time      0.3489

 eigenvalue-minimisations  :  2944
 total energy-change (2. order) :-0.2387856E-03  (-0.8847546E-04)
 number of electron      39.9999963 magnetization 
 augmentation part       -7.3643482 magnetization 

 Broyden mixing:
  rms(total) = 0.34588E-02    rms(broyden)= 0.34588E-02
  rms(prec ) = 0.41070E-02
  weight for this iteration     100.00

 eigenvalues of (default mixing * dielectric matrix)
  average eigenvalue GAMMA=   1.7235
  3.0002  2.5375  1.1018  1.1018  0.8760

 Free energy of the ion-electron system (eV)
  ---------------------------------------------------
  alpha Z        PSCENC =        73.45693413
  Ewald energy   TEWEN  =     -1339.99218017
  -Hartree energ DENC   =      -159.68577047
  -exchange      EXHF   =         0.00000000
  -V(xc)+E(xc)   XCENC  =       -34.76670779
  PAW double counting   =      1714.96863259    -1602.27282271
  entropy T*S    EENTRO =        -0.00000000
  eigenvalues    EBANDS =      -132.26148575
  atomic energy  EATOM  =      1448.48460880
  Solvation  Ediel_sol  =         0.00000000
  ---------------------------------------------------
  free energy    TOTEN  =       -32.06879137 eV

  energy without entropy =      -32.06879137  energy(sigma->0) =      -32.06879137


--------------------------------------------------------------------------------------------------------




--------------------------------------- Iteration      1(  11)  ---------------------------------------


    POTLOK:  cpu time      0.0040: real time      0.0042
    SETDIJ:  cpu time      0.1298: real time      0.1301
     EDDAV:  cpu time      0.2218: real time      0.2229
       DOS:  cpu time      0.0027: real time      0.0027
    CHARGE:  cpu time      0.0038: real time      0.0038
    MIXING:  cpu time      0.0004: real time      0.0004
    --------------------------------------------
      LOOP:  cpu time      0.3626: real time      0.3641

 eigenvalue-minimisations  :  3408
 total energy-change (2. order) :-0.3590321E-04  (-0.8137306E-05)
 number of electron      39.9999963 magnetization 
 augmentation part       -7.3643576 magnetization 

 Broyden mixing:
  rms(total) = 0.13701E-02    rms(broyden)= 0.13701E-02
  rms(prec ) = 0.16096E-02
  weight for this iteration     100.00

 eigenvalues of (default mixing * dielectric matrix)
  average eigenvalue GAMMA=   1.6302
  2.7003  2.7003  1.1415  1.1415  1.0490  1.0490

 Free energy of the ion-electron system (eV)
  ---------------------------------------------------
  alpha Z        PSCENC =        73.45693413
  Ewald energy   TEWEN  =     -1339.99218017
  -Hartree energ DENC   =      -159.74204628
  -exchange      EXHF   =         0.00000000
  -V(xc)+E(xc)   XCENC  =       -34.76325437
  PAW double counting   =      1713.91423399    -1601.21745904
  entropy T*S    EENTRO =        -0.00000000
  eigenvalues    EBANDS =      -132.20966433
  atomic energy  EATOM  =      1448.48460880
  Solvation  Ediel_sol  =         0.00000000
  ---------------------------------------------------
  free energy    TOTEN  =       -32.06882727 eV

  energy without entropy =      -32.06882727  energy(sigma->0) =      -32.06882727


--------------------------------------------------------------------------------------------------------




--------------------------------------- Iteration      1(  12)  ---------------------------------------


    POTLOK:  cpu time      0.0039: real time      0.0041
    SETDIJ:  cpu time      0.1088: real time      0.1093
     EDDAV:  cpu time      0.1869: real time      0.1877
       DOS:  cpu time      0.0005: real time      0.0005
    CHARGE:  cpu time      0.0038: real time      0.0038
    MIXING:  cpu time      0.0009: real time      0.0009
    --------------------------------------------
      LOOP:  cpu time      0.3048: real time      0.3063

 eigenvalue-minimisations  :  2960
 total energy-change (2. order) : 0.1755584E-05  (-0.8806306E-06)
 number of electron      39.9999963 magnetization 
 augmentation part       -7.3642327 magnetization 

 Broyden mixing:
  rms(total) = 0.75592E-03    rms(broyden)= 0.75592E-03
  rms(prec ) = 0.86691E-03
  weight for this iteration     100.00

 eigenvalues of (default mixing * dielectric matrix)
  average eigenvalue GAMMA=   1.7269
  3.1869  2.5938  2.0634  1.0734  1.0734  1.1873  0.9099

 Free energy of the ion-electron system (eV)
  ---------------------------------------------------
  alpha Z        PSCENC =        73.45693413
  Ewald energy   TEWEN  =     -1339.99218017
  -Hartree energ DENC   =      -159.75169212
  -exchange      EXHF   =         0.00000000
  -V(xc)+E(xc)   XCENC  =       -34.76256913
  PAW double counting   =      1713.97184343    -1601.27534205
  entropy T*S    EENTRO =        -0.00000000
  eigenvalues    EBANDS =      -132.20042840
  atomic energy  EATOM  =      1448.48460880
  Solvation  Ediel_sol  =         0.00000000
  ---------------------------------------------------
  free energy    TOTEN  =       -32.06882552 eV

  energy without entropy =      -32.06882552  energy(sigma->0) =      -32.06882552


--------------------------------------------------------------------------------------------------------




--------------------------------------- Iteration      1(  13)  ---------------------------------------


    POTLOK:  cpu time      0.0054: real time      0.0055
    SETDIJ:  cpu time      0.1096: real time      0.1098
     EDDAV:  cpu time      0.1853: real time      0.1862
       DOS:  cpu time      0.0004: real time      0.0004
    CHARGE:  cpu time      0.0062: real time      0.0063
    MIXING:  cpu time      0.0004: real time      0.0004
    --------------------------------------------
      LOOP:  cpu time      0.3073: real time      0.3085

 eigenvalue-minimisations  :  2832
 total energy-change (2. order) :-0.1083301E-05  (-0.3478707E-06)
 number of electron      39.9999963 magnetization 
 augmentation part       -7.3642719 magnetization 

 Broyden mixing:
  rms(total) = 0.27429E-03    rms(broyden)= 0.27429E-03
  rms(prec ) = 0.28441E-03
  weight for this iteration     100.00

 eigenvalues of (default mixing * dielectric matrix)
  average eigenvalue GAMMA=   1.6100
  3.0076  2.3430  2.3430  1.1403  1.1403  0.9436  0.9813  0.9813

 Free energy of the ion-electron system (eV)
  ---------------------------------------------------
  alpha Z        PSCENC =        73.45693413
  Ewald energy   TEWEN  =     -1339.99218017
  -Hartree energ DENC   =      -159.75519050
  -exchange      EXHF   =         0.00000000
  -V(xc)+E(xc)   XCENC  =       -34.76199618
  PAW double counting   =      1714.10316379    -1601.40648874
  entropy T*S    EENTRO =        -0.00000000
  eigenvalues    EBANDS =      -132.19767772
  atomic energy  EATOM  =      1448.48460880
  Solvation  Ediel_sol  =         0.00000000
  ---------------------------------------------------
  free energy    TOTEN  =       -32.06882660 eV

  energy without entropy =      -32.06882660  energy(sigma->0) =      -32.06882660


--------------------------------------------------------------------------------------------------------




--------------------------------------- Iteration      1(  14)  ---------------------------------------


    POTLOK:  cpu time      0.0038: real time      0.0039
    SETDIJ:  cpu time      0.1104: real time      0.1107
     EDDAV:  cpu time      0.1152: real time      0.1157
       DOS:  cpu time      0.0004: real time      0.0004
    --------------------------------------------
      LOOP:  cpu time      0.2297: real time      0.2307

 eigenvalue-minimisations  :  1392
 total energy-change (2. order) :-0.3359339E-06  (-0.2506676E-07)
 number of electron      39.9999963 magnetization 
 augmentation part       -7.3642719 magnetization 

 Free energy of the ion-electron system (eV)
  ---------------------------------------------------
  alpha Z        PSCENC =        73.45693413
  Ewald energy   TEWEN  =     -1339.99218017
  -Hartree energ DENC   =      -159.75485878
  -exchange      EXHF   =         0.00000000
  -V(xc)+E(xc)   XCENC  =       -34.76182475
  PAW double counting   =      1714.36667744    -1601.67010626
  entropy T*S    EENTRO =        -0.00000000
  eigenvalues    EBANDS =      -132.19807734
  atomic energy  EATOM  =      1448.48460880
  Solvation  Ediel_sol  =         0.00000000
  ---------------------------------------------------
  free energy    TOTEN  =       -32.06882694 eV

  energy without entropy =      -32.06882694  energy(sigma->0) =      -32.06882694


--------------------------------------------------------------------------------------------------------




 average (electrostatic) potential at core
  the test charge radii are     1.1631  1.0808
  (the norm of the test charge is              1.0000)
       1 -35.2627       2 -35.2627       3 -35.2627       4 -35.2627       5 -55.9759
       6 -55.9759       7 -55.9759       8 -55.9759
 
 
 
 E-fermi :   1.5952     XC(G=0):  -8.6003     alpha+bet : -7.3180

 Fermi energy:         1.5952235398

 k-point     1 :       0.0000    0.0000    0.0000
  band No.  band energies     occupation 
      1     -11.3366      2.00000
      2     -11.0728      2.00000
      3     -10.2871      2.00000
      4      -9.9892      2.00000
      5      -6.0305      2.00000
      6      -5.3699      2.00000
      7      -4.6386      2.00000
      8      -4.6327      2.00000
      9      -2.1363      2.00000
     10      -1.1999      2.00000
     11      -1.1946      2.00000
     12      -0.7836      2.00000
     13      -0.7655      2.00000
     14       0.3357      2.00000
     15       0.3516      2.00000
     16       0.3634      2.00000
     17       0.7376      2.00000
     18       0.7822      2.00000
     19       1.0249      2.00000
     20       1.1019      2.00000
     21       3.6047      0.00000
     22       4.1584      0.00000
     23       4.4198      0.00000
     24       4.4450      0.00000
     25       4.6598      0.00000
     26       5.5382      0.00000
     27       5.5388      0.00000
     28       6.0601      0.00000
     29       6.0897      0.00000
     30       6.1291      0.00000
     31       6.1297      0.00000
     32       6.3268      0.00000

 k-point     2 :       0.1667    0.0000    0.0000
  band No.  band energies     occupation 
      1     -11.2422      2.00000
      2     -10.9844      2.00000
      3     -10.3086      2.00000
      4     -10.0301      2.00000
      5      -6.1174      2.00000
      6      -5.4297      2.00000
      7      -4.8996      2.00000
      8      -4.7653      2.00000
      9      -2.0563      2.00000
     10      -1.0993      2.00000
     11      -1.0336      2.00000
     12      -0.6622      2.00000
     13      -0.6003      2.00000
     14       0.2985      2.00000
     15       0.4258      2.00000
     16       0.6408      2.00000
     17       0.6925      2.00000
     18       0.7611      2.00000
     19       1.1274      2.00000
     20       1.1514      2.00000
     21       3.5962      0.00000
     22       3.6433      0.00000
     23       3.6707      0.00000
     24       3.6902      0.00000
     25       4.1558      0.00000
     26       4.9084      0.00000
     27       4.9533      0.00000
     28       5.5204      0.00000
     29       5.6307      0.00000
     30       6.3204      0.00000
     31       6.6386      0.00000
     32       6.6924      0.00000

 k-point     3 :       0.0000    0.1667    0.0000
  band No.  band energies     occupation 
      1     -11.2368      2.00000
      2     -10.9906      2.00000
      3     -10.2910      2.00000
      4     -10.0514      2.00000
      5      -6.0930      2.00000
      6      -5.4514      2.00000
      7      -4.9059      2.00000
      8      -4.7573      2.00000
      9      -2.0477      2.00000
     10      -1.0940      2.00000
     11      -1.0254      2.00000
     12      -0.6506      2.00000
     13      -0.6230      2.00000
     14       0.2194      2.00000
     15       0.4710      2.00000
     16       0.6557      2.00000
     17       0.7394      2.00000
     18       0.7907      2.00000
     19       1.0404      2.00000
     20       1.1574      2.00000
     21       3.3825      0.00000
     22       3.6703      0.00000
     23       3.8981      0.00000
     24       3.9154      0.00000
     25       3.9203      0.00000
     26       4.8407      0.00000
     27       4.9574      0.00000
     28       5.5975      0.00000
     29       5.6335      0.00000
     30       6.3475      0.00000
     31       6.6103      0.00000
     32       6.6959      0.00000

 k-point     4 :       0.3333    0.0000    0.0000
  band No.  band energies     occupation 
      1     -10.9887      2.00000
      2     -10.7463      2.00000
      3     -10.4188      2.00000
      4     -10.1761      2.00000
      5      -6.1973      2.00000
      6      -5.4907      2.00000
      7      -5.4815      2.00000
      8      -5.0723      2.00000
      9      -1.7527      2.00000
     10      -0.9940      2.00000
     11      -0.5601      2.00000
     12      -0.2601      2.00000
     13      -0.1278      2.00000
     14       0.2878      2.00000
     15       0.5073      2.00000
     16       0.5357      2.00000
     17       0.6790      2.00000
     18       1.0843      2.00000
     19       1.1513      2.00000
     20       1.2963      2.00000
     21       2.5895      0.00000
     22       2.7966      0.00000
     23       2.8222      0.00000
     24       3.5404      0.00000
     25       3.6026      0.00000
     26       3.8424      0.00000
     27       3.8478      0.00000
     28       4.6335      0.00000
     29       4.7912      0.00000
     30       5.7726      0.00000
     31       7.1465      0.00000
     32       7.5849      0.00000

 k-point     5 :       0.0000    0.3333    0.0000
  band No.  band energies     occupation 
      1     -10.9629      2.00000
      2     -10.7756      2.00000
      3     -10.3471      2.00000
      4     -10.2567      2.00000
      5      -6.1464      2.00000
      6      -5.5320      2.00000
      7      -5.4714      2.00000
      8      -5.0737      2.00000
      9      -1.7560      2.00000
     10      -0.9934      2.00000
     11      -0.5376      2.00000
     12      -0.2492      2.00000
     13      -0.1724      2.00000
     14       0.3287      2.00000
     15       0.5307      2.00000
     16       0.6487      2.00000
     17       0.7055      2.00000
     18       0.8421      2.00000
     19       1.1854      2.00000
     20       1.2827      2.00000
     21       2.4482      0.00000
     22       2.8473      0.00000
     23       3.0648      0.00000
     24       3.3939      0.00000
     25       3.6066      0.00000
     26       3.7185      0.00000
     27       3.8721      0.00000
     28       4.6269      0.00000
     29       4.9371      0.00000
     30       5.8425      0.00000
     31       7.0917      0.00000
     32       7.3485      0.00000

 k-point     6 :       0.5000    0.0000    0.0000
  band No.  band energies     occupation 
      1     -10.6692      2.00000
      2     -10.6692      2.00000
      3     -10.4391      2.00000
      4     -10.4391      2.00000
      5      -5.9940      2.00000
      6      -5.9940      2.00000
      7      -5.3718      2.00000
      8      -5.3718      2.00000
      9      -1.2889      2.00000
     10      -1.2889      2.00000
     11       0.0948      2.00000
     12       0.0948      2.00000
     13       0.2810      2.00000
     14       0.2810      2.00000
     15       0.5465      2.00000
     16       0.5465      2.00000
     17       0.6728      2.00000
     18       0.6728      2.00000
     19       0.9588      2.00000
     20       0.9588      2.00000
     21       2.8717      0.00000
     22       2.8717      0.00000
     23       2.9473      0.00000
     24       2.9473      0.00000
     25       2.9819      0.00000
     26       2.9819      0.00000
     27       3.7716      0.00000
     28       3.7716      0.00000
     29       5.0342      0.00000
     30       5.0342      0.00000
     31       7.4774      0.00000
     32       7.4774      0.00000

 k-point     7 :       0.0000    0.5000    0.0000
  band No.  band energies     occupation 
      1     -10.5946      2.00000
      2     -10.5946      2.00000
      3     -10.5214      2.00000
      4     -10.5214      2.00000
      5      -5.9553      2.00000
      6      -5.9553      2.00000
      7      -5.3981      2.00000
      8      -5.3981      2.00000
      9      -1.3063      2.00000
     10      -1.3063      2.00000
     11       0.1808      2.00000
     12       0.1808      2.00000
     13       0.3743      2.00000
     14       0.3743      2.00000
     15       0.4089      2.00000
     16       0.4089      2.00000
     17       0.6760      2.00000
     18       0.6760      2.00000
     19       0.9352      2.00000
     20       0.9352      2.00000
     21       2.8221      0.00000
     22       2.8221      0.00000
     23       2.8974      0.00000
     24       2.8974      0.00000
     25       3.0370      0.00000
     26       3.0370      0.00000
     27       3.7295      0.00000
     28       3.7295      0.00000
     29       5.1712      0.00000
     30       5.1712      0.00000
     31       7.3415      0.00000
     32       7.3415      0.00000

 k-point     8 :       0.1667    0.1667    0.0000
  band No.  band energies     occupation 
      1     -11.1488      2.00000
      2     -10.9097      2.00000
      3     -10.3098      2.00000
      4     -10.0836      2.00000
      5      -6.1184      2.00000
      6      -5.4521      2.00000
      7      -4.9643      2.00000
      8      -4.9590      2.00000
      9      -1.9559      2.00000
     10      -1.4574      2.00000
     11      -1.4520      2.00000
     12      -0.0858      2.00000
     13      -0.0466      2.00000
     14       0.2733      2.00000
     15       0.3757      2.00000
     16       0.3955      2.00000
     17       0.6983      2.00000
     18       0.7056      2.00000
     19       0.9324      2.00000
     20       1.1747      2.00000
     21       3.0459      0.00000
     22       3.1403      0.00000
     23       3.5738      0.00000
     24       3.6461      0.00000
     25       4.3263      0.00000
     26       4.5693      0.00000
     27       4.6530      0.00000
     28       5.5863      0.00000
     29       6.0660      0.00000
     30       6.5030      0.00000
     31       6.5346      0.00000
     32       7.3025      0.00000

 k-point     9 :      -0.1667    0.1667    0.0000
  band No.  band energies     occupation 
      1     -11.1488      2.00000
      2     -10.9097      2.00000
      3     -10.3098      2.00000
      4     -10.0836      2.00000
      5      -6.1184      2.00000
      6      -5.4521      2.00000
      7      -4.9643      2.00000
      8      -4.9590      2.00000
      9      -1.9559      2.00000
     10      -1.4574      2.00000
     11      -1.4520      2.00000
     12      -0.0858      2.00000
     13      -0.0466      2.00000
     14       0.2733      2.00000
     15       0.3757      2.00000
     16       0.3955      2.00000
     17       0.6983      2.00000
     18       0.7056      2.00000
     19       0.9324      2.00000
     20       1.1747      2.00000
     21       3.0459      0.00000
     22       3.1403      0.00000
     23       3.5738      0.00000
     24       3.6461      0.00000
     25       4.3263      0.00000
     26       4.5693      0.00000
     27       4.6530      0.00000
     28       5.5863      0.00000
     29       6.0660      0.00000
     30       6.5030      0.00000
     31       6.5346      0.00000
     32       7.3025      0.00000

 k-point    10 :       0.3333    0.1667    0.0000
  band No.  band energies     occupation 
      1     -10.9151      2.00000
      2     -10.6943      2.00000
      3     -10.4059      2.00000
      4     -10.2020      2.00000
      5      -6.1069      2.00000
      6      -5.4320      2.00000
      7      -5.4315      2.00000
      8      -5.1296      2.00000
      9      -1.6883      2.00000
     10      -1.5624      2.00000
     11      -1.5091      2.00000
     12      -0.1090      2.00000
     13      -0.0550      2.00000
     14       0.1364      2.00000
     15       0.2766      2.00000
     16       0.3358      2.00000
     17       0.5758      2.00000
     18       0.6518      2.00000
     19       0.9420      2.00000
     20       1.1217      2.00000
     21       2.7154      0.00000
     22       2.9744      0.00000
     23       3.5069      0.00000
     24       3.5204      0.00000
     25       3.8434      0.00000
     26       4.2172      0.00000
     27       4.5157      0.00000
     28       5.2401      0.00000
     29       5.7663      0.00000
     30       5.9386      0.00000
     31       6.9088      0.00000
     32       7.5146      0.00000

 k-point    11 :      -0.1667    0.3333    0.0000
  band No.  band energies     occupation 
      1     -10.8949      2.00000
      2     -10.7170      2.00000
      3     -10.3522      2.00000
      4     -10.2614      2.00000
      5      -6.0712      2.00000
      6      -5.4610      2.00000
      7      -5.4204      2.00000
      8      -5.1347      2.00000
      9      -1.6925      2.00000
     10      -1.5613      2.00000
     11      -1.5080      2.00000
     12      -0.1281      2.00000
     13      -0.1003      2.00000
     14       0.1761      2.00000
     15       0.3100      2.00000
     16       0.4149      2.00000
     17       0.5290      2.00000
     18       0.6828      2.00000
     19       0.9914      2.00000
     20       0.9996      2.00000
     21       2.7231      0.00000
     22       2.9396      0.00000
     23       3.4176      0.00000
     24       3.4666      0.00000
     25       4.0841      0.00000
     26       4.0979      0.00000
     27       4.5929      0.00000
     28       5.2199      0.00000
     29       5.7815      0.00000
     30       6.0031      0.00000
     31       6.8497      0.00000
     32       7.3222      0.00000

 k-point    12 :      -0.3333    0.1667    0.0000
  band No.  band energies     occupation 
      1     -10.9151      2.00000
      2     -10.6943      2.00000
      3     -10.4059      2.00000
      4     -10.2020      2.00000
      5      -6.1069      2.00000
      6      -5.4320      2.00000
      7      -5.4315      2.00000
      8      -5.1296      2.00000
      9      -1.6883      2.00000
     10      -1.5624      2.00000
     11      -1.5091      2.00000
     12      -0.1090      2.00000
     13      -0.0550      2.00000
     14       0.1364      2.00000
     15       0.2766      2.00000
     16       0.3358      2.00000
     17       0.5758      2.00000
     18       0.6518      2.00000
     19       0.9420      2.00000
     20       1.1217      2.00000
     21       2.7154      0.00000
     22       2.9744      0.00000
     23       3.5069      0.00000
     24       3.5204      0.00000
     25       3.8434      0.00000
     26       4.2172      0.00000
     27       4.5157      0.00000
     28       5.2401      0.00000
     29       5.7663      0.00000
     30       5.9386      0.00000
     31       6.9088      0.00000
     32       7.5146      0.00000

 k-point    13 :       0.1667    0.3333    0.0000
  band No.  band energies     occupation 
      1     -10.8949      2.00000
      2     -10.7170      2.00000
      3     -10.3522      2.00000
      4     -10.2614      2.00000
      5      -6.0712      2.00000
      6      -5.4610      2.00000
      7      -5.4204      2.00000
      8      -5.1347      2.00000
      9      -1.6925      2.00000
     10      -1.5613      2.00000
     11      -1.5080      2.00000
     12      -0.1281      2.00000
     13      -0.1003      2.00000
     14       0.1761      2.00000
     15       0.3100      2.00000
     16       0.4149      2.00000
     17       0.5290      2.00000
     18       0.6828      2.00000
     19       0.9914      2.00000
     20       0.9996      2.00000
     21       2.7231      0.00000
     22       2.9396      0.00000
     23       3.4176      0.00000
     24       3.4666      0.00000
     25       4.0841      0.00000
     26       4.0979      0.00000
     27       4.5929      0.00000
     28       5.2199      0.00000
     29       5.7815      0.00000
     30       6.0031      0.00000
     31       6.8497      0.00000
     32       7.3222      0.00000

 k-point    14 :       0.5000    0.1667    0.0000
  band No.  band energies     occupation 
      1     -10.6265      2.00000
      2     -10.6265      2.00000
      3     -10.4242      2.00000
      4     -10.4242      2.00000
      5      -5.8849      2.00000
      6      -5.8849      2.00000
      7      -5.3231      2.00000
      8      -5.3231      2.00000
      9      -1.4545      2.00000
     10      -1.4545      2.00000
     11      -1.0093      2.00000
     12      -1.0093      2.00000
     13      -0.2283      2.00000
     14      -0.2283      2.00000
     15       0.2055      2.00000
     16       0.2055      2.00000
     17       0.8575      2.00000
     18       0.8575      2.00000
     19       1.0999      2.00000
     20       1.0999      2.00000
     21       2.9292      0.00000
     22       2.9292      0.00000
     23       3.0343      0.00000
     24       3.0343      0.00000
     25       4.3886      0.00000
     26       4.3886      0.00000
     27       4.7510      0.00000
     28       4.7510      0.00000
     29       5.2288      0.00000
     30       5.2288      0.00000
     31       7.3007      0.00000
     32       7.3007      0.00000

 k-point    15 :      -0.1667    0.5000    0.0000
  band No.  band energies     occupation 
      1     -10.5603      2.00000
      2     -10.5603      2.00000
      3     -10.4963      2.00000
      4     -10.4963      2.00000
      5      -5.8497      2.00000
      6      -5.8497      2.00000
      7      -5.3485      2.00000
      8      -5.3485      2.00000
      9      -1.4630      2.00000
     10      -1.4630      2.00000
     11      -1.0173      2.00000
     12      -1.0173      2.00000
     13      -0.2748      2.00000
     14      -0.2748      2.00000
     15       0.4332      2.00000
     16       0.4332      2.00000
     17       0.7121      2.00000
     18       0.7121      2.00000
     19       1.0685      2.00000
     20       1.0685      2.00000
     21       2.8532      0.00000
     22       2.8532      0.00000
     23       3.0995      0.00000
     24       3.0995      0.00000
     25       4.3561      0.00000
     26       4.3561      0.00000
     27       4.7487      0.00000
     28       4.7487      0.00000
     29       5.3416      0.00000
     30       5.3416      0.00000
     31       7.1679      0.00000
     32       7.1679      0.00000

 k-point    16 :       0.3333    0.3333    0.0000
  band No.  band energies     occupation 
      1     -10.7219      2.00000
      2     -10.5693      2.00000
      3     -10.3967      2.00000
      4     -10.2988      2.00000
      5      -5.8736      2.00000
      6      -5.3273      2.00000
      7      -5.3151      2.00000
      8      -5.3107      2.00000
      9      -2.0960      2.00000
     10      -2.0934      2.00000
     11      -1.6995      2.00000
     12      -1.2423      2.00000
     13      -0.3482      2.00000
     14      -0.1066      2.00000
     15      -0.0944      2.00000
     16      -0.0940      2.00000
     17       0.0967      2.00000
     18       0.4383      2.00000
     19       0.6731      2.00000
     20       0.9628      2.00000
     21       3.2082      0.00000
     22       3.2740      0.00000
     23       4.6007      0.00000
     24       4.7541      0.00000
     25       4.8730      0.00000
     26       4.8749      0.00000
     27       4.9658      0.00000
     28       6.0030      0.00000
     29       6.3076      0.00000
     30       6.3290      0.00000
     31       6.3814      0.00000
     32       7.1987      0.00000

 k-point    17 :      -0.3333    0.3333    0.0000
  band No.  band energies     occupation 
      1     -10.7219      2.00000
      2     -10.5693      2.00000
      3     -10.3967      2.00000
      4     -10.2988      2.00000
      5      -5.8736      2.00000
      6      -5.3273      2.00000
      7      -5.3151      2.00000
      8      -5.3107      2.00000
      9      -2.0960      2.00000
     10      -2.0934      2.00000
     11      -1.6995      2.00000
     12      -1.2423      2.00000
     13      -0.3482      2.00000
     14      -0.1066      2.00000
[...]
     32       6.0077      0.00000

 k-point    32 :      -0.3333    0.1667    0.5000
  band No.  band energies     occupation 
      1     -10.8265      2.00000
      2     -10.8265      2.00000
      3     -10.2826      2.00000
      4     -10.2826      2.00000
      5      -5.8233      2.00000
      6      -5.8233      2.00000
      7      -5.2660      2.00000
      8      -5.2660      2.00000
      9      -1.4332      2.00000
     10      -1.4332      2.00000
     11      -0.8087      2.00000
     12      -0.8087      2.00000
     13      -0.3721      2.00000
     14      -0.3721      2.00000
     15       0.2182      2.00000
     16       0.2182      2.00000
     17       0.7417      2.00000
     18       0.7417      2.00000
     19       1.0973      2.00000
     20       1.0973      2.00000
     21       3.0591      0.00000
     22       3.0591      0.00000
     23       3.5411      0.00000
     24       3.5411      0.00000
     25       4.0519      0.00000
     26       4.0519      0.00000
     27       5.4132      0.00000
     28       5.4132      0.00000
     29       5.5059      0.00000
     30       5.5059      0.00000
     31       6.2830      0.00000
     32       6.2830      0.00000

 k-point    33 :       0.1667    0.3333    0.5000
  band No.  band energies     occupation 
      1     -10.8172      2.00000
      2     -10.8172      2.00000
      3     -10.2957      2.00000
      4     -10.2957      2.00000
      5      -5.7993      2.00000
      6      -5.7993      2.00000
      7      -5.2846      2.00000
      8      -5.2846      2.00000
      9      -1.4313      2.00000
     10      -1.4313      2.00000
     11      -0.8185      2.00000
     12      -0.8185      2.00000
     13      -0.3167      2.00000
     14      -0.3167      2.00000
     15       0.1212      2.00000
     16       0.1212      2.00000
     17       0.8275      2.00000
     18       0.8275      2.00000
     19       1.0674      2.00000
     20       1.0674      2.00000
     21       3.0542      0.00000
     22       3.0542      0.00000
     23       3.4963      0.00000
     24       3.4963      0.00000
     25       4.0435      0.00000
     26       4.0435      0.00000
     27       5.5023      0.00000
     28       5.5023      0.00000
     29       5.6995      0.00000
     30       5.6995      0.00000
     31       6.0077      0.00000
     32       6.0077      0.00000

 k-point    34 :       0.5000    0.1667    0.5000
  band No.  band energies     occupation 
      1     -10.6220      2.00000
      2     -10.6220      2.00000
      3     -10.4298      2.00000
      4     -10.4298      2.00000
      5      -5.7622      2.00000
      6      -5.7622      2.00000
      7      -5.4818      2.00000
      8      -5.4818      2.00000
      9      -1.0791      2.00000
     10      -1.0791      2.00000
     11      -0.9118      2.00000
     12      -0.9118      2.00000
     13      -0.5822      2.00000
     14      -0.5822      2.00000
     15      -0.1203      2.00000
     16      -0.1203      2.00000
     17       0.8411      2.00000
     18       0.8411      2.00000
     19       1.2222      2.00000
     20       1.2222      2.00000
     21       3.0536      0.00000
     22       3.0536      0.00000
     23       3.2000      0.00000
     24       3.2000      0.00000
     25       4.5386      0.00000
     26       4.5386      0.00000
     27       4.6711      0.00000
     28       4.6711      0.00000
     29       5.3204      0.00000
     30       5.3204      0.00000
     31       6.3359      0.00000
     32       6.3359      0.00000

 k-point    35 :      -0.1667    0.5000    0.5000
  band No.  band energies     occupation 
      1     -10.5289      2.00000
      2     -10.5289      2.00000
      3     -10.5289      2.00000
      4     -10.5289      2.00000
      5      -5.6184      2.00000
      6      -5.6184      2.00000
      7      -5.6184      2.00000
      8      -5.6184      2.00000
      9      -0.9909      2.00000
     10      -0.9909      2.00000
     11      -0.9909      2.00000
     12      -0.9909      2.00000
     13      -0.3913      2.00000
     14      -0.3913      2.00000
     15      -0.3913      2.00000
     16      -0.3913      2.00000
     17       1.0766      2.00000
     18       1.0766      2.00000
     19       1.0766      2.00000
     20       1.0766      2.00000
     21       3.0859      0.00000
     22       3.0859      0.00000
     23       3.0859      0.00000
     24       3.0859      0.00000
     25       4.6057      0.00000
     26       4.6057      0.00000
     27       4.6057      0.00000
     28       4.6057      0.00000
     29       5.8198      0.00000
     30       5.8198      0.00000
     31       5.8198      0.00000
     32       5.8198      0.00000

 k-point    36 :       0.3333    0.3333    0.5000
  band No.  band energies     occupation 
      1     -10.6589      2.00000
      2     -10.6589      2.00000
      3     -10.3348      2.00000
      4     -10.3348      2.00000
      5      -5.6311      2.00000
      6      -5.6311      2.00000
      7      -5.3092      2.00000
      8      -5.3092      2.00000
      9      -1.9922      2.00000
     10      -1.9922      2.00000
     11      -1.2174      2.00000
     12      -1.2174      2.00000
     13      -0.7065      2.00000
     14      -0.7065      2.00000
     15      -0.4902      2.00000
     16      -0.4902      2.00000
     17       0.5895      2.00000
     18       0.5895      2.00000
     19       1.0986      2.00000
     20       1.0986      2.00000
     21       3.3752      0.00000
     22       3.3752      0.00000
     23       4.7889      0.00000
     24       4.7889      0.00000
     25       4.8153      0.00000
     26       4.8153      0.00000
     27       5.4203      0.00000
     28       5.4203      0.00000
     29       5.8792      0.00000
     30       5.8792      0.00000
     31       6.2190      0.00000
     32       6.2190      0.00000

 k-point    37 :      -0.3333    0.3333    0.5000
  band No.  band energies     occupation 
      1     -10.6589      2.00000
      2     -10.6589      2.00000
      3     -10.3348      2.00000
      4     -10.3348      2.00000
      5      -5.6311      2.00000
      6      -5.6311      2.00000
      7      -5.3092      2.00000
      8      -5.3092      2.00000
      9      -1.9922      2.00000
     10      -1.9922      2.00000
     11      -1.2174      2.00000
     12      -1.2174      2.00000
     13      -0.7065      2.00000
     14      -0.7065      2.00000
     15      -0.4902      2.00000
     16      -0.4902      2.00000
     17       0.5895      2.00000
     18       0.5895      2.00000
     19       1.0986      2.00000
     20       1.0986      2.00000
     21       3.3752      0.00000
     22       3.3752      0.00000
     23       4.7889      0.00000
     24       4.7889      0.00000
     25       4.8153      0.00000
     26       4.8153      0.00000
     27       5.4203      0.00000
     28       5.4203      0.00000
     29       5.8792      0.00000
     30       5.8792      0.00000
     31       6.2190      0.00000
     32       6.2190      0.00000

 k-point    38 :       0.5000    0.3333    0.5000
  band No.  band energies     occupation 
      1     -10.5237      2.00000
      2     -10.5237      2.00000
      3     -10.4090      2.00000
      4     -10.4090      2.00000
      5      -5.5322      2.00000
      6      -5.5322      2.00000
      7      -5.3395      2.00000
      8      -5.3395      2.00000
      9      -1.9460      2.00000
     10      -1.9460      2.00000
     11      -1.8366      2.00000
     12      -1.8366      2.00000
     13      -0.8443      2.00000
     14      -0.8443      2.00000
     15      -0.5097      2.00000
     16      -0.5097      2.00000
     17       0.4746      2.00000
     18       0.4746      2.00000
     19       0.8876      2.00000
     20       0.8876      2.00000
     21       4.3745      0.00000
     22       4.3745      0.00000
     23       4.4025      0.00000
     24       4.4025      0.00000
     25       5.2434      0.00000
     26       5.2434      0.00000
     27       5.8448      0.00000
     28       5.8448      0.00000
     29       5.8575      0.00000
     30       5.8575      0.00000
     31       5.8999      0.00000
     32       5.8999      0.00000

 k-point    39 :      -0.3333    0.5000    0.5000
  band No.  band energies     occupation 
      1     -10.4674      2.00000
      2     -10.4674      2.00000
      3     -10.4674      2.00000
      4     -10.4674      2.00000
      5      -5.4349      2.00000
      6      -5.4349      2.00000
      7      -5.4349      2.00000
      8      -5.4349      2.00000
      9      -1.8898      2.00000
     10      -1.8898      2.00000
     11      -1.8898      2.00000
     12      -1.8898      2.00000
     13      -0.7036      2.00000
     14      -0.7036      2.00000
     15      -0.7036      2.00000
     16      -0.7036      2.00000
     17       0.7065      2.00000
     18       0.7065      2.00000
     19       0.7065      2.00000
     20       0.7065      2.00000
     21       4.3739      0.00000
     22       4.3739      0.00000
     23       4.3739      0.00000
     24       4.3739      0.00000
     25       5.5213      0.00000
     26       5.5213      0.00000
     27       5.5213      0.00000
     28       5.5213      0.00000
     29       5.9005      0.00000
     30       5.9005      0.00000
     31       5.9005      0.00000
     32       5.9005      0.00000

 k-point    40 :       0.5000    0.5000    0.5000
  band No.  band energies     occupation 
      1     -10.4357      2.00000
      2     -10.4357      2.00000
      3     -10.4357      2.00000
      4     -10.4357      2.00000
      5      -5.3287      2.00000
      6      -5.3287      2.00000
      7      -5.3287      2.00000
      8      -5.3287      2.00000
      9      -2.2444      2.00000
     10      -2.2444      2.00000
     11      -2.2444      2.00000
     12      -2.2444      2.00000
     13      -0.9001      2.00000
     14      -0.9001      2.00000
     15      -0.9001      2.00000
     16      -0.9001      2.00000
     17       0.6138      2.00000
     18       0.6138      2.00000
     19       0.6138      2.00000
     20       0.6138      2.00000
     21       5.0466      0.00000
     22       5.0466      0.00000
     23       5.0466      0.00000
     24       5.0466      0.00000
     25       5.3920      0.00000
     26       5.3920      0.00000
     27       5.3920      0.00000
     28       5.3920      0.00000
     29       6.4316      0.00000
     30       6.4316      0.00000
     31       6.4316      0.00000
     32       6.4316      0.00000


--------------------------------------------------------------------------------------------------------


 soft charge-density along one line, spin component            1
         0         1         2         3         4         5         6         7         8         9
 total charge-density along one line
 
 pseudopotential strength for first ion, spin component:            1
 15.021  18.756  -0.000   0.049   0.000  -0.000   0.089   0.000
 18.756  23.435  -0.000   0.062   0.000  -0.000   0.113   0.000
 -0.000  -0.000   3.309   0.000   0.000   5.639   0.000   0.000
  0.049   0.062   0.000   3.294  -0.000   0.000   5.614  -0.000
  0.000   0.000   0.000  -0.000   3.309   0.000  -0.000   5.639
 -0.000  -0.000   5.639   0.000   0.000   9.669   0.000   0.000
  0.089   0.113   0.000   5.614  -0.000   0.000   9.627  -0.000
  0.000   0.000   0.000  -0.000   5.639   0.000  -0.000   9.669
  0.000   0.000   0.000  -0.000  -0.000   0.000  -0.000  -0.000
  0.000   0.000   0.014  -0.000  -0.000   0.025  -0.000  -0.000
 -0.018  -0.023   0.000   0.012  -0.000   0.000   0.022  -0.000
 -0.000  -0.000  -0.000   0.000   0.014  -0.000   0.000   0.025
  0.000   0.000   0.000   0.000   0.000   0.000   0.000   0.000
 total augmentation occupancy for first ion, spin component:            1
  2.307  -0.417  -0.000   0.531   0.000   0.000  -0.109  -0.000   0.000  -0.000   0.065   0.000  -0.000
 -0.417   0.513   0.000  -0.602  -0.000  -0.000   0.097   0.000  -0.000   0.000  -0.053  -0.000  -0.001
 -0.000   0.000   0.683   0.000  -0.000  -0.090   0.000   0.000   0.000   0.030   0.000   0.000   0.000
  0.531  -0.602   0.000   1.611   0.000  -0.000  -0.245  -0.000   0.000  -0.000   0.195   0.000   0.001
  0.000  -0.000  -0.000   0.000   0.678   0.000  -0.000  -0.090  -0.000  -0.000  -0.000   0.030   0.000
  0.000  -0.000  -0.090  -0.000   0.000   0.013  -0.000  -0.000  -0.000  -0.004  -0.000   0.000  -0.000
 -0.109   0.097   0.000  -0.245  -0.000  -0.000   0.045   0.000  -0.000   0.000  -0.031  -0.000  -0.000
 -0.000   0.000   0.000  -0.000  -0.090  -0.000   0.000   0.013   0.000   0.000  -0.000  -0.004  -0.000
  0.000  -0.000   0.000   0.000  -0.000  -0.000  -0.000   0.000   0.013  -0.000   0.000  -0.000  -0.000
 -0.000   0.000   0.030  -0.000  -0.000  -0.004   0.000   0.000  -0.000   0.011  -0.000   0.000   0.000
  0.065  -0.053   0.000   0.195  -0.000  -0.000  -0.031  -0.000   0.000  -0.000   0.032  -0.000   0.000
  0.000  -0.000   0.000   0.000   0.030   0.000  -0.000  -0.004  -0.000   0.000  -0.000   0.011  -0.000
 -0.000  -0.001   0.000   0.001   0.000  -0.000  -0.000  -0.000  -0.000   0.000   0.000  -0.000   0.003


------------------------ aborting loop because EDIFF is reached ----------------------------------------


    CHARGE:  cpu time      0.0040: real time      0.0040
    FORLOC:  cpu time      0.0002: real time      0.0002
    FORNL :  cpu time      0.0212: real time      0.0212
    STRESS:  cpu time      0.2631: real time      0.2641
    FORCOR:  cpu time      0.0035: real time      0.0035
    FORHAR:  cpu time      0.0010: real time      0.0010
    MIXING:  cpu time      0.0033: real time      0.0033
    OFIELD:  cpu time      0.0000: real time      0.0000

  FORCE on cell =-STRESS in cart. coord.  units (eV):
  Direction    XX          YY          ZZ          XY          YZ          ZX
  --------------------------------------------------------------------------------------
  Alpha Z    73.45693    73.45693    73.45693
  Ewald    -491.31913  -479.71924  -368.95565    -0.00000    -0.00000    -0.00000
  Hartree    45.53878    55.84309    58.37097     0.00000     0.00000    -0.00000
  E(xc)    -137.72435  -137.75093  -139.56934    -0.00000    -0.00000    -0.00000
  Local    -105.62439  -127.91109  -240.53210    -0.00000    -0.00000    -0.00000
  n-local   230.40759   230.48073   246.35461     0.00000     0.00000     0.00000
  augment   -11.64100   -11.68230   -12.27693     0.00000    -0.00000     0.00000
  Kinetic   386.20268   387.11938   384.75019    -0.00000     0.00000     0.00000
  Fock        0.00000     0.00000     0.00000     0.00000     0.00000     0.00000
  -------------------------------------------------------------------------------------
  Total     -10.70288   -10.16343     1.59867    -0.00000    -0.00000    -0.00000
  in kB     -74.33898   -70.59215    11.10390    -0.00001    -0.00000    -0.00000
  external pressure =      -44.61 kB  Pullay stress =        0.00 kB


 VOLUME and BASIS-vectors are now :
 -----------------------------------------------------------------------------
  energy-cutoff  :      360.00
  volume of cell :      230.67
      direct lattice vectors                 reciprocal lattice vectors
     4.550000000  0.000000000  0.000000000     0.219780220  0.000000000  0.000000000
     0.000000000  4.550000000  0.000000000     0.000000000  0.219780220  0.000000000
     0.000000000  0.000000000 11.142221000     0.000000000  0.000000000  0.089748713

  length of vectors
     4.550000000  4.550000000 11.142221000     0.219780220  0.219780220  0.089748713


 FORCES acting on ions
    electron-ion (+dipol)            ewald-force                    non-local-force                 convergence-correction
 -----------------------------------------------------------------------------------------------
   0.325E-06 -.277E-06 0.322E+02   -.303E-15 -.534E-15 -.346E+02   -.170E-06 0.154E-06 0.246E+01   -.148E-06 0.124E-06 0.155E-03
   -.413E-07 -.202E-06 -.322E+02   0.630E-15 0.463E-15 0.346E+02   -.244E-08 0.120E-06 -.246E+01   0.293E-07 0.721E-07 -.155E-03
   0.940E-08 0.136E-06 -.322E+02   -.625E-15 0.674E-15 0.346E+02   -.261E-07 -.877E-07 -.246E+01   0.114E-07 -.478E-07 -.156E-03
   0.378E-07 0.310E-06 0.322E+02   0.666E-15 -.561E-16 -.346E+02   -.793E-08 -.149E-06 0.246E+01   -.249E-07 -.144E-06 0.156E-03
   0.111E-06 0.369E-06 -.347E+02   -.240E-15 -.692E-15 0.368E+02   -.377E-07 -.155E-06 -.210E+01   -.718E-07 -.203E-06 -.403E-03
   -.778E-06 0.534E-06 0.347E+02   0.672E-15 -.679E-15 -.368E+02   0.352E-06 -.190E-06 0.210E+01   0.378E-06 -.303E-06 0.404E-03
   -.126E-06 -.103E-05 0.347E+02   0.231E-15 -.607E-15 -.368E+02   0.392E-07 0.454E-06 0.210E+01   0.945E-07 0.504E-06 0.405E-03
   0.222E-06 -.295E-06 -.347E+02   -.327E-15 -.483E-16 0.368E+02   -.871E-07 0.140E-06 -.210E+01   -.140E-06 0.137E-06 -.406E-03
 -----------------------------------------------------------------------------------------------
   -.240E-06 -.452E-06 0.115E-05   0.704E-15 -.148E-14 0.213E-13   0.603E-07 0.286E-06 -.643E-06   0.128E-06 0.140E-06 -.391E-06
 
 
 POSITION                                       TOTAL-FORCE (eV/Angst)
 -----------------------------------------------------------------------------------
      0.00000      1.13750      1.62696         0.000000      0.000000     -0.003421
      2.27500      3.41250      3.94415        -0.000000     -0.000000      0.003421
      0.00000      3.41250      9.51526         0.000000      0.000000      0.003420
      2.27500      1.13750      7.19807         0.000000      0.000000     -0.003421
      0.00000      1.13750      4.05957         0.000000      0.000000      0.035747
      2.27500      3.41250      1.51154        -0.000000      0.000000     -0.035747
      0.00000      3.41250      7.08265         0.000000     -0.000000     -0.035747
      2.27500      1.13750      9.63069         0.000000     -0.000000      0.035747
 -----------------------------------------------------------------------------------
    total drift:                               -0.000000     -0.000000      0.000000


--------------------------------------------------------------------------------------------------------



  FREE ENERGIE OF THE ION-ELECTRON SYSTEM (eV)
  ---------------------------------------------------
  free  energy   TOTEN  =       -32.06882694 eV

  energy  without entropy=      -32.06882694  energy(sigma->0) =      -32.06882694
 


--------------------------------------------------------------------------------------------------------


    POTLOK:  cpu time      0.1137: real time      0.1140


--------------------------------------------------------------------------------------------------------


     LOOP+:  cpu time      5.6034: real time      5.6452
    4ORBIT:  cpu time      0.0000: real time      0.0000

 total amount of memory used by VASP MPI-rank0    39953. kBytes
=======================================================================

   base      :      30000. kBytes
   nonl-proj :       7704. kBytes
   fftplans  :        418. kBytes
   grid      :        607. kBytes
   one-center:         16. kBytes
   wavefun   :       1208. kBytes
 
  
  
 General timing and accounting informations for this job:
 ========================================================
  
                  Total CPU time used (sec):        6.450
                            User time (sec):        6.163
                          System time (sec):        0.287
                         Elapsed time (sec):        8.148
  
                   Maximum memory used (kb):      192804.
                   Average memory used (kb):          N/A
  
                          Minor page faults:        25250
                          Major page faults:           28
                 Voluntary context switches:         6860
