 vasp.6.4.2 20Jul23 (build Oct 12 2023 10:31:02) complex                         
 executed on              LinuxNV date 2025.05.18  05:29:18
 running  160 mpi-ranks, with    1 threads/rank, on   10 nodes
 distrk:  each k-point on   80 cores,    2 groups
 distr:  one band on NCORE=   5 cores,   16 groups


--------------------------------------------------------------------------------------------------------


 INCAR:
   ENCUT = 520.000000
   SIGMA = 0.050000
   EDIFF = 1.00e-06
   ALGO = Normal
   GGA = PE
   PREC = Normal
   SYSTEM = ./
   ICHARG = 2
   ISMEAR = 0
   ISPIN = 1
   ISTART = 0
   ISYM = 0
   KPAR = 2
   LMAXMIX = 4
   NELM = 100
   NPAR = 16
   LASPH = .TRUE.
   LCHARG = .FALSE.
   LWAVE = .FALSE.

 POTCAR:    PAW_PBE Ge 05Jan2001                  
 POTCAR:    PAW_PBE Se 06Sep2000                  
 POTCAR:    PAW_PBE Ge 05Jan2001                  
   VRHFIN =Ge: s2p2                                                                                 
   LEXCH  = PE                                                                                      
   EATOM  =   104.9960 eV,    7.7170 Ry                                                             
                                                                                                    
   TITEL  = PAW_PBE Ge 05Jan2001                                                                    
   LULTRA =        F    use ultrasoft PP ?                                                          
   IUNSCR =        1    unscreen: 0-lin 1-nonlin 2-no                                               
   RPACOR =    2.170    partial core radius                                                         
   POMASS =   72.610; ZVAL   =    4.000    mass and valenz                                          
   RCORE  =    2.300    outmost cutoff radius                                                       
   RWIGS  =    2.300; RWIGS  =    1.217    wigner-seitz radius (au A)                               
   ENMAX  =  173.807; ENMIN  =  130.355 eV                                                          
   ICORE  =        3    local potential                                                             
   LCOR   =        T    correct aug charges                                                         
   LPAW   =        T    paw PP                                                                      
   EAUG   =  385.843                                                                                
   DEXC   =    0.000                                                                                
   RMAX   =    2.342    core radius for proj-oper                                                   
   RAUG   =    1.300    factor for augmentation sphere                                              
   RDEP   =    2.318    radius for radial grids                                                     
   RDEPT  =    2.103    core radius for aug-charge                                                  
                                                                                                    
   Atomic configuration                                                                             
   10 entries                                                                                       
     n  l   j            E        occ.                                                              
     1  0  0.50    -10959.8463   2.0000                                                             
     2  0  0.50     -1371.6056   2.0000                                                             
     2  1  1.50     -1198.4791   6.0000                                                             
     3  0  0.50      -168.4733   2.0000                                                             
     3  1  1.50      -115.6019   6.0000                                                             
     3  2  2.50       -29.3106  10.0000                                                             
     4  0  0.50       -11.7309   2.0000                                                             
     4  1  0.50        -3.8952   2.0000                                                             
     4  2  1.50        -4.0817   0.0000                                                             
     4  3  2.50        -4.0817   0.0000                                                             
   Description                                                                                      
     l       E           TYP  RCUT    TYP  RCUT                                                     
     0    -11.7309493     23  2.300                                                                 
     0     -7.4578696     23  2.300                                                                 
     1     -3.8952261     23  2.300                                                                 
     1      6.1178114     23  2.300                                                                 
     2     -4.0817478     23  2.300                                                                 
     3     -1.3605826      7  2.300                                                                 
  local pseudopotential read in
  partial core-charges read in
  partial kinetic energy density read in
  atomic valenz-charges read in
  non local Contribution for L=            0  read in
    real space projection operators read in
  non local Contribution for L=            0  read in
    real space projection operators read in
  non local Contribution for L=            1  read in
    real space projection operators read in
  non local Contribution for L=            1  read in
    real space projection operators read in
  non local Contribution for L=            2  read in
    real space projection operators read in
    PAW grid and wavefunctions read in
 
   number of l-projection  operators is LMAX  =            5
   number of lm-projection operators is LMMAX =           13
 
 POTCAR:    PAW_PBE Se 06Sep2000                  
   VRHFIN =Se: s2p4                                                                                 
   LEXCH  = PE                                                                                      
   EATOM  =   257.1286 eV,   18.8984 Ry                                                             
                                                                                                    
   TITEL  = PAW_PBE Se 06Sep2000                                                                    
   LULTRA =        F    use ultrasoft PP ?                                                          
   IUNSCR =        1    unscreen: 0-lin 1-nonlin 2-no                                               
   RPACOR =    1.900    partial core radius                                                         
   POMASS =   78.960; ZVAL   =    6.000    mass and valenz                                          
   RCORE  =    2.100    outmost cutoff radius                                                       
   RWIGS  =    2.200; RWIGS  =    1.164    wigner-seitz radius (au A)                               
   ENMAX  =  211.555; ENMIN  =  158.666 eV                                                          
   ICORE  =        3    local potential                                                             
   LCOR   =        T    correct aug charges                                                         
   LPAW   =        T    paw PP                                                                      
   EAUG   =  446.842                                                                                
   DEXC   =    0.000                                                                                
   RMAX   =    2.147    core radius for proj-oper                                                   
   RAUG   =    1.300    factor for augmentation sphere                                              
   RDEP   =    2.177    radius for radial grids                                                     
   RDEPT  =    1.928    core radius for aug-charge                                                  
                                                                                                    
   Atomic configuration                                                                             
   10 entries                                                                                       
     n  l   j            E        occ.                                                              
     1  0  0.50    -12503.4787   2.0000                                                             
     2  0  0.50     -1606.9547   2.0000                                                             
     2  1  1.50     -1413.3140   6.0000                                                             
     3  0  0.50      -213.4885   2.0000                                                             
     3  1  1.50      -152.9538   6.0000                                                             
     3  2  2.50       -53.1221  10.0000                                                             
     4  0  0.50       -17.2865   2.0000                                                             
     4  1  0.50        -6.5110   4.0000                                                             
     4  2  2.50        -6.8029   0.0000                                                             
     4  3  2.50        -6.8029   0.0000                                                             
   Description                                                                                      
     l       E           TYP  RCUT    TYP  RCUT                                                     
     0    -17.2865377     23  2.100                                                                 
     0    -15.3094411     23  2.100                                                                 
     1     -6.5110275     23  2.100                                                                 
     1     -0.0695192     23  2.100                                                                 
     2     -6.8029130     23  2.100                                                                 
     3     -1.3605826      7  2.100                                                                 
  local pseudopotential read in
  partial core-charges read in
  partial kinetic energy density read in
  atomic valenz-charges read in
  non local Contribution for L=            0  read in
    real space projection operators read in
  non local Contribution for L=            0  read in
    real space projection operators read in
  non local Contribution for L=            1  read in
    real space projection operators read in
  non local Contribution for L=            1  read in
    real space projection operators read in
  non local Contribution for L=            2  read in
    real space projection operators read in
    PAW grid and wavefunctions read in
 
   number of l-projection  operators is LMAX  =            5
   number of lm-projection operators is LMMAX =           13
 
  PAW_PBE Ge 05Jan2001                  :
 energy of atom  1       EATOM= -104.9960
 kinetic energy error for atom=    0.0002 (will be added to EATOM!!)
  PAW_PBE Se 06Sep2000                  :
 energy of atom  2       EATOM= -257.1286
 kinetic energy error for atom=    0.0007 (will be added to EATOM!!)
 
 
 POSCAR: Ge Se
  positions in cartesian coordinates
  No initial velocities read in
 exchange correlation table for  LEXCH =        8
   RHO(1)=    0.500       N(1)  =     2000
   RHO(2)=  100.500       N(2)  =     4000
 


--------------------------------------------------------------------------------------------------------


 ion  position               nearest neighbor table
   1  0.511  0.389  0.123-   6 2.60   6 2.60   5 2.60
   2  0.011  0.889  0.377-   5 2.60   5 2.60   6 2.60
   3  0.750  0.886  0.877-   8 2.60   8 2.60   7 2.60
   4  0.250  0.386  0.623-   7 2.60   7 2.60   8 2.60
   5  0.511  0.269  0.352-   2 2.60   2 2.60   1 2.60
   6  0.011  0.769  0.148-   1 2.60   1 2.60   2 2.60
   7  0.750  0.007  0.648-   4 2.60   4 2.60   3 2.60
   8  0.250  0.507  0.852-   3 2.60   3 2.60   4 2.60
 

IMPORTANT INFORMATION: All symmetrisations will be switched off!
NOSYMM: (Re-)initialisation of all symmetry stuff for point group C_1.


----------------------------------------------------------------------------------------

                                     Primitive cell                                     

  volume of cell :     193.5913

  direct lattice vectors                    reciprocal lattice vectors
     3.858100176  0.000000000  0.000000000     0.259194929  0.000000000  0.000000000
     0.000000000  4.526575088  0.000000000     0.000000000  0.220917577  0.000000000
     0.000000000  0.000000000 11.085176468     0.000000000  0.000000000  0.090210562

  length of vectors
     3.858100176  4.526575088 11.085176468     0.259194929  0.220917577  0.090210562

  position of ions in fractional coordinates (direct lattice)
     0.510869565  0.389482753  0.122982664
     0.010869565  0.889482753  0.377017336
     0.750000000  0.885879566  0.877017336
     0.250000000  0.385879566  0.622982664
     0.510869565  0.268672208  0.352381810
     0.010869565  0.768672208  0.147618190
     0.750000000  0.006690111  0.647618190
     0.250000000  0.506690111  0.852381810

  ion indices of the primitive-cell ions
   primitive index   ion index
                 1           1
                 2           2
                 3           3
                 4           4
                 5           5
                 6           6
                 7           7
                 8           8

----------------------------------------------------------------------------------------

 
 
 KPOINTS: KPOINTS created by Atomic Simulation Env

Automatic generation of k-mesh.
 Grid dimensions read from file:
 generate k-points for:    6    6    2

 Generating k-lattice:

  Cartesian coordinates                     Fractional coordinates (reciprocal lattice)
     0.043199155  0.000000000  0.000000000     0.166666667  0.000000000  0.000000000
     0.000000000  0.036819596  0.000000000     0.000000000  0.166666667  0.000000000
     0.000000000  0.000000000  0.045105281     0.000000000  0.000000000  0.500000000

  Length of vectors
     0.043199155  0.036819596  0.045105281

  Shift w.r.t. Gamma in fractional coordinates (k-lattice)
     0.000000000  0.000000000  0.000000000

 
 Subroutine IBZKPT returns following result:
 ===========================================
 
 Found     40 irreducible k-points:
 
 Following reciprocal coordinates:
            Coordinates               Weight
  0.000000  0.000000  0.000000      1.000000
  0.166667  0.000000  0.000000      2.000000
  0.333333  0.000000  0.000000      2.000000
  0.500000  0.000000  0.000000      1.000000
  0.000000  0.166667  0.000000      2.000000
  0.166667  0.166667  0.000000      2.000000
  0.166667 -0.166667  0.000000      2.000000
  0.333333  0.166667  0.000000      2.000000
  0.333333 -0.166667  0.000000      2.000000
  0.500000  0.166667  0.000000      2.000000
  0.000000  0.333333  0.000000      2.000000
  0.166667  0.333333  0.000000      2.000000
  0.166667 -0.333333  0.000000      2.000000
  0.333333  0.333333  0.000000      2.000000
  0.333333 -0.333333  0.000000      2.000000
  0.500000  0.333333  0.000000      2.000000
  0.000000  0.500000  0.000000      1.000000
  0.166667  0.500000  0.000000      2.000000
  0.333333  0.500000  0.000000      2.000000
  0.500000  0.500000  0.000000      1.000000
  0.000000  0.000000  0.500000      1.000000
  0.166667  0.000000  0.500000      2.000000
  0.333333  0.000000  0.500000      2.000000
  0.500000  0.000000  0.500000      1.000000
  0.000000  0.166667  0.500000      2.000000
  0.166667  0.166667  0.500000      2.000000
  0.166667 -0.166667  0.500000      2.000000
  0.333333  0.166667  0.500000      2.000000
  0.333333 -0.166667  0.500000      2.000000
  0.500000  0.166667  0.500000      2.000000
  0.000000  0.333333  0.500000      2.000000
  0.166667  0.333333  0.500000      2.000000
  0.166667 -0.333333  0.500000      2.000000
  0.333333  0.333333  0.500000      2.000000
  0.333333 -0.333333  0.500000      2.000000
  0.500000  0.333333  0.500000      2.000000
  0.000000  0.500000  0.500000      1.000000
  0.166667  0.500000  0.500000      2.000000
  0.333333  0.500000  0.500000      2.000000
  0.500000  0.500000  0.500000      1.000000
 
 Following cartesian coordinates:
            Coordinates               Weight
  0.000000  0.000000  0.000000      1.000000
  0.043199  0.000000  0.000000      2.000000
  0.086398  0.000000  0.000000      2.000000
  0.129597  0.000000  0.000000      1.000000
  0.000000  0.036820  0.000000      2.000000
  0.043199  0.036820  0.000000      2.000000
  0.043199 -0.036820  0.000000      2.000000
  0.086398  0.036820  0.000000      2.000000
  0.086398 -0.036820  0.000000      2.000000
  0.129597  0.036820  0.000000      2.000000
  0.000000  0.073639  0.000000      2.000000
  0.043199  0.073639  0.000000      2.000000
  0.043199 -0.073639  0.000000      2.000000
  0.086398  0.073639  0.000000      2.000000
  0.086398 -0.073639  0.000000      2.000000
  0.129597  0.073639  0.000000      2.000000
  0.000000  0.110459  0.000000      1.000000
  0.043199  0.110459  0.000000      2.000000
  0.086398  0.110459  0.000000      2.000000
  0.129597  0.110459  0.000000      1.000000
  0.000000  0.000000  0.045105      1.000000
  0.043199  0.000000  0.045105      2.000000
  0.086398  0.000000  0.045105      2.000000
  0.129597  0.000000  0.045105      1.000000
  0.000000  0.036820  0.045105      2.000000
  0.043199  0.036820  0.045105      2.000000
  0.043199 -0.036820  0.045105      2.000000
  0.086398  0.036820  0.045105      2.000000
  0.086398 -0.036820  0.045105      2.000000
  0.129597  0.036820  0.045105      2.000000
  0.000000  0.073639  0.045105      2.000000
  0.043199  0.073639  0.045105      2.000000
  0.043199 -0.073639  0.045105      2.000000
  0.086398  0.073639  0.045105      2.000000
  0.086398 -0.073639  0.045105      2.000000
  0.129597  0.073639  0.045105      2.000000
  0.000000  0.110459  0.045105      1.000000
  0.043199  0.110459  0.045105      2.000000
  0.086398  0.110459  0.045105      2.000000
  0.129597  0.110459  0.045105      1.000000
 


--------------------------------------------------------------------------------------------------------




 Dimension of arrays:
   k-points           NKPTS =     40   k-points in BZ     NKDIM =     40   number of bands    NBANDS=     32
   number of dos      NEDOS =    301   number of ions     NIONS =      8
   non local maximal  LDIM  =      5   non local SUM 2l+1 LMDIM =     13
   total plane-waves  NPLWV =  43008
   max r-space proj   IRMAX =      1   max aug-charges    IRDMAX=  12272
   dimension x,y,z NGX =    24 NGY =   28 NGZ =   64
   dimension x,y,z NGXF=    48 NGYF=   56 NGZF=  128
   support grid    NGXF=    48 NGYF=   56 NGZF=  128
   ions per type =               4   4
   NGX,Y,Z   is equivalent  to a cutoff of  10.34, 10.28,  9.60 a.u.
   NGXF,Y,Z  is equivalent  to a cutoff of  20.68, 20.57, 19.20 a.u.

 SYSTEM =  ./                                      
 POSCAR =  Ge Se                                   

 Startparameter for this run:
   NWRITE =      2    write-flag & timer
   PREC   = normal    normal or accurate (medium, high low for compatibility)
   ISTART =      0    job   : 0-new  1-cont  2-samecut
   ICHARG =      2    charge: 1-file 2-atom 10-const
   ISPIN  =      1    spin polarized calculation?
   LNONCOLLINEAR =      F non collinear calculations
   LSORBIT =      F    spin-orbit coupling
   INIWAV =      1    electr: 0-lowe 1-rand  2-diag
   LASPH  =      T    aspherical Exc in radial PAW
 Electronic Relaxation 1
   ENCUT  =  520.0 eV  38.22 Ry    6.18 a.u.   7.17  8.42 20.61*2*pi/ulx,y,z
   ENINI  =  520.0     initial cutoff
   ENAUG  =  446.8 eV  augmentation charge cutoff
   NELM   =    100;   NELMIN=  2; NELMDL= -5     # of ELM steps 
   EDIFF  = 0.1E-05   stopping-criterion for ELM
   LREAL  =      F    real-space projection
   NLSPLINE    = F    spline interpolate recip. space projectors
   LCOMPAT=      F    compatible to vasp.4.4
   GGA_COMPAT  = T    GGA compatible to vasp.4.4-vasp.4.6
   LMAXPAW     = -100 max onsite density
   LMAXMIX     =    4 max onsite mixed and CHGCAR
   VOSKOWN=      0    Vosko Wilk Nusair interpolation
   ROPT   =    0.00000   0.00000
 Ionic relaxation
   EDIFFG = 0.1E-04   stopping-criterion for IOM
   NSW    =      0    number of steps for IOM
   NBLOCK =      1;   KBLOCK =      1    inner block; outer block 
   IBRION =     -1    ionic relax: 0-MD 1-quasi-New 2-CG
   NFREE  =      0    steps in history (QN), initial steepest desc. (CG)
   ISIF   =      2    stress and relaxation
   IWAVPR =     10    prediction:  0-non 1-charg 2-wave 3-comb
   ISYM   =      0    0-nonsym 1-usesym 2-fastsym
   LCORR  =      T    Harris-Foulkes like correction to forces

   POTIM  = 0.5000    time-step for ionic-motion
   TEIN   =    0.0    initial temperature
   TEBEG  =    0.0;   TEEND  =   0.0 temperature during run
   SMASS  =  -3.00    Nose mass-parameter (am)
   estimated Nose-frequenzy (Omega)   =  0.10E-29 period in steps = 0.13E+47 mass=  -0.340E-27a.u.
   SCALEE = 1.0000    scale energy and forces
   NPACO  =    256;   APACO  = 10.0  distance and # of slots for P.C.
   PSTRESS=    0.0 pullay stress

  Mass of Ions in am
   POMASS =  72.61 78.96
  Ionic Valenz
   ZVAL   =   4.00  6.00
  Atomic Wigner-Seitz radii
   RWIGS  =  -1.00 -1.00
  virtual crystal weights 
   VCA    =   1.00  1.00
   NELECT =      40.0000    total number of electrons
   NUPDOWN=      -1.0000    fix difference up-down

 DOS related values:
   EMIN   =  10.00;   EMAX   =-10.00  energy-range for DOS
   EFERMI =   0.00;   METHOD = LEGACY      
   ISMEAR =     0;   SIGMA  =   0.05  broadening in eV -4-tet -1-fermi 0-gaus

 Electronic relaxation 2 (details)
   IALGO  =     38    algorithm
   LDIAG  =      T    sub-space diagonalisation (order eigenvalues)
   LSUBROT=      F    optimize rotation matrix (better conditioning)
   TURBO    =      0    0=normal 1=particle mesh
   IRESTART =      0    0=no restart 2=restart with 2 vectors
   NREBOOT  =      0    no. of reboots
   NMIN     =      0    reboot dimension
   EREF     =   0.00    reference energy to select bands
   IMIX   =      4    mixing-type and parameters
     AMIX     =   0.40;   BMIX     =  1.00
     AMIX_MAG =   1.60;   BMIX_MAG =  1.00
     AMIN     =   0.10
     WC   =   100.;   INIMIX=   1;  MIXPRE=   1;  MAXMIX= -45

 Intra band minimization:
   WEIMIN = 0.0000     energy-eigenvalue tresh-hold
   EBREAK =  0.78E-08  absolut break condition
   DEPER  =   0.30     relativ break condition  

   TIME   =   0.40     timestep for ELM

  volume/ion in A,a.u.               =      24.20       163.30
  Fermi-wavevector in a.u.,A,eV,Ry     =   0.967831  1.828935 12.744535  0.936697
  Thomas-Fermi vector in A             =   2.097750
 
 Write flags
   LWAVE        =      F    write WAVECAR
   LDOWNSAMPLE  =      F    k-point downsampling of WAVECAR
   LCHARG       =      F    write CHGCAR
   LVTOT        =      F    write LOCPOT, total local potential
   LVHAR        =      F    write LOCPOT, Hartree potential only
   LELF         =      F    write electronic localiz. function (ELF)
   LORBIT       =      0    0 simple, 1 ext, 2 COOP (PROOUT), +10 PAW based schemes


 Dipole corrections
   LMONO  =      F    monopole corrections only (constant potential shift)
   LDIPOL =      F    correct potential (dipole corrections)
   IDIPOL =      0    1-x, 2-y, 3-z, 4-all directions 
   EPSILON=  1.0000000 bulk dielectric constant

 Exchange correlation treatment:
   GGA     =    PE    GGA type
   LEXCH   =     8    internal setting for exchange type
   LIBXC   =     F    Libxc                    
   VOSKOWN =     0    Vosko Wilk Nusair interpolation
   LHFCALC =     F    Hartree Fock is set to
   LHFONE  =     F    Hartree Fock one center treatment
   AEXX    =    0.0000 exact exchange contribution

 Linear response parameters
   LEPSILON=     F    determine dielectric tensor
   LRPA    =     F    only Hartree local field effects (RPA)
   LNABLA  =     F    use nabla operator in PAW spheres
   LVEL    =     F    velocity operator in full k-point grid
   CSHIFT  =0.1000    complex shift for real part using Kramers Kronig
   OMEGAMAX=  -1.0    maximum frequency
   DEG_THRESHOLD= 0.2000000E-02 threshold for treating states as degnerate
   RTIME   =   -0.100 relaxation time in fs
  (WPLASMAI=    0.000 imaginary part of plasma frequency in eV, 0.658/RTIME)
   DFIELD  = 0.0000000 0.0000000 0.0000000 field for delta impulse in time
 
  Optional k-point grid parameters
   LKPOINTS_OPT  =     F    use optional k-point grid
   KPOINTS_OPT_MODE=     1    mode for optional k-point grid
 
 Orbital magnetization related:
   ORBITALMAG=     F  switch on orbital magnetization
   LCHIMAG   =     F  perturbation theory with respect to B field
   DQ        =  0.001000  dq finite difference perturbation B field
   LLRAUG    =     F  two centre corrections for induced B field
   LBONE     =     F  B-component reconstruction in AE one-centre
   LVGVCALC  =     T  calculate vGv susceptibility
   LVGVAPPL  =     F  apply vGv susceptibility instead of pGv for G=0

 Random number generation:
   RANDOM_GENERATOR = DEFAULT
   PCG_SEED         = not used


--------------------------------------------------------------------------------------------------------


 Static calculation
 charge density and potential will be updated during run
 non-spin polarized calculation
 Variant of blocked Davidson
 Davidson routine will perform the subspace rotation
 perform sub-space diagonalisation
    after iterative eigenvector-optimisation
 modified Broyden-mixing scheme, WC =      100.0
 initial mixing is a Kerker type mixing with AMIX =  0.4000 and BMIX =      1.0000
 Hartree-type preconditioning will be used
 using additional bands            12
 reciprocal scheme for non local part
 use partial core corrections
 calculate Harris-corrections to forces 
   (improved forces if not selfconsistent)
 use gradient corrections 
 use of overlap-Matrix (Vanderbilt PP)
 Gauss-broadening in eV      SIGMA  =   0.05


--------------------------------------------------------------------------------------------------------


  energy-cutoff  :      520.00
  volume of cell :      193.59
      direct lattice vectors                 reciprocal lattice vectors
     3.858100176  0.000000000  0.000000000     0.259194929  0.000000000  0.000000000
     0.000000000  4.526575088  0.000000000     0.000000000  0.220917577  0.000000000
     0.000000000  0.000000000 11.085176468     0.000000000  0.000000000  0.090210562

  length of vectors
     3.858100176  4.526575088 11.085176468     0.259194929  0.220917577  0.090210562


 
 k-points in units of 2pi/SCALE and weight: KPOINTS created by Atomic Simulation Env
   0.00000000  0.00000000  0.00000000       0.014
   0.04319915  0.00000000  0.00000000       0.028
   0.08639831  0.00000000  0.00000000       0.028
   0.12959746  0.00000000  0.00000000       0.014
   0.00000000  0.03681960  0.00000000       0.028
   0.04319915  0.03681960  0.00000000       0.028
   0.04319915 -0.03681960  0.00000000       0.028
   0.08639831  0.03681960  0.00000000       0.028
   0.08639831 -0.03681960  0.00000000       0.028
   0.12959746  0.03681960  0.00000000       0.028
   0.00000000  0.07363919  0.00000000       0.028
   0.04319915  0.07363919  0.00000000       0.028
   0.04319915 -0.07363919  0.00000000       0.028
   0.08639831  0.07363919  0.00000000       0.028
   0.08639831 -0.07363919  0.00000000       0.028
   0.12959746  0.07363919  0.00000000       0.028
   0.00000000  0.11045879  0.00000000       0.014
   0.04319915  0.11045879  0.00000000       0.028
   0.08639831  0.11045879  0.00000000       0.028
   0.12959746  0.11045879  0.00000000       0.014
   0.00000000  0.00000000  0.04510528       0.014
   0.04319915  0.00000000  0.04510528       0.028
   0.08639831  0.00000000  0.04510528       0.028
   0.12959746  0.00000000  0.04510528       0.014
   0.00000000  0.03681960  0.04510528       0.028
   0.04319915  0.03681960  0.04510528       0.028
   0.04319915 -0.03681960  0.04510528       0.028
   0.08639831  0.03681960  0.04510528       0.028
   0.08639831 -0.03681960  0.04510528       0.028
   0.12959746  0.03681960  0.04510528       0.028
   0.00000000  0.07363919  0.04510528       0.028
   0.04319915  0.07363919  0.04510528       0.028
   0.04319915 -0.07363919  0.04510528       0.028
   0.08639831  0.07363919  0.04510528       0.028
   0.08639831 -0.07363919  0.04510528       0.028
   0.12959746  0.07363919  0.04510528       0.028
   0.00000000  0.11045879  0.04510528       0.014
   0.04319915  0.11045879  0.04510528       0.028
   0.08639831  0.11045879  0.04510528       0.028
   0.12959746  0.11045879  0.04510528       0.014
 
 k-points in reciprocal lattice and weights: KPOINTS created by Atomic Simulation Env
   0.00000000  0.00000000  0.00000000       0.014
   0.16666667  0.00000000  0.00000000       0.028
   0.33333333  0.00000000  0.00000000       0.028
   0.50000000  0.00000000  0.00000000       0.014
   0.00000000  0.16666667  0.00000000       0.028
   0.16666667  0.16666667  0.00000000       0.028
   0.16666667 -0.16666667  0.00000000       0.028
   0.33333333  0.16666667  0.00000000       0.028
   0.33333333 -0.16666667  0.00000000       0.028
   0.50000000  0.16666667  0.00000000       0.028
   0.00000000  0.33333333  0.00000000       0.028
   0.16666667  0.33333333  0.00000000       0.028
   0.16666667 -0.33333333  0.00000000       0.028
   0.33333333  0.33333333  0.00000000       0.028
   0.33333333 -0.33333333  0.00000000       0.028
   0.50000000  0.33333333  0.00000000       0.028
   0.00000000  0.50000000  0.00000000       0.014
   0.16666667  0.50000000  0.00000000       0.028
   0.33333333  0.50000000  0.00000000       0.028
   0.50000000  0.50000000  0.00000000       0.014
   0.00000000  0.00000000  0.50000000       0.014
   0.16666667  0.00000000  0.50000000       0.028
   0.33333333  0.00000000  0.50000000       0.028
   0.50000000  0.00000000  0.50000000       0.014
   0.00000000  0.16666667  0.50000000       0.028
   0.16666667  0.16666667  0.50000000       0.028
   0.16666667 -0.16666667  0.50000000       0.028
   0.33333333  0.16666667  0.50000000       0.028
   0.33333333 -0.16666667  0.50000000       0.028
   0.50000000  0.16666667  0.50000000       0.028
   0.00000000  0.33333333  0.50000000       0.028
   0.16666667  0.33333333  0.50000000       0.028
   0.16666667 -0.33333333  0.50000000       0.028
   0.33333333  0.33333333  0.50000000       0.028
   0.33333333 -0.33333333  0.50000000       0.028
   0.50000000  0.33333333  0.50000000       0.028
   0.00000000  0.50000000  0.50000000       0.014
   0.16666667  0.50000000  0.50000000       0.028
   0.33333333  0.50000000  0.50000000       0.028
   0.50000000  0.50000000  0.50000000       0.014
 
 position of ions in fractional coordinates (direct lattice) 
   0.51086957  0.38948275  0.12298266
   0.01086957  0.88948275  0.37701734
   0.75000000  0.88587957  0.87701734
   0.25000000  0.38587957  0.62298266
   0.51086957  0.26867221  0.35238181
   0.01086957  0.76867221  0.14761819
   0.75000000  0.00669011  0.64761819
   0.25000000  0.50669011  0.85238181
 
 position of ions in cartesian coordinates  (Angst):
   1.97098596  1.76302293  1.36328454
   0.04193587  4.02631047  4.17930370
   2.89357513  4.01000037  9.72189193
   0.96452504  1.74671283  6.90587277
   1.97098596  1.21616492  3.90621455
   0.04193587  3.47945247  1.63637368
   2.89357513  0.03028329  7.17896192
   0.96452504  2.29357083  9.44880278
 


--------------------------------------------------------------------------------------------------------


 k-point   1 :   0.0000 0.0000 0.0000  plane waves:    5211
 k-point   2 :   0.1667 0.0000 0.0000  plane waves:    5225
 k-point   3 :   0.3333 0.0000 0.0000  plane waves:    5224
 k-point   4 :   0.5000 0.0000 0.0000  plane waves:    5258
 k-point   5 :   0.0000 0.1667 0.0000  plane waves:    5209
 k-point   6 :   0.1667 0.1667 0.0000  plane waves:    5201
 k-point   7 :   0.1667-0.1667 0.0000  plane waves:    5201
 k-point   8 :   0.3333 0.1667 0.0000  plane waves:    5230
 k-point   9 :   0.3333-0.1667 0.0000  plane waves:    5230
 k-point  10 :   0.5000 0.1667 0.0000  plane waves:    5236
 k-point  11 :   0.0000 0.3333 0.0000  plane waves:    5213
 k-point  12 :   0.1667 0.3333 0.0000  plane waves:    5199
 k-point  13 :   0.1667-0.3333 0.0000  plane waves:    5199
 k-point  14 :   0.3333 0.3333 0.0000  plane waves:    5211
 k-point  15 :   0.3333-0.3333 0.0000  plane waves:    5211
 k-point  16 :   0.5000 0.3333 0.0000  plane waves:    5230
 k-point  17 :   0.0000 0.5000 0.0000  plane waves:    5220
 k-point  18 :   0.1667 0.5000 0.0000  plane waves:    5208
 k-point  19 :   0.3333 0.5000 0.0000  plane waves:    5230
 k-point  20 :   0.5000 0.5000 0.0000  plane waves:    5180
 k-point  21 :   0.0000 0.0000 0.5000  plane waves:    5210
 k-point  22 :   0.1667 0.0000 0.5000  plane waves:    5178
 k-point  23 :   0.3333 0.0000 0.5000  plane waves:    5214
 k-point  24 :   0.5000 0.0000 0.5000  plane waves:    5232
 k-point  25 :   0.0000 0.1667 0.5000  plane waves:    5224
 k-point  26 :   0.1667 0.1667 0.5000  plane waves:    5210
 k-point  27 :   0.1667-0.1667 0.5000  plane waves:    5210
 k-point  28 :   0.3333 0.1667 0.5000  plane waves:    5196
 k-point  29 :   0.3333-0.1667 0.5000  plane waves:    5196
 k-point  30 :   0.5000 0.1667 0.5000  plane waves:    5224
 k-point  31 :   0.0000 0.3333 0.5000  plane waves:    5202
 k-point  32 :   0.1667 0.3333 0.5000  plane waves:    5214
 k-point  33 :   0.1667-0.3333 0.5000  plane waves:    5214
 k-point  34 :   0.3333 0.3333 0.5000  plane waves:    5216
 k-point  35 :   0.3333-0.3333 0.5000  plane waves:    5216
 k-point  36 :   0.5000 0.3333 0.5000  plane waves:    5216
 k-point  37 :   0.0000 0.5000 0.5000  plane waves:    5212
 k-point  38 :   0.1667 0.5000 0.5000  plane waves:    5192
 k-point  39 :   0.3333 0.5000 0.5000  plane waves:    5208
 k-point  40 :   0.5000 0.5000 0.5000  plane waves:    5208

 maximum and minimum number of plane-waves per node :      1076     1017

 maximum number of plane-waves:      5258
 maximum index in each direction: 
   IXMAX=    7   IYMAX=    8   IZMAX=   20
   IXMIN=   -7   IYMIN=   -8   IZMIN=  -21


 parallel 3D FFT for wavefunctions:
    minimum data exchange during FFTs selected (reduces bandwidth)
 parallel 3D FFT for charge:
    minimum data exchange during FFTs selected (reduces bandwidth)


 total amount of memory used by VASP MPI-rank0    41770. kBytes
=======================================================================

   base      :      30000. kBytes
   nonl-proj :       9056. kBytes
   fftplans  :        519. kBytes
   grid      :        766. kBytes
   one-center:         16. kBytes
   wavefun   :       1413. kBytes
 
     INWAV:  cpu time      0.0000: real time      0.0001
 Broyden mixing: mesh for mixing (old mesh)
   NGX = 15   NGY = 17   NGZ = 41
  (NGX  = 48   NGY  = 56   NGZ  =128)
  gives a total of  10455 points

 initial charge density was supplied:
 charge density of overlapping atoms calculated
 number of electron      40.0000000 magnetization 
 keeping initial charge density in first step


--------------------------------------------------------------------------------------------------------


 Maximum index for augmentation-charges           609 (set IRDMAX)


--------------------------------------------------------------------------------------------------------


 First call to EWALD:  gamma=   0.306
 Maximum number of real-space cells 4x 3x 2
 Maximum number of reciprocal cells 2x 2x 5

    FEWALD:  cpu time      0.0011: real time      0.0011


--------------------------------------- Ionic step        1  -------------------------------------------




--------------------------------------- Iteration      1(   1)  ---------------------------------------


    POTLOK:  cpu time      0.0109: real time      0.0110
    SETDIJ:  cpu time      0.2188: real time      0.2193
     EDDAV:  cpu time      0.3512: real time      0.3532
       DOS:  cpu time      0.0011: real time      0.0011
    --------------------------------------------
      LOOP:  cpu time      0.5820: real time      0.5847

 eigenvalue-minimisations  :  2560
 total energy-change (2. order) : 0.1630285E+03  (-0.1589323E+04)
 number of electron      40.0000000 magnetization 
 augmentation part       40.0000000 magnetization 

 Free energy of the ion-electron system (eV)
  ---------------------------------------------------
  alpha Z        PSCENC =        87.52689448
  Ewald energy   TEWEN  =     -1414.71124948
  -Hartree energ DENC   =      -131.97865627
  -exchange      EXHF   =         0.00000000
  -V(xc)+E(xc)   XCENC  =       -33.31718702
  PAW double counting   =      1193.78262552    -1080.73714043
  entropy T*S    EENTRO =        -0.00554659
  eigenvalues    EBANDS =        93.97411109
  atomic energy  EATOM  =      1448.49460871
  Solvation  Ediel_sol  =         0.00000000
  ---------------------------------------------------
  free energy    TOTEN  =       163.02846000 eV

  energy without entropy =      163.03400659  energy(sigma->0) =      163.03123329


--------------------------------------------------------------------------------------------------------




--------------------------------------- Iteration      1(   2)  ---------------------------------------


     EDDAV:  cpu time      0.4831: real time      0.4861
       DOS:  cpu time      0.0005: real time      0.0005
    --------------------------------------------
      LOOP:  cpu time      0.4836: real time      0.4866

 eigenvalue-minimisations  :  3712
 total energy-change (2. order) :-0.1854393E+03  (-0.1799812E+03)
 number of electron      40.0000000 magnetization 
 augmentation part       40.0000000 magnetization 

 Free energy of the ion-electron system (eV)
  ---------------------------------------------------
  alpha Z        PSCENC =        87.52689448
  Ewald energy   TEWEN  =     -1414.71124948
  -Hartree energ DENC   =      -131.97865627
  -exchange      EXHF   =         0.00000000
  -V(xc)+E(xc)   XCENC  =       -33.31718702
  PAW double counting   =      1193.78262552    -1080.73714043
  entropy T*S    EENTRO =        -0.00000000
  eigenvalues    EBANDS =       -91.47075463
  atomic energy  EATOM  =      1448.49460871
  Solvation  Ediel_sol  =         0.00000000
  ---------------------------------------------------
  free energy    TOTEN  =       -22.41085914 eV

  energy without entropy =      -22.41085914  energy(sigma->0) =      -22.41085914


--------------------------------------------------------------------------------------------------------




--------------------------------------- Iteration      1(   3)  ---------------------------------------


     EDDAV:  cpu time      0.4531: real time      0.4556
       DOS:  cpu time      0.0009: real time      0.0009
    --------------------------------------------
      LOOP:  cpu time      0.4540: real time      0.4565

 eigenvalue-minimisations  :  3200
 total energy-change (2. order) :-0.1141280E+02  (-0.1138207E+02)
 number of electron      40.0000000 magnetization 
 augmentation part       40.0000000 magnetization 

 Free energy of the ion-electron system (eV)
  ---------------------------------------------------
  alpha Z        PSCENC =        87.52689448
  Ewald energy   TEWEN  =     -1414.71124948
  -Hartree energ DENC   =      -131.97865627
  -exchange      EXHF   =         0.00000000
  -V(xc)+E(xc)   XCENC  =       -33.31718702
  PAW double counting   =      1193.78262552    -1080.73714043
  entropy T*S    EENTRO =        -0.00000000
  eigenvalues    EBANDS =      -102.88355380
  atomic energy  EATOM  =      1448.49460871
  Solvation  Ediel_sol  =         0.00000000
  ---------------------------------------------------
  free energy    TOTEN  =       -33.82365830 eV

  energy without entropy =      -33.82365830  energy(sigma->0) =      -33.82365830


--------------------------------------------------------------------------------------------------------




--------------------------------------- Iteration      1(   4)  ---------------------------------------


     EDDAV:  cpu time      0.4391: real time      0.4414
       DOS:  cpu time      0.0006: real time      0.0006
    --------------------------------------------
      LOOP:  cpu time      0.4396: real time      0.4419

 eigenvalue-minimisations  :  3264
 total energy-change (2. order) :-0.8934938E-01  (-0.8933194E-01)
 number of electron      40.0000000 magnetization 
 augmentation part       40.0000000 magnetization 

 Free energy of the ion-electron system (eV)
  ---------------------------------------------------
  alpha Z        PSCENC =        87.52689448
  Ewald energy   TEWEN  =     -1414.71124948
  -Hartree energ DENC   =      -131.97865627
  -exchange      EXHF   =         0.00000000
  -V(xc)+E(xc)   XCENC  =       -33.31718702
  PAW double counting   =      1193.78262552    -1080.73714043
  entropy T*S    EENTRO =        -0.00000000
  eigenvalues    EBANDS =      -102.97290318
  atomic energy  EATOM  =      1448.49460871
  Solvation  Ediel_sol  =         0.00000000
  ---------------------------------------------------
  free energy    TOTEN  =       -33.91300768 eV

  energy without entropy =      -33.91300768  energy(sigma->0) =      -33.91300768


--------------------------------------------------------------------------------------------------------




--------------------------------------- Iteration      1(   5)  ---------------------------------------


     EDDAV:  cpu time      0.4739: real time      0.4760
       DOS:  cpu time      0.0005: real time      0.0005
    CHARGE:  cpu time      0.0098: real time      0.0098
    MIXING:  cpu time      0.0009: real time      0.0009
    --------------------------------------------
      LOOP:  cpu time      0.4852: real time      0.4873

 eigenvalue-minimisations  :  3184
 total energy-change (2. order) :-0.5589243E-03  (-0.5589145E-03)
 number of electron      39.9999997 magnetization 
 augmentation part       -7.4408561 magnetization 

 Broyden mixing:
  rms(total) = 0.65324E+00    rms(broyden)= 0.65324E+00
  rms(prec ) = 0.73777E+00
  weight for this iteration     100.00

 Free energy of the ion-electron system (eV)
  ---------------------------------------------------
  alpha Z        PSCENC =        87.52689448
  Ewald energy   TEWEN  =     -1414.71124948
  -Hartree energ DENC   =      -131.97865627
  -exchange      EXHF   =         0.00000000
  -V(xc)+E(xc)   XCENC  =       -33.31718702
  PAW double counting   =      1193.78262552    -1080.73714043
  entropy T*S    EENTRO =        -0.00000000
  eigenvalues    EBANDS =      -102.97346211
  atomic energy  EATOM  =      1448.49460871
  Solvation  Ediel_sol  =         0.00000000
  ---------------------------------------------------
  free energy    TOTEN  =       -33.91356661 eV

  energy without entropy =      -33.91356661  energy(sigma->0) =      -33.91356661


--------------------------------------------------------------------------------------------------------




--------------------------------------- Iteration      1(   6)  ---------------------------------------


    POTLOK:  cpu time      0.0102: real time      0.0103
    SETDIJ:  cpu time      0.2191: real time      0.2197
     EDDAV:  cpu time      0.4263: real time      0.4303
       DOS:  cpu time      0.0005: real time      0.0005
    CHARGE:  cpu time      0.0087: real time      0.0087
    MIXING:  cpu time      0.0006: real time      0.0006
    --------------------------------------------
      LOOP:  cpu time      0.6653: real time      0.6701

 eigenvalue-minimisations  :  3136
 total energy-change (2. order) : 0.3980374E+00  (-0.7810279E-01)
 number of electron      39.9999997 magnetization 
 augmentation part       -7.3827601 magnetization 

 Broyden mixing:
  rms(total) = 0.40925E+00    rms(broyden)= 0.40925E+00
  rms(prec ) = 0.43081E+00
  weight for this iteration     100.00

 eigenvalues of (default mixing * dielectric matrix)
  average eigenvalue GAMMA=   2.1973
  2.1973

 Free energy of the ion-electron system (eV)
  ---------------------------------------------------
  alpha Z        PSCENC =        87.52689448
  Ewald energy   TEWEN  =     -1414.71124948
  -Hartree energ DENC   =      -138.04169539
  -exchange      EXHF   =         0.00000000
  -V(xc)+E(xc)   XCENC  =       -32.71300234
  PAW double counting   =      1458.62888343    -1345.90691705
  entropy T*S    EENTRO =        -0.00000000
  eigenvalues    EBANDS =       -96.79305155
  atomic energy  EATOM  =      1448.49460871
  Solvation  Ediel_sol  =         0.00000000
  ---------------------------------------------------
  free energy    TOTEN  =       -33.51552920 eV

  energy without entropy =      -33.51552920  energy(sigma->0) =      -33.51552920


--------------------------------------------------------------------------------------------------------




--------------------------------------- Iteration      1(   7)  ---------------------------------------


    POTLOK:  cpu time      0.0101: real time      0.0102
    SETDIJ:  cpu time      0.2192: real time      0.2197
     EDDAV:  cpu time      0.4679: real time      0.4708
       DOS:  cpu time      0.0005: real time      0.0005
    CHARGE:  cpu time      0.0087: real time      0.0087
    MIXING:  cpu time      0.0006: real time      0.0006
    --------------------------------------------
      LOOP:  cpu time      0.7070: real time      0.7106

 eigenvalue-minimisations  :  3296
 total energy-change (2. order) : 0.1117202E-01  (-0.2453908E-01)
 number of electron      39.9999997 magnetization 
 augmentation part       -7.3657040 magnetization 

 Broyden mixing:
  rms(total) = 0.13067E+00    rms(broyden)= 0.13067E+00
  rms(prec ) = 0.13954E+00
  weight for this iteration     100.00

 eigenvalues of (default mixing * dielectric matrix)
  average eigenvalue GAMMA=   1.8199
  1.2313  2.4084

 Free energy of the ion-electron system (eV)
  ---------------------------------------------------
  alpha Z        PSCENC =        87.52689448
  Ewald energy   TEWEN  =     -1414.71124948
  -Hartree energ DENC   =      -140.89779169
  -exchange      EXHF   =         0.00000000
  -V(xc)+E(xc)   XCENC  =       -32.23607843
  PAW double counting   =      1791.03702946    -1678.56119709
  entropy T*S    EENTRO =        -0.00000000
  eigenvalues    EBANDS =       -94.15657314
  atomic energy  EATOM  =      1448.49460871
  Solvation  Ediel_sol  =         0.00000000
  ---------------------------------------------------
  free energy    TOTEN  =       -33.50435718 eV

  energy without entropy =      -33.50435718  energy(sigma->0) =      -33.50435718


--------------------------------------------------------------------------------------------------------




--------------------------------------- Iteration      1(   8)  ---------------------------------------


    POTLOK:  cpu time      0.0101: real time      0.0103
    SETDIJ:  cpu time      0.2192: real time      0.2198
     EDDAV:  cpu time      0.4324: real time      0.4343
       DOS:  cpu time      0.0005: real time      0.0005
    CHARGE:  cpu time      0.0088: real time      0.0089
    MIXING:  cpu time      0.0006: real time      0.0006
    --------------------------------------------
      LOOP:  cpu time      0.6717: real time      0.6744

 eigenvalue-minimisations  :  3024
 total energy-change (2. order) : 0.1729740E-02  (-0.2718651E-02)
 number of electron      39.9999997 magnetization 
 augmentation part       -7.3759938 magnetization 

 Broyden mixing:
  rms(total) = 0.17108E-01    rms(broyden)= 0.17108E-01
  rms(prec ) = 0.21384E-01
  weight for this iteration     100.00

 eigenvalues of (default mixing * dielectric matrix)
  average eigenvalue GAMMA=   1.7007
  2.4851  1.3085  1.3085

 Free energy of the ion-electron system (eV)
  ---------------------------------------------------
  alpha Z        PSCENC =        87.52689448
  Ewald energy   TEWEN  =     -1414.71124948
  -Hartree energ DENC   =      -140.88812389
  -exchange      EXHF   =         0.00000000
  -V(xc)+E(xc)   XCENC  =       -32.10835738
  PAW double counting   =      1930.53946046    -1818.12096718
  entropy T*S    EENTRO =        -0.00000000
  eigenvalues    EBANDS =       -94.23489316
  atomic energy  EATOM  =      1448.49460871
  Solvation  Ediel_sol  =         0.00000000
  ---------------------------------------------------
  free energy    TOTEN  =       -33.50262744 eV

  energy without entropy =      -33.50262744  energy(sigma->0) =      -33.50262744


--------------------------------------------------------------------------------------------------------




--------------------------------------- Iteration      1(   9)  ---------------------------------------


    POTLOK:  cpu time      0.0126: real time      0.0127
    SETDIJ:  cpu time      0.2163: real time      0.2218
     EDDAV:  cpu time      0.4362: real time      0.4394
       DOS:  cpu time      0.0005: real time      0.0005
    CHARGE:  cpu time      0.0086: real time      0.0087
    MIXING:  cpu time      0.0006: real time      0.0006
    --------------------------------------------
      LOOP:  cpu time      0.6748: real time      0.6837

 eigenvalue-minimisations  :  3024
 total energy-change (2. order) :-0.2328849E-03  (-0.3678955E-03)
 number of electron      39.9999997 magnetization 
 augmentation part       -7.3735136 magnetization 

 Broyden mixing:
  rms(total) = 0.62863E-02    rms(broyden)= 0.62863E-02
  rms(prec ) = 0.72861E-02
  weight for this iteration     100.00

 eigenvalues of (default mixing * dielectric matrix)
  average eigenvalue GAMMA=   1.7270
  2.2761  2.2761  1.1779  1.1779

 Free energy of the ion-electron system (eV)
  ---------------------------------------------------
  alpha Z        PSCENC =        87.52689448
  Ewald energy   TEWEN  =     -1414.71124948
  -Hartree energ DENC   =      -141.29013553
  -exchange      EXHF   =         0.00000000
  -V(xc)+E(xc)   XCENC  =       -32.07027490
  PAW double counting   =      1940.63447371    -1828.22502627
  entropy T*S    EENTRO =        -0.00000000
  eigenvalues    EBANDS =       -93.86215104
  atomic energy  EATOM  =      1448.49460871
  Solvation  Ediel_sol  =         0.00000000
  ---------------------------------------------------
  free energy    TOTEN  =       -33.50286032 eV

  energy without entropy =      -33.50286032  energy(sigma->0) =      -33.50286032


--------------------------------------------------------------------------------------------------------




--------------------------------------- Iteration      1(  10)  ---------------------------------------


    POTLOK:  cpu time      0.0111: real time      0.0113
    SETDIJ:  cpu time      0.2169: real time      0.2174
     EDDAV:  cpu time      0.4232: real time      0.4256
       DOS:  cpu time      0.0006: real time      0.0006
    CHARGE:  cpu time      0.0084: real time      0.0084
    MIXING:  cpu time      0.0006: real time      0.0006
    --------------------------------------------
      LOOP:  cpu time      0.6609: real time      0.6638

 eigenvalue-minimisations  :  3168
 total energy-change (2. order) :-0.1185072E-03  (-0.3143816E-04)
 number of electron      39.9999997 magnetization 
 augmentation part       -7.3734440 magnetization 

 Broyden mixing:
  rms(total) = 0.22565E-02    rms(broyden)= 0.22565E-02
  rms(prec ) = 0.27821E-02
  weight for this iteration     100.00

 eigenvalues of (default mixing * dielectric matrix)
  average eigenvalue GAMMA=   1.7651
  2.7117  2.4870  1.1895  1.2188  1.2188

 Free energy of the ion-electron system (eV)
  ---------------------------------------------------
  alpha Z        PSCENC =        87.52689448
  Ewald energy   TEWEN  =     -1414.71124948
  -Hartree energ DENC   =      -141.33047362
  -exchange      EXHF   =         0.00000000
  -V(xc)+E(xc)   XCENC  =       -32.06561271
  PAW double counting   =      1935.61200215    -1823.19809535
  entropy T*S    EENTRO =        -0.00000000
  eigenvalues    EBANDS =       -93.83105300
  atomic energy  EATOM  =      1448.49460871
  Solvation  Ediel_sol  =         0.00000000
  ---------------------------------------------------
  free energy    TOTEN  =       -33.50297883 eV

  energy without entropy =      -33.50297883  energy(sigma->0) =      -33.50297883


--------------------------------------------------------------------------------------------------------




--------------------------------------- Iteration      1(  11)  ---------------------------------------


    POTLOK:  cpu time      0.0100: real time      0.0101
    SETDIJ:  cpu time      0.2195: real time      0.2200
     EDDAV:  cpu time      0.4063: real time      0.4081
       DOS:  cpu time      0.0005: real time      0.0005
    CHARGE:  cpu time      0.0087: real time      0.0088
    MIXING:  cpu time      0.0006: real time      0.0006
    --------------------------------------------
      LOOP:  cpu time      0.6457: real time      0.6482

 eigenvalue-minimisations  :  2944
 total energy-change (2. order) :-0.3085796E-04  (-0.4321208E-05)
 number of electron      39.9999997 magnetization 
 augmentation part       -7.3736718 magnetization 

 Broyden mixing:
  rms(total) = 0.11841E-02    rms(broyden)= 0.11841E-02
  rms(prec ) = 0.13536E-02
  weight for this iteration     100.00

 eigenvalues of (default mixing * dielectric matrix)
  average eigenvalue GAMMA=   1.7598
  2.5293  2.5293  2.2068  1.1740  1.1740  0.9454

 Free energy of the ion-electron system (eV)
  ---------------------------------------------------
  alpha Z        PSCENC =        87.52689448
  Ewald energy   TEWEN  =     -1414.71124948
  -Hartree energ DENC   =      -141.35507462
  -exchange      EXHF   =         0.00000000
  -V(xc)+E(xc)   XCENC  =       -32.06002303
  PAW double counting   =      1936.61421068    -1824.20021023
  entropy T*S    EENTRO =        -0.00000000
  eigenvalues    EBANDS =       -93.81216619
  atomic energy  EATOM  =      1448.49460871
  Solvation  Ediel_sol  =         0.00000000
  ---------------------------------------------------
  free energy    TOTEN  =       -33.50300969 eV

  energy without entropy =      -33.50300969  energy(sigma->0) =      -33.50300969


--------------------------------------------------------------------------------------------------------




--------------------------------------- Iteration      1(  12)  ---------------------------------------


    POTLOK:  cpu time      0.0104: real time      0.0105
    SETDIJ:  cpu time      0.2189: real time      0.2194
     EDDAV:  cpu time      0.4316: real time      0.4338
       DOS:  cpu time      0.0006: real time      0.0006
    CHARGE:  cpu time      0.0086: real time      0.0087
    MIXING:  cpu time      0.0006: real time      0.0006
    --------------------------------------------
      LOOP:  cpu time      0.6707: real time      0.6736

 eigenvalue-minimisations  :  3328
 total energy-change (2. order) :-0.1316638E-05  (-0.7540176E-06)
 number of electron      39.9999997 magnetization 
 augmentation part       -7.3735887 magnetization 

 Broyden mixing:
  rms(total) = 0.24838E-03    rms(broyden)= 0.24838E-03
  rms(prec ) = 0.31022E-03
  weight for this iteration     100.00

 eigenvalues of (default mixing * dielectric matrix)
  average eigenvalue GAMMA=   1.7017
  2.9276  2.3749  2.0426  1.2631  1.0399  1.1317  1.1317

 Free energy of the ion-electron system (eV)
  ---------------------------------------------------
  alpha Z        PSCENC =        87.52689448
  Ewald energy   TEWEN  =     -1414.71124948
  -Hartree energ DENC   =      -141.36893518
  -exchange      EXHF   =         0.00000000
  -V(xc)+E(xc)   XCENC  =       -32.05870714
  PAW double counting   =      1936.10230194    -1823.68817071
  entropy T*S    EENTRO =        -0.00000000
  eigenvalues    EBANDS =       -93.79975362
  atomic energy  EATOM  =      1448.49460871
  Solvation  Ediel_sol  =         0.00000000
  ---------------------------------------------------
  free energy    TOTEN  =       -33.50301100 eV

  energy without entropy =      -33.50301100  energy(sigma->0) =      -33.50301100


--------------------------------------------------------------------------------------------------------




--------------------------------------- Iteration      1(  13)  ---------------------------------------


    POTLOK:  cpu time      0.0100: real time      0.0101
    SETDIJ:  cpu time      0.2225: real time      0.2230
     EDDAV:  cpu time      0.3199: real time      0.3213
       DOS:  cpu time      0.0006: real time      0.0006
    --------------------------------------------
      LOOP:  cpu time      0.5530: real time      0.5550

 eigenvalue-minimisations  :  1648
 total energy-change (2. order) :-0.4489621E-06  (-0.1098356E-06)
 number of electron      39.9999997 magnetization 
 augmentation part       -7.3735887 magnetization 

 Free energy of the ion-electron system (eV)
  ---------------------------------------------------
  alpha Z        PSCENC =        87.52689448
  Ewald energy   TEWEN  =     -1414.71124948
  -Hartree energ DENC   =      -141.37231778
  -exchange      EXHF   =         0.00000000
  -V(xc)+E(xc)   XCENC  =       -32.05828025
  PAW double counting   =      1936.12979329    -1823.71559161
  entropy T*S    EENTRO =        -0.00000000
  eigenvalues    EBANDS =       -93.79686880
  atomic energy  EATOM  =      1448.49460871
  Solvation  Ediel_sol  =         0.00000000
  ---------------------------------------------------
  free energy    TOTEN  =       -33.50301145 eV

  energy without entropy =      -33.50301145  energy(sigma->0) =      -33.50301145


--------------------------------------------------------------------------------------------------------




 average (electrostatic) potential at core
  the test charge radii are     1.1631  1.0808
  (the norm of the test charge is              1.0000)
       1 -33.4371       2 -33.4371       3 -33.4371       4 -33.4371       5 -54.9502
       6 -54.9502       7 -54.9502       8 -54.9502
 
 
 
 E-fermi :   3.6251     XC(G=0):  -9.2803     alpha+bet : -8.7197

 Fermi energy:         3.6250588449

 k-point     1 :       0.0000    0.0000    0.0000
  band No.  band energies     occupation 
      1     -11.0016      2.00000
      2     -10.6149      2.00000
      3      -9.7711      2.00000
      4      -9.1919      2.00000
      5      -4.6167      2.00000
      6      -4.2155      2.00000
      7      -2.6593      2.00000
      8      -2.3581      2.00000
      9      -1.9191      2.00000
     10      -0.5233      2.00000
     11       0.1541      2.00000
     12       0.2790      2.00000
     13       0.2825      2.00000
     14       0.3186      2.00000
     15       1.0462      2.00000
     16       1.5910      2.00000
     17       1.6374      2.00000
     18       2.4726      2.00000
     19       2.5082      2.00000
     20       2.8099      2.00000
     21       4.1544      0.00000
     22       5.7253      0.00000
     23       5.7994      0.00000
     24       5.9510      0.00000
     25       6.4368      0.00000
     26       7.0491      0.00000
     27       7.0872      0.00000
     28       7.3087      0.00000
     29       7.7589      0.00000
     30       8.5980      0.00000
     31       8.6415      0.00000
     32       8.9618      0.00000

 k-point     2 :       0.1667    0.0000    0.0000
  band No.  band energies     occupation 
      1     -10.8118      2.00000
      2     -10.4389      2.00000
      3      -9.6536      2.00000
      4      -9.1354      2.00000
      5      -4.8976      2.00000
      6      -4.3841      2.00000
      7      -3.1983      2.00000
      8      -2.6060      2.00000
      9      -1.8903      2.00000
     10      -0.3304      2.00000
     11      -0.1895      2.00000
     12       0.0238      2.00000
     13       0.4220      2.00000
     14       0.5622      2.00000
     15       1.1752      2.00000
     16       1.2412      2.00000
     17       1.5868      2.00000
     18       2.2592      2.00000
     19       2.6856      2.00000
     20       2.9609      2.00000
     21       4.0992      0.00000
     22       5.6126      0.00000
     23       5.7787      0.00000
     24       6.3848      0.00000
     25       6.4715      0.00000
     26       6.7409      0.00000
     27       6.8102      0.00000
     28       7.3418      0.00000
     29       7.7112      0.00000
     30       7.7810      0.00000
     31       7.8214      0.00000
     32       8.8613      0.00000

 k-point     3 :       0.3333    0.0000    0.0000
  band No.  band energies     occupation 
      1     -10.2950      2.00000
      2      -9.9706      2.00000
      3      -9.4604      2.00000
      4      -9.1276      2.00000
      5      -5.4324      2.00000
      6      -4.6950      2.00000
      7      -4.4068      2.00000
      8      -3.5722      2.00000
      9      -1.3248      2.00000
     10      -0.3127      2.00000
     11      -0.0349      2.00000
     12       0.3622      2.00000
     13       0.6986      2.00000
     14       0.9039      2.00000
     15       1.1599      2.00000
     16       1.2821      2.00000
     17       1.7246      2.00000
     18       1.8492      2.00000
     19       2.6359      2.00000
     20       2.9858      2.00000
     21       4.2359      0.00000
     22       4.2969      0.00000
     23       4.7068      0.00000
     24       5.4043      0.00000
     25       5.4665      0.00000
     26       5.9659      0.00000
     27       6.0225      0.00000
     28       6.3353      0.00000
     29       6.9612      0.00000
     30       7.2589      0.00000
     31       8.1027      0.00000
     32       9.1097      0.00000

 k-point     4 :       0.5000    0.0000    0.0000
  band No.  band energies     occupation 
      1      -9.6743      2.00000
      2      -9.6743      2.00000
      3      -9.4333      2.00000
      4      -9.4333      2.00000
      5      -5.3626      2.00000
      6      -5.3626      2.00000
      7      -4.4759      2.00000
      8      -4.4759      2.00000
      9      -0.5452      2.00000
     10      -0.5452      2.00000
     11       0.5082      2.00000
     12       0.5082      2.00000
     13       0.9224      2.00000
     14       0.9224      2.00000
     15       1.1434      2.00000
     16       1.1434      2.00000
     17       1.8149      2.00000
     18       1.8149      2.00000
     19       2.5926      2.00000
     20       2.5926      2.00000
     21       4.1879      0.00000
     22       4.1879      0.00000
     23       4.6712      0.00000
     24       4.6712      0.00000
     25       5.2046      0.00000
     26       5.2046      0.00000
     27       5.6007      0.00000
     28       5.6007      0.00000
     29       6.2474      0.00000
     30       6.2474      0.00000
     31       8.7639      0.00000
     32       8.7639      0.00000

 k-point     5 :       0.0000    0.1667    0.0000
  band No.  band energies     occupation 
      1     -10.8901      2.00000
      2     -10.5057      2.00000
      3      -9.7858      2.00000
      4      -9.2483      2.00000
      5      -4.8995      2.00000
      6      -4.3582      2.00000
      7      -3.3496      2.00000
      8      -2.6982      2.00000
      9      -1.7941      2.00000
     10      -0.0646      2.00000
     11       0.3674      2.00000
     12       0.4346      2.00000
     13       0.5109      2.00000
     14       0.7056      2.00000
     15       1.4585      2.00000
     16       1.6426      2.00000
     17       1.7906      2.00000
     18       1.9199      2.00000
     19       2.7936      2.00000
     20       3.1979      2.00000
     21       4.1351      0.00000
     22       5.2694      0.00000
     23       5.7548      0.00000
     24       5.9403      0.00000
     25       5.9802      0.00000
     26       6.6215      0.00000
     27       6.7044      0.00000
     28       7.5392      0.00000
     29       7.5627      0.00000
     30       7.9794      0.00000
     31       8.0847      0.00000
     32       9.0723      0.00000

 k-point     6 :       0.1667    0.1667    0.0000
  band No.  band energies     occupation 
      1     -10.7068      2.00000
      2     -10.3343      2.00000
      3      -9.6681      2.00000
      4      -9.1885      2.00000
      5      -4.9635      2.00000
      6      -4.5034      2.00000
      7      -3.5058      2.00000
      8      -3.0162      2.00000
      9      -1.6960      2.00000
     10      -0.8056      2.00000
     11      -0.4890      2.00000
     12       0.4684      2.00000
     13       0.7038      2.00000
     14       0.8139      2.00000
     15       1.2657      2.00000
     16       1.3432      2.00000
     17       1.9891      2.00000
     18       2.0320      2.00000
     19       2.9177      2.00000
     20       2.9258      2.00000
     21       4.2890      0.00000
     22       5.2213      0.00000
     23       5.5093      0.00000
     24       5.8752      0.00000
     25       6.2436      0.00000
     26       6.7380      0.00000
     27       7.1807      0.00000
     28       7.3831      0.00000
     29       7.4029      0.00000
     30       7.6474      0.00000
     31       7.9112      0.00000
     32       8.7706      0.00000

 k-point     7 :       0.1667   -0.1667    0.0000
  band No.  band energies     occupation 
      1     -10.7041      2.00000
      2     -10.3372      2.00000
      3      -9.6695      2.00000
      4      -9.1837      2.00000
      5      -5.0580      2.00000
      6      -4.4056      2.00000
      7      -3.5975      2.00000
      8      -2.9175      2.00000
      9      -1.6443      2.00000
     10      -0.7546      2.00000
     11      -0.4429      2.00000
     12       0.2577      2.00000
     13       0.7704      2.00000
     14       0.8361      2.00000
     15       0.9994      2.00000
     16       1.4842      2.00000
     17       1.9769      2.00000
     18       2.0563      2.00000
     19       2.7470      2.00000
     20       3.3835      2.00000
     21       4.0406      0.00000
     22       5.1661      0.00000
     23       5.5232      0.00000
     24       5.6558      0.00000
     25       6.4757      0.00000
     26       6.8305      0.00000
     27       6.9623      0.00000
     28       7.2901      0.00000
     29       7.6724      0.00000
     30       7.7349      0.00000
     31       7.9847      0.00000
     32       8.9908      0.00000

 k-point     8 :       0.3333    0.1667    0.0000
  band No.  band energies     occupation 
      1     -10.2122      2.00000
      2      -9.8855      2.00000
      3      -9.4609      2.00000
      4      -9.1582      2.00000
      5      -5.2890      2.00000
      6      -4.6953      2.00000
      7      -4.4010      2.00000
      8      -3.6912      2.00000
      9      -1.2373      2.00000
     10      -1.0442      2.00000
     11      -0.7730      2.00000
     12       0.2288      2.00000
     13       0.6385      2.00000
     14       0.8448      2.00000
     15       1.0418      2.00000
     16       1.1588      2.00000
     17       1.4181      2.00000
     18       2.0114      2.00000
     19       2.6674      2.00000
     20       2.7204      2.00000
     21       4.3482      0.00000
     22       5.0142      0.00000
     23       5.0521      0.00000
     24       5.5215      0.00000
     25       5.5238      0.00000
     26       6.1050      0.00000
     27       6.6422      0.00000
     28       7.2688      0.00000
     29       7.5222      0.00000
     30       7.7651      0.00000
     31       8.3309      0.00000
     32       8.6715      0.00000

 k-point     9 :       0.3333   -0.1667    0.0000
  band No.  band energies     occupation 
      1     -10.2042      2.00000
      2      -9.8947      2.00000
      3      -9.4723      2.00000
      4      -9.1398      2.00000
      5      -5.3938      2.00000
      6      -4.5844      2.00000
      7      -4.4299      2.00000
      8      -3.6576      2.00000
      9      -1.1883      2.00000
     10      -1.1077      2.00000
     11      -0.6085      2.00000
     12       0.1157      2.00000
     13       0.5932      2.00000
     14       0.6462      2.00000
     15       0.8850      2.00000
     16       1.4059      2.00000
     17       1.6651      2.00000
     18       1.9084      2.00000
     19       2.3125      2.00000
     20       3.2460      2.00000
     21       4.0933      0.00000
     22       4.7884      0.00000
     23       5.0213      0.00000
     24       5.4011      0.00000
     25       5.7294      0.00000
     26       6.3912      0.00000
     27       6.7633      0.00000
     28       7.0677      0.00000
     29       7.6173      0.00000
     30       7.6527      0.00000
     31       8.4682      0.00000
     32       8.7963      0.00000

 k-point    10 :       0.5000    0.1667    0.0000
  band No.  band energies     occupation 
      1      -9.6428      2.00000
      2      -9.6221      2.00000
      3      -9.4127      2.00000
      4      -9.3871      2.00000
      5      -5.2839      2.00000
      6      -5.2356      2.00000
      7      -4.4581      2.00000
      8      -4.4049      2.00000
      9      -0.7075      2.00000
     10      -0.6231      2.00000
     11      -0.3093      2.00000
     12      -0.1854      2.00000
     13       0.2697      2.00000
     14       0.2752      2.00000
     15       1.0829      2.00000
     16       1.1278      2.00000
     17       1.2750      2.00000
     18       1.4826      2.00000
     19       2.5660      2.00000
     20       2.9860      2.00000
     21       4.3145      0.00000
     22       4.4591      0.00000
     23       5.2284      0.00000
     24       5.5772      0.00000
     25       5.7606      0.00000
     26       5.9348      0.00000
     27       6.1590      0.00000
     28       6.4334      0.00000
     29       7.1473      0.00000
     30       7.3961      0.00000
     31       8.3109      0.00000
     32       8.5817      0.00000

 k-point    11 :       0.0000    0.3333    0.0000
  band No.  band energies     occupation 
      1     -10.5868      2.00000
      2     -10.2064      2.00000
      3      -9.8992      2.00000
      4      -9.4516      2.00000
      5      -5.2328      2.00000
      6      -4.4902      2.00000
      7      -4.3665      2.00000
      8      -3.5384      2.00000
      9      -1.3204      2.00000
     10       0.1938      2.00000
     11       0.7807      2.00000
     12       0.8202      2.00000
     13       1.0537      2.00000
     14       1.2933      2.00000
     15       1.5129      2.00000
     16       1.6665      2.00000
     17       1.9810      2.00000
     18       2.7402      2.00000
     19       2.9458      2.00000
     20       3.3747      2.00000
     21       4.1631      0.00000
     22       4.6394      0.00000
     23       5.0577      0.00000
     24       5.4422      0.00000
     25       5.8280      0.00000
     26       6.0822      0.00000
     27       6.2242      0.00000
     28       6.7563      0.00000
     29       7.0130      0.00000
     30       7.0662      0.00000
     31       8.2311      0.00000
     32       9.0876      0.00000

 k-point    12 :       0.1667    0.3333    0.0000
  band No.  band energies     occupation 
      1     -10.4208      2.00000
      2     -10.0525      2.00000
      3      -9.7739      2.00000
      4      -9.3722      2.00000
      5      -5.1271      2.00000
      6      -4.4995      2.00000
      7      -4.2966      2.00000
      8      -3.6546      2.00000
      9      -1.1825      2.00000
     10      -0.8365      2.00000
     11      -0.4817      2.00000
     12       0.2342      2.00000
     13       0.5045      2.00000
     14       0.7953      2.00000
     15       1.4771      2.00000
     16       1.5644      2.00000
     17       1.9378      2.00000
     18       2.5568      2.00000
     19       2.9485      2.00000
     20       3.0933      2.00000
     21       4.5542      0.00000
     22       5.3968      0.00000
     23       5.4234      0.00000
     24       5.6212      0.00000
     25       6.0266      0.00000
     26       6.2634      0.00000
     27       6.7848      0.00000
     28       7.2227      0.00000
     29       7.4783      0.00000
     30       7.8340      0.00000
     31       8.0872      0.00000
     32       8.6076      0.00000

 k-point    13 :       0.1667   -0.3333    0.0000
  band No.  band energies     occupation 
      1     -10.4154      2.00000
      2     -10.0587      2.00000
      3      -9.7786      2.00000
      4      -9.3631      2.00000
      5      -5.1906      2.00000
      6      -4.4435      2.00000
      7      -4.3527      2.00000
      8      -3.5767      2.00000
      9      -1.1780      2.00000
     10      -0.6870      2.00000
     11      -0.4434      2.00000
     12       0.0841      2.00000
     13       0.3516      2.00000
     14       0.6411      2.00000
     15       1.4228      2.00000
     16       1.9094      2.00000
     17       2.3589      2.00000
     18       2.3752      2.00000
     19       2.5974      2.00000
     20       3.1911      2.00000
     21       4.4949      0.00000
     22       5.0655      0.00000
     23       5.5016      0.00000
     24       5.6620      0.00000
     25       5.9658      0.00000
     26       6.6791      0.00000
     27       6.7026      0.00000
     28       7.1522      0.00000
     29       7.3133      0.00000
     30       7.9497      0.00000
     31       8.2507      0.00000
     32       8.8039      0.00000

 k-point    14 :       0.3333    0.3333    0.0000
  band No.  band energies     occupation 
      1      -9.9898      2.00000
      2      -9.6703      2.00000
      3      -9.5177      2.00000
      4      -9.2555      2.00000
      5      -5.0181      2.00000
      6      -4.5856      2.00000
      7      -4.5095      2.00000
      8      -3.9774      2.00000
      9      -1.6170      2.00000
     10      -1.2034      2.00000
     11      -0.9821      2.00000
     12      -0.5339      2.00000
     13      -0.2450      2.00000
     14       0.4579      2.00000
     15       0.5859      2.00000
     16       0.7956      2.00000
     17       1.0054      2.00000
     18       2.0378      2.00000
     19       2.4243      2.00000
     20       2.7981      2.00000
     21       4.7246      0.00000
     22       5.8189      0.00000
     23       6.0292      0.00000
     24       6.0941      0.00000
     25       6.8244      0.00000
     26       6.9976      0.00000
     27       7.4745      0.00000
     28       7.4883      0.00000
     29       8.2169      0.00000
     30       8.4784      0.00000
     31       8.5316      0.00000
     32       9.3292      0.00000

 k-point    15 :       0.3333   -0.3333    0.0000
  band No.  band energies     occupation 
      1      -9.9729      2.00000
      2      -9.6906      2.00000
      3      -9.5400      2.00000
      4      -9.2237      2.00000
      5      -5.1840      2.00000
      6      -4.5287      2.00000
      7      -4.4135      2.00000
      8      -3.9393      2.00000
      9      -1.6010      2.00000
     10      -1.1180      2.00000
     11      -1.0634      2.00000
     12      -0.5176      2.00000
     13      -0.1556      2.00000
     14       0.2091      2.00000
     15       0.2487      2.00000
     16       1.2494      2.00000
     17       1.3171      2.00000
     18       1.5925      2.00000
     19       2.2410      2.00000
     20       3.3863      2.00000
     21       4.2977      0.00000
     22       5.7327      0.00000
     23       5.9466      0.00000
     24       6.1090      0.00000
     25       6.8658      0.00000
     26       7.1628      0.00000
     27       7.5024      0.00000
     28       7.8313      0.00000
     29       8.0232      0.00000
     30       8.2440      0.00000
     31       8.8187      0.00000
     32       9.1408      0.00000

 k-point    16 :       0.5000    0.3333    0.0000
  band No.  band energies     occupation 
      1      -9.5650      2.00000
      2      -9.5225      2.00000
      3      -9.3579      2.00000
      4      -9.3063      2.00000
      5      -5.0730      2.00000
      6      -4.9436      2.00000
      7      -4.4402      2.00000
      8      -4.2998      2.00000
      9      -1.2670      2.00000
     10      -1.2356      2.00000
     11      -0.8262      2.00000
     12      -0.6637      2.00000
     13      -0.5569      2.00000
     14      -0.4903      2.00000
     15       0.4180      2.00000
     16       0.4183      2.00000
     17       0.6693      2.00000
     18       1.1881      2.00000
     19       2.2307      2.00000
     20       3.1182      2.00000
     21       4.8301      0.00000
     22       5.3793      0.00000
     23       6.5475      0.00000
     24       6.8260      0.00000
     25       6.9654      0.00000
     26       7.0718      0.00000
     27       7.6400      0.00000
     28       8.0458      0.00000
     29       8.1879      0.00000
     30       8.2275      0.00000
     31       8.5210      0.00000
     32       8.7769      0.00000

 k-point    17 :       0.0000    0.5000    0.0000
  band No.  band energies     occupation 
      1     -10.1981      2.00000
      2     -10.1981      2.00000
      3      -9.8076      2.00000
      4      -9.8076      2.00000
      5      -5.0746      2.00000
      6      -5.0746      2.00000
      7      -4.2236      2.00000
      8      -4.2236      2.00000
      9      -0.5896      2.00000
     10      -0.5896      2.00000
     11       1.2180      2.00000
     12       1.2180      2.00000
     13       1.2377      2.00000
     14       1.2377      2.00000
     15       1.9029      2.00000
     16       1.9029      2.00000
     17       2.5845      2.00000
     18       2.5845      2.00000
     19       2.8986      2.00000
     20       2.8986      2.00000
     21       4.5791      0.00000
     22       4.5791      0.00000
     23       5.0995      0.00000
     24       5.0995      0.00000
     25       5.5507      0.00000
     26       5.5507      0.00000
     27       6.3411      0.00000
     28       6.3411      0.00000
     29       6.3786      0.00000
     30       6.3786      0.00000
     31       8.7694      0.00000
     32       8.7694      0.00000

 k-point    18 :       0.1667    0.5000    0.0000
  band No.  band energies     occupation 
      1     -10.0573      2.00000
      2     -10.0505      2.00000
      3      -9.6933      2.00000
      4      -9.6839      2.00000
      5      -4.9588      2.00000
      6      -4.9538      2.00000
      7      -4.1985      2.00000
      8      -4.1879      2.00000
      9      -0.6760      2.00000
     10      -0.4706      2.00000
     11      -0.2373      2.00000
     12      -0.2264      2.00000
     13       0.0042      2.00000
     14       0.3368      2.00000
     15       1.5189      2.00000
     16       1.9378      2.00000
     17       2.0422      2.00000
     18       2.6889      2.00000
     19       2.7541      2.00000
     20       3.1912      2.00000
     21       4.8021      0.00000
     22       4.8991      0.00000
     23       5.7085      0.00000
     24       5.7667      0.00000
     25       6.2221      0.00000
     26       6.3576      0.00000
     27       6.8757      0.00000
     28       6.9617      0.00000
     29       7.3607      0.00000
     30       7.6017      0.00000
     31       8.3175      0.00000
     32       8.3884      0.00000

[...]
     32       7.8931      0.00000

 k-point    32 :       0.1667    0.3333    0.5000
  band No.  band energies     occupation 
      1     -10.2888      2.00000
      2     -10.2888      2.00000
      3      -9.5209      2.00000
      4      -9.5209      2.00000
      5      -4.8629      2.00000
      6      -4.8629      2.00000
      7      -3.9960      2.00000
      8      -3.9960      2.00000
      9      -0.7240      2.00000
     10      -0.7240      2.00000
     11      -0.1621      2.00000
     12      -0.1621      2.00000
     13       0.4160      2.00000
     14       0.4160      2.00000
     15       1.6218      2.00000
     16       1.6218      2.00000
     17       2.1319      2.00000
     18       2.1319      2.00000
     19       2.7763      2.00000
     20       2.7763      2.00000
     21       5.2825      0.00000
     22       5.2825      0.00000
     23       5.7060      0.00000
     24       5.7060      0.00000
     25       6.5675      0.00000
     26       6.5675      0.00000
     27       6.7833      0.00000
     28       6.7833      0.00000
     29       7.4947      0.00000
     30       7.4947      0.00000
     31       7.9170      0.00000
     32       7.9170      0.00000

 k-point    33 :       0.1667   -0.3333    0.5000
  band No.  band energies     occupation 
      1     -10.2875      2.00000
      2     -10.2875      2.00000
      3      -9.5214      2.00000
      4      -9.5214      2.00000
      5      -4.8903      2.00000
      6      -4.8903      2.00000
      7      -3.9682      2.00000
      8      -3.9682      2.00000
      9      -0.8107      2.00000
     10      -0.8107      2.00000
     11      -0.0253      2.00000
     12      -0.0253      2.00000
     13       0.5863      2.00000
     14       0.5863      2.00000
     15       1.3502      2.00000
     16       1.3502      2.00000
     17       2.2622      2.00000
     18       2.2622      2.00000
     19       2.5753      2.00000
     20       2.5753      2.00000
     21       5.2805      0.00000
     22       5.2805      0.00000
     23       5.9466      0.00000
     24       5.9466      0.00000
     25       6.4155      0.00000
     26       6.4155      0.00000
     27       6.7452      0.00000
     28       6.7452      0.00000
     29       7.5920      0.00000
     30       7.5920      0.00000
     31       8.1879      0.00000
     32       8.1879      0.00000

 k-point    34 :       0.3333    0.3333    0.5000
  band No.  band energies     occupation 
      1      -9.8769      2.00000
      2      -9.8769      2.00000
      3      -9.3392      2.00000
      4      -9.3392      2.00000
      5      -4.8435      2.00000
      6      -4.8435      2.00000
      7      -4.2334      2.00000
      8      -4.2334      2.00000
      9      -1.4199      2.00000
     10      -1.4199      2.00000
     11      -0.7607      2.00000
     12      -0.7607      2.00000
     13       0.1015      2.00000
     14       0.1015      2.00000
     15       0.9298      2.00000
     16       0.9298      2.00000
     17       1.3342      2.00000
     18       1.3342      2.00000
     19       2.4076      2.00000
     20       2.4076      2.00000
     21       5.5703      0.00000
     22       5.5703      0.00000
     23       5.9741      0.00000
     24       5.9741      0.00000
     25       7.1376      0.00000
     26       7.1376      0.00000
     27       7.4505      0.00000
     28       7.4505      0.00000
     29       7.9527      0.00000
     30       7.9527      0.00000
     31       9.1551      0.00000
     32       9.1551      0.00000

 k-point    35 :       0.3333   -0.3333    0.5000
  band No.  band energies     occupation 
      1      -9.8746      2.00000
      2      -9.8746      2.00000
      3      -9.3407      2.00000
      4      -9.3407      2.00000
      5      -4.8911      2.00000
      6      -4.8911      2.00000
      7      -4.1805      2.00000
      8      -4.1805      2.00000
      9      -1.4795      2.00000
     10      -1.4795      2.00000
     11      -0.6572      2.00000
     12      -0.6572      2.00000
     13       0.1360      2.00000
     14       0.1360      2.00000
     15       0.9887      2.00000
     16       0.9887      2.00000
     17       1.2140      2.00000
     18       1.2140      2.00000
     19       2.2988      2.00000
     20       2.2988      2.00000
     21       5.6439      0.00000
     22       5.6439      0.00000
     23       6.0353      0.00000
     24       6.0353      0.00000
     25       7.0723      0.00000
     26       7.0723      0.00000
     27       7.7163      0.00000
     28       7.7163      0.00000
     29       7.9470      0.00000
     30       7.9470      0.00000
     31       8.8464      0.00000
     32       8.8464      0.00000

 k-point    36 :       0.5000    0.3333    0.5000
  band No.  band energies     occupation 
      1      -9.5403      2.00000
      2      -9.5403      2.00000
      3      -9.3371      2.00000
      4      -9.3371      2.00000
      5      -4.9316      2.00000
      6      -4.9316      2.00000
      7      -4.4716      2.00000
      8      -4.4716      2.00000
      9      -1.2304      2.00000
     10      -1.2304      2.00000
     11      -0.7814      2.00000
     12      -0.7814      2.00000
     13      -0.4420      2.00000
     14      -0.4420      2.00000
     15       0.2307      2.00000
     16       0.2307      2.00000
     17       1.4503      2.00000
     18       1.4503      2.00000
     19       2.0516      2.00000
     20       2.0516      2.00000
     21       5.4632      0.00000
     22       5.4632      0.00000
     23       6.7419      0.00000
     24       6.7419      0.00000
     25       6.9028      0.00000
     26       6.9028      0.00000
     27       7.8192      0.00000
     28       7.8192      0.00000
     29       8.1441      0.00000
     30       8.1441      0.00000
     31       8.7568      0.00000
     32       8.7568      0.00000

 k-point    37 :       0.0000    0.5000    0.5000
  band No.  band energies     occupation 
      1     -10.1938      2.00000
      2     -10.1938      2.00000
      3      -9.8141      2.00000
      4      -9.8141      2.00000
      5      -4.8454      2.00000
      6      -4.8454      2.00000
      7      -4.5477      2.00000
      8      -4.5477      2.00000
      9       0.1335      2.00000
     10       0.1335      2.00000
     11       0.7749      2.00000
     12       0.7749      2.00000
     13       1.2597      2.00000
     14       1.2597      2.00000
     15       1.2952      2.00000
     16       1.2952      2.00000
     17       2.7577      2.00000
     18       2.7577      2.00000
     19       2.8146      2.00000
     20       2.8146      2.00000
     21       4.6909      0.00000
     22       4.6909      0.00000
     23       4.9539      0.00000
     24       4.9539      0.00000
     25       6.2422      0.00000
     26       6.2422      0.00000
     27       6.2722      0.00000
     28       6.2722      0.00000
     29       7.1846      0.00000
     30       7.1846      0.00000
     31       7.4576      0.00000
     32       7.4576      0.00000

 k-point    38 :       0.1667    0.5000    0.5000
  band No.  band energies     occupation 
      1     -10.0497      2.00000
      2     -10.0497      2.00000
      3      -9.6948      2.00000
      4      -9.6948      2.00000
      5      -4.7331      2.00000
      6      -4.7331      2.00000
      7      -4.4922      2.00000
      8      -4.4922      2.00000
      9      -0.4794      2.00000
     10      -0.4794      2.00000
     11      -0.1104      2.00000
     12      -0.1104      2.00000
     13       0.6277      2.00000
     14       0.6277      2.00000
     15       1.0252      2.00000
     16       1.0252      2.00000
     17       2.2069      2.00000
     18       2.2069      2.00000
     19       2.7802      2.00000
     20       2.7802      2.00000
     21       5.4284      0.00000
     22       5.4284      0.00000
     23       5.8116      0.00000
     24       5.8116      0.00000
     25       6.6473      0.00000
     26       6.6473      0.00000
     27       7.0189      0.00000
     28       7.0189      0.00000
     29       7.4100      0.00000
     30       7.4100      0.00000
     31       7.7715      0.00000
     32       7.7715      0.00000

 k-point    39 :       0.3333    0.5000    0.5000
  band No.  band energies     occupation 
      1      -9.7100      2.00000
      2      -9.7100      2.00000
      3      -9.4348      2.00000
      4      -9.4348      2.00000
      5      -4.6654      2.00000
      6      -4.6654      2.00000
      7      -4.4203      2.00000
      8      -4.4203      2.00000
      9      -1.3904      2.00000
     10      -1.3904      2.00000
     11      -1.2194      2.00000
     12      -1.2194      2.00000
     13       0.1671      2.00000
     14       0.1671      2.00000
     15       0.5803      2.00000
     16       0.5803      2.00000
     17       1.3224      2.00000
     18       1.3224      2.00000
     19       2.0938      2.00000
     20       2.0938      2.00000
     21       5.7832      0.00000
     22       5.7832      0.00000
     23       6.8515      0.00000
     24       6.8515      0.00000
     25       7.3237      0.00000
     26       7.3237      0.00000
     27       7.9137      0.00000
     28       7.9137      0.00000
     29       8.4569      0.00000
     30       8.4569      0.00000
     31       9.0780      0.00000
     32       9.0780      0.00000

 k-point    40 :       0.5000    0.5000    0.5000
  band No.  band energies     occupation 
      1      -9.4964      2.00000
      2      -9.4964      2.00000
      3      -9.2989      2.00000
      4      -9.2989      2.00000
      5      -4.8126      2.00000
      6      -4.8126      2.00000
      7      -4.4036      2.00000
      8      -4.4036      2.00000
      9      -1.5277      2.00000
     10      -1.5277      2.00000
     11      -0.9832      2.00000
     12      -0.9832      2.00000
     13      -0.7943      2.00000
     14      -0.7943      2.00000
     15      -0.1769      2.00000
     16      -0.1769      2.00000
     17       1.5141      2.00000
     18       1.5141      2.00000
     19       2.0306      2.00000
     20       2.0306      2.00000
     21       5.2960      0.00000
     22       5.2960      0.00000
     23       7.3855      0.00000
     24       7.3855      0.00000
     25       7.6897      0.00000
     26       7.6897      0.00000
     27       8.1261      0.00000
     28       8.1261      0.00000
     29       8.5513      0.00000
     30       8.5513      0.00000
     31       9.7772      0.00000
     32       9.7772      0.00000


--------------------------------------------------------------------------------------------------------


 soft charge-density along one line, spin component            1
         0         1         2         3         4         5         6         7         8         9
 total charge-density along one line
 
 pseudopotential strength for first ion, spin component:            1
 14.501  18.092   0.045   0.042  -0.002   0.080   0.075  -0.003
 18.092  22.586   0.056   0.053  -0.002   0.102   0.095  -0.004
  0.045   0.056   3.222  -0.003   0.000   5.484  -0.004   0.001
  0.042   0.053  -0.003   3.221   0.000  -0.004   5.483   0.000
 -0.002  -0.002   0.000   0.000   3.223   0.001   0.000   5.486
  0.080   0.102   5.484  -0.004   0.001   9.392  -0.007   0.001
  0.075   0.095  -0.004   5.483   0.000  -0.007   9.390   0.001
 -0.003  -0.004   0.001   0.000   5.486   0.001   0.001   9.396
  0.001   0.001  -0.000  -0.000   0.008  -0.001  -0.000   0.015
 -0.005  -0.007   0.011   0.014  -0.000   0.019   0.025  -0.000
 -0.002  -0.002  -0.004   0.011   0.000  -0.008   0.020   0.001
  0.001   0.001  -0.000  -0.000   0.011  -0.000  -0.000   0.019
  0.002   0.002  -0.013   0.000  -0.000  -0.024   0.000  -0.001
 total augmentation occupancy for first ion, spin component:            1
  2.750  -0.728   0.364   0.352  -0.003  -0.067  -0.065  -0.000   0.002  -0.011   0.001   0.004   0.008
 -0.728   0.709  -0.461  -0.453   0.014   0.073   0.070  -0.002  -0.003   0.005  -0.004  -0.007  -0.005
  0.364  -0.461   1.240   0.050  -0.008  -0.203   0.003   0.001   0.001   0.044  -0.094   0.002   0.001
  0.352  -0.453   0.050   1.274  -0.003   0.002  -0.208  -0.001  -0.001  -0.011   0.091  -0.004  -0.002
 -0.003   0.014  -0.008  -0.003   1.241   0.001  -0.001  -0.214   0.147   0.000  -0.003   0.040  -0.001
 -0.067   0.073  -0.203   0.002   0.001   0.037  -0.002  -0.000  -0.000  -0.007   0.016  -0.000   0.000
 -0.065   0.070   0.003  -0.208  -0.001  -0.002   0.039   0.000  -0.000   0.002  -0.016   0.001   0.000
 -0.000  -0.002   0.001  -0.001  -0.214  -0.000   0.000   0.041  -0.026  -0.000   0.001  -0.007   0.000
  0.002  -0.003   0.001  -0.001   0.147  -0.000  -0.000  -0.026   0.031  -0.000   0.001   0.003   0.000
 -0.011   0.005   0.044  -0.011   0.000  -0.007   0.002  -0.000  -0.000   0.012  -0.008  -0.001   0.001
  0.001  -0.004  -0.094   0.091  -0.003   0.016  -0.016   0.001   0.001  -0.008   0.032   0.002  -0.002
  0.004  -0.007   0.002  -0.004   0.040  -0.000   0.001  -0.007   0.003  -0.001   0.002   0.010   0.000
  0.008  -0.005   0.001  -0.002  -0.001   0.000   0.000   0.000   0.000   0.001  -0.002   0.000   0.008


------------------------ aborting loop because EDIFF is reached ----------------------------------------


    CHARGE:  cpu time      0.0084: real time      0.0084
    FORLOC:  cpu time      0.0004: real time      0.0004
    FORNL :  cpu time      0.0686: real time      0.0691
    STRESS:  cpu time      0.4448: real time      0.4464
    FORCOR:  cpu time      0.0090: real time      0.0091
    FORHAR:  cpu time      0.0022: real time      0.0022
    MIXING:  cpu time      0.0016: real time      0.0016
    OFIELD:  cpu time      0.0000: real time      0.0000

  FORCE on cell =-STRESS in cart. coord.  units (eV):
  Direction    XX          YY          ZZ          XY          YZ          ZX
  --------------------------------------------------------------------------------------
  Alpha Z    87.52689    87.52689    87.52689
  Ewald    -435.92071  -505.51823  -473.27388    -6.44548     0.00000     0.00000
  Hartree    65.74745    33.83712    41.79241    -2.97679     0.00000     0.00000
  E(xc)    -141.35986  -141.42906  -141.36702    -0.03163    -0.00000     0.00000
  Local    -194.50749  -100.12693  -141.28711     9.86378    -0.00000    -0.00000
  n-local   240.82442   240.49278   241.54153    -0.15430     0.00000    -0.00000
  augment   -11.27930   -11.79826   -11.99387     0.02218     0.00000     0.00000
  Kinetic   389.92351   398.20636   401.71292    -0.03122    -0.00000     0.00000
  Fock        0.00000     0.00000     0.00000     0.00000     0.00000     0.00000
  -------------------------------------------------------------------------------------
  Total       0.95491     1.19068     4.65186     0.24654    -0.00000     0.00000
  in kB       7.90294     9.85416    38.49917     2.04035    -0.00000     0.00000
  external pressure =       18.75 kB  Pullay stress =        0.00 kB


 VOLUME and BASIS-vectors are now :
 -----------------------------------------------------------------------------
  energy-cutoff  :      520.00
  volume of cell :      193.59
      direct lattice vectors                 reciprocal lattice vectors
     3.858100176  0.000000000  0.000000000     0.259194929  0.000000000  0.000000000
     0.000000000  4.526575088  0.000000000     0.000000000  0.220917577  0.000000000
     0.000000000  0.000000000 11.085176468     0.000000000  0.000000000  0.090210562

  length of vectors
     3.858100176  4.526575088 11.085176468     0.259194929  0.220917577  0.090210562


 FORCES acting on ions
    electron-ion (+dipol)            ewald-force                    non-local-force                 convergence-correction
 -----------------------------------------------------------------------------------------------
   -.921E+00 0.183E+02 0.241E+02   0.107E+01 -.211E+02 -.267E+02   -.203E+00 0.263E+01 0.268E+01   0.441E-04 -.258E-03 -.665E-03
   -.921E+00 0.183E+02 -.241E+02   0.107E+01 -.211E+02 0.267E+02   -.203E+00 0.263E+01 -.268E+01   0.442E-04 -.258E-03 0.664E-03
   0.921E+00 -.183E+02 -.241E+02   -.107E+01 0.211E+02 0.267E+02   0.203E+00 -.263E+01 -.268E+01   -.444E-04 0.259E-03 0.666E-03
   0.921E+00 -.183E+02 0.241E+02   -.107E+01 0.211E+02 -.267E+02   0.203E+00 -.263E+01 0.268E+01   -.442E-04 0.259E-03 -.666E-03
   -.513E+00 -.182E+02 -.217E+02   0.603E+00 0.198E+02 0.231E+02   0.149E-01 -.148E+01 -.136E+01   -.697E-04 0.196E-03 0.959E-03
   -.513E+00 -.182E+02 0.217E+02   0.603E+00 0.198E+02 -.231E+02   0.149E-01 -.148E+01 0.136E+01   -.695E-04 0.196E-03 -.960E-03
   0.513E+00 0.182E+02 0.217E+02   -.603E+00 -.198E+02 -.231E+02   -.149E-01 0.148E+01 0.136E+01   0.699E-04 -.196E-03 -.959E-03
   0.513E+00 0.182E+02 -.217E+02   -.603E+00 -.198E+02 0.231E+02   -.149E-01 0.148E+01 -.136E+01   0.704E-04 -.197E-03 0.960E-03
 -----------------------------------------------------------------------------------------------
   -.103E-05 0.299E-05 0.645E-06   -.333E-14 0.000E+00 -.178E-13   -.475E-04 0.284E-03 0.163E-06   0.777E-06 0.116E-05 -.103E-06
 
 
 POSITION                                       TOTAL-FORCE (eV/Angst)
 -----------------------------------------------------------------------------------
      1.97099      1.76302      1.36328        -0.052126     -0.218001      0.122178
      0.04194      4.02631      4.17930        -0.052126     -0.218001     -0.122177
      2.89358      4.01000      9.72189         0.052136      0.217869     -0.122200
      0.96453      1.74671      6.90587         0.052136      0.217869      0.122201
      1.97099      1.21616      3.90621         0.104773      0.113033      0.110092
      0.04194      3.47945      1.63637         0.104774      0.113033     -0.110092
      2.89358      0.03028      7.17896        -0.104783     -0.112901     -0.110102
      0.96453      2.29357      9.44880        -0.104783     -0.112901      0.110101
 -----------------------------------------------------------------------------------
    total drift:                               -0.000048      0.000288      0.000001


--------------------------------------------------------------------------------------------------------



  FREE ENERGIE OF THE ION-ELECTRON SYSTEM (eV)
  ---------------------------------------------------
  free  energy   TOTEN  =       -33.50301145 eV

  energy  without entropy=      -33.50301145  energy(sigma->0) =      -33.50301145
 


--------------------------------------------------------------------------------------------------------


    POTLOK:  cpu time      0.2302: real time      0.2309


--------------------------------------------------------------------------------------------------------


     LOOP+:  cpu time      8.6705: real time      8.7190
    4ORBIT:  cpu time      0.0000: real time      0.0000

 total amount of memory used by VASP MPI-rank0    41770. kBytes
=======================================================================

   base      :      30000. kBytes
   nonl-proj :       9056. kBytes
   fftplans  :        519. kBytes
   grid      :        766. kBytes
   one-center:         16. kBytes
   wavefun   :       1413. kBytes
 
  
  
 General timing and accounting informations for this job:
 ========================================================
  
                  Total CPU time used (sec):       10.470
                            User time (sec):       10.160
                          System time (sec):        0.310
                         Elapsed time (sec):       10.768
  
                   Maximum memory used (kb):      178488.
                   Average memory used (kb):          N/A
  
                          Minor page faults:        24504
                          Major page faults:           50
                 Voluntary context switches:         1619
