 running  160 mpi-ranks, with    1 threads/rank, on   10 nodes
 distrk:  each k-point on   80 cores,    2 groups
 distr:  one band on    5 cores,   16 groups
 vasp.6.4.2 20Jul23 (build Oct 12 2023 10:31:02) complex                         
 POSCAR found type information on POSCAR GeSe
 POSCAR found :  2 types and       8 ions
 Reading from existing POTCAR
 scaLAPACK will be used
 Reading from existing POTCAR
 LDA part: xc-table for Pade appr. of Perdew
 POSCAR, INCAR and KPOINTS ok, starting setup
 FFT: planning ... GRIDC
 FFT: planning ... GRID_SOFT
 FFT: planning ... GRID
 WAVECAR not read
 entering main loop
       N       E                     dE             d eps       ncg     rms          rms(c)
DAV:   1     0.163511895462E+03    0.16351E+03   -0.15903E+04  2560   0.104E+03
DAV:   2    -0.222163272801E+02   -0.18573E+03   -0.18030E+03  3664   0.155E+02
DAV:   3    -0.337332860071E+02   -0.11517E+02   -0.11485E+02  3392   0.445E+01
DAV:   4    -0.338226669874E+02   -0.89381E-01   -0.89368E-01  3072   0.445E+00
DAV:   5    -0.338232726738E+02   -0.60569E-03   -0.60567E-03  3424   0.374E-01    0.658E+00
DAV:   6    -0.334240055946E+02    0.39927E+00   -0.78406E-01  3056   0.300E+00    0.411E+00
DAV:   7    -0.334168433222E+02    0.71623E-02   -0.25596E-01  3392   0.177E+00    0.130E+00
DAV:   8    -0.334154003320E+02    0.14430E-02   -0.29957E-02  2832   0.652E-01    0.167E-01
DAV:   9    -0.334157121803E+02   -0.31185E-03   -0.38086E-03  3120   0.274E-01    0.639E-02
DAV:  10    -0.334158789334E+02   -0.16675E-03   -0.33804E-04  3168   0.808E-02    0.239E-02
DAV:  11    -0.334159261228E+02   -0.47189E-04   -0.55788E-05  3040   0.331E-02    0.117E-02
DAV:  12    -0.334159293054E+02   -0.31826E-05   -0.92947E-06  3440   0.123E-02    0.251E-03
DAV:  13    -0.334159299423E+02   -0.63689E-06   -0.13629E-06  2256   0.506E-03
   1 F= -.33415930E+02 E0= -.33415930E+02  d E =-.251788E-13
