 running  256 mpi-ranks, with    1 threads/rank, on    7 nodes
 distrk:  each k-point on  128 cores,    2 groups
 distr:  one band on    4 cores,   32 groups
 vasp.6.4.1 05Apr23 (build May 18 2023 13:19:41) complex                         
 POSCAR found type information on POSCAR C S O 
 POSCAR found :  3 types and     368 ions
 Reading from existing POTCAR
 scaLAPACK will be used
 Reading from existing POTCAR
 -----------------------------------------------------------------------------
|                                                                             |
|               ----> ADVICE to this user running VASP <----                  |
|                                                                             |
|     You have a (more or less) 'large supercell' and for larger cells it     |
|     might be more efficient to use real-space projection operators.         |
|     Therefore, try LREAL= Auto in the INCAR file.                           |
|     Mind: If you want to do very accurate calculations, keep the            |
|     reciprocal projection scheme (i.e. LREAL=.FALSE.).                      |
|                                                                             |
 -----------------------------------------------------------------------------

 LDA part: xc-table for Pade appr. of Perdew
 POSCAR, INCAR and KPOINTS ok, starting setup
 FFT: planning ... GRIDC
 FFT: planning ... GRID_SOFT
 FFT: planning ... GRID
 WAVECAR not read
 charge-density read from file: 01_AOPT                                 
 WARNING: random wavefunctions but no delay for mixing, default for NELMDL
 entering main loop
       N       E                     dE             d eps       ncg     rms          rms(c)
DAV:   1     0.114304777831E+05    0.11430E+05   -0.41933E+05  4288   0.942E+02
DAV:   2     0.438742827695E+03   -0.10992E+05   -0.10252E+05  5568   0.214E+02
DAV:   3    -0.301687833434E+04   -0.34556E+04   -0.33126E+04  4608   0.116E+02
DAV:   4    -0.332033587773E+04   -0.30346E+03   -0.29785E+03  4480   0.391E+01
DAV:   5    -0.333147085327E+04   -0.11135E+02   -0.10861E+02  5056   0.689E+00    0.147E-01
DAV:   6    -0.333177438696E+04   -0.30353E+00   -0.29912E+00  4608   0.113E+00    0.479E-02
DAV:   7    -0.333179133120E+04   -0.16944E-01   -0.16841E-01  4864   0.244E-01    0.387E-02
DAV:   8    -0.333179171413E+04   -0.38293E-03   -0.41339E-03  4736   0.465E-02    0.303E-02
DAV:   9    -0.333179170824E+04    0.58913E-05   -0.21300E-04  4576   0.105E-02    0.219E-02
DAV:  10    -0.333179169511E+04    0.13125E-04   -0.15504E-05  4416   0.411E-03    0.149E-02
DAV:  11    -0.333179168409E+04    0.11016E-04   -0.38518E-06  3648   0.248E-03    0.909E-03
DAV:  12    -0.333179167066E+04    0.13430E-04   -0.38774E-06  3520   0.246E-03    0.225E-03
DAV:  13    -0.333179166747E+04    0.31905E-05   -0.96848E-07  2944   0.111E-03    0.971E-04
DAV:  14    -0.333179166666E+04    0.81793E-06   -0.34265E-08  2496   0.462E-04
   1 F= -.33460212E+04 E0= -.33460212E+04  d E =-.334602E+04
 BRION: g(F)=  0.120E-02 g(S)=  0.000E+00
 bond charge predicted
       N       E                     dE             d eps       ncg     rms          rms(c)
DAV:   1    -0.333179288104E+04   -0.12136E-02   -0.26493E-01  3904   0.249E-01    0.724E-02
DAV:   2    -0.333179320544E+04   -0.32440E-03   -0.40206E-03  4032   0.242E-02    0.527E-02
DAV:   3    -0.333179320762E+04   -0.21808E-05   -0.57902E-05  3968   0.424E-03    0.360E-02
DAV:   4    -0.333179323855E+04   -0.30924E-04   -0.47155E-05  3648   0.430E-03    0.946E-03
DAV:   5    -0.333179324188E+04   -0.33336E-05   -0.97416E-06  3456   0.206E-03    0.687E-03
DAV:   6    -0.333179324184E+04    0.42724E-07   -0.16363E-06  3104   0.117E-03
   2 F= -.33460222E+04 E0= -.33460222E+04  d E =-.105223E-02
 BRION: g(F)=  0.244E-02 g(S)=  0.000E+00 retain N=  1 mean eig= 0.21
 eig:   0.212
 bond charge predicted
       N       E                     dE             d eps       ncg     rms          rms(c)
DAV:   1    -0.333179357871E+04   -0.33683E-03   -0.12094E-02  3776   0.507E-02    0.276E-02
DAV:   2    -0.333179360178E+04   -0.23073E-04   -0.33721E-04  3776   0.711E-03    0.230E-02
DAV:   3    -0.333179359671E+04    0.50672E-05   -0.12767E-05  3328   0.199E-03    0.136E-02
DAV:   4    -0.333179359538E+04    0.13351E-05   -0.42970E-06  3072   0.136E-03    0.497E-03
DAV:   5    -0.333179359592E+04   -0.54191E-06   -0.17935E-06  3008   0.866E-04
   3 F= -.33460225E+04 E0= -.33460225E+04  d E =-.270032E-03
 BRION: g(F)=  0.110E-02 g(S)=  0.000E+00 retain N=  1 mean eig= 0.13
 eig:   0.135
 bond charge predicted
       N       E                     dE             d eps       ncg     rms          rms(c)
DAV:   1    -0.333179484477E+04   -0.12494E-02   -0.22853E-01  3776   0.231E-01    0.648E-02
DAV:   2    -0.333179510132E+04   -0.25655E-03   -0.31873E-03  3776   0.214E-02    0.455E-02
DAV:   3    -0.333179510833E+04   -0.70113E-05   -0.41282E-05  4096   0.367E-03    0.311E-02
DAV:   4    -0.333179514051E+04   -0.32183E-04   -0.36876E-05  3424   0.395E-03    0.827E-03
DAV:   5    -0.333179514107E+04   -0.55414E-06   -0.78863E-06  3296   0.199E-03
   4 F= -.33460236E+04 E0= -.33460236E+04  d E =-.104939E-02
 BRION: g(F)=  0.102E-02 g(S)=  0.000E+00 retain N=  1 mean eig= 1.13
 eig:   1.132
 bond charge predicted
       N       E                     dE             d eps       ncg     rms          rms(c)
DAV:   1    -0.333179652897E+04   -0.13885E-02   -0.37384E-01  3712   0.294E-01    0.852E-02
DAV:   2    -0.333179696462E+04   -0.43565E-03   -0.54060E-03  3808   0.280E-02    0.601E-02
DAV:   3    -0.333179697707E+04   -0.12451E-04   -0.70422E-05  4192   0.476E-03    0.412E-02
DAV:   4    -0.333179703022E+04   -0.53156E-04   -0.60557E-05  3456   0.500E-03    0.108E-02
DAV:   5    -0.333179703159E+04   -0.13630E-05   -0.12957E-05  3328   0.250E-03    0.755E-03
DAV:   6    -0.333179703188E+04   -0.29383E-06   -0.21365E-06  2976   0.127E-03
   5 F= -.33460248E+04 E0= -.33460248E+04  d E =-.125124E-02
 BRION: g(F)=  0.163E-02 g(S)=  0.000E+00 retain N=  1 mean eig= 0.09
 eig:   0.088
 bond charge predicted
       N       E                     dE             d eps       ncg     rms          rms(c)
DAV:   1    -0.333179683196E+04    0.19963E-03   -0.86397E-03  3680   0.434E-02    0.211E-02
DAV:   2    -0.333179684834E+04   -0.16380E-04   -0.22605E-04  3424   0.584E-03    0.181E-02
DAV:   3    -0.333179684532E+04    0.30168E-05   -0.70305E-06  2976   0.149E-03    0.116E-02
DAV:   4    -0.333179684417E+04    0.11595E-05   -0.30343E-06  2784   0.112E-03    0.413E-03
DAV:   5    -0.333179684450E+04   -0.33109E-06   -0.13306E-06  2848   0.715E-04
   6 F= -.33460247E+04 E0= -.33460247E+04  d E =0.108424E-03
 BRION: g(F)=  0.101E-02 g(S)=  0.000E+00 retain N=  1 mean eig= 0.13
 eig:   0.131
 bond charge predicted
       N       E                     dE             d eps       ncg     rms          rms(c)
DAV:   1    -0.333179803878E+04   -0.11946E-02   -0.22797E-01  3648   0.230E-01    0.639E-02
DAV:   2    -0.333179828770E+04   -0.24892E-03   -0.31013E-03  3776   0.213E-02    0.452E-02
DAV:   3    -0.333179829314E+04   -0.54390E-05   -0.42289E-05  3936   0.372E-03    0.306E-02
DAV:   4    -0.333179832413E+04   -0.30992E-04   -0.36605E-05  3392   0.391E-03    0.844E-03
DAV:   5    -0.333179832486E+04   -0.73051E-06   -0.80107E-06  3232   0.201E-03
   7 F= -.33460257E+04 E0= -.33460257E+04  d E =-.984342E-03
 BRION: g(F)=  0.909E-03 g(S)=  0.000E+00 retain N=  2 mean eig= 0.83
 eig:   0.181  1.480
 bond charge predicted
       N       E                     dE             d eps       ncg     rms          rms(c)
DAV:   1    -0.333180003920E+04   -0.17151E-02   -0.18163E+00  3584   0.647E-01    0.181E-01
DAV:   2    -0.333180191984E+04   -0.18806E-02   -0.23838E-02  3776   0.598E-02    0.128E-01
DAV:   3    -0.333180199163E+04   -0.71787E-04   -0.32158E-04  4416   0.988E-03    0.859E-02
DAV:   4    -0.333180224439E+04   -0.25276E-03   -0.27063E-04  3712   0.104E-02    0.218E-02
DAV:   5    -0.333180224764E+04   -0.32432E-05   -0.55954E-05  3424   0.489E-03    0.165E-02
DAV:   6    -0.333180224866E+04   -0.10211E-05   -0.13426E-05  3392   0.298E-03    0.730E-03
DAV:   7    -0.333180224875E+04   -0.93249E-07   -0.26625E-06  3136   0.140E-03
   8 F= -.33460282E+04 E0= -.33460282E+04  d E =-.249996E-02
 BRION: g(F)=  0.237E-02 g(S)=  0.000E+00 retain N=  2 mean eig= 0.37
 eig:   0.369  0.369
 bond charge predicted
       N       E                     dE             d eps       ncg     rms          rms(c)
DAV:   1    -0.333180204537E+04    0.20328E-03   -0.21160E-02  3680   0.641E-02    0.416E-02
DAV:   2    -0.333180208516E+04   -0.39784E-04   -0.68762E-04  3616   0.962E-03    0.346E-02
DAV:   3    -0.333180207213E+04    0.13025E-04   -0.30157E-05  3584   0.290E-03    0.204E-02
DAV:   4    -0.333180206952E+04    0.26156E-05   -0.94875E-06  3136   0.195E-03    0.824E-03
DAV:   5    -0.333180207126E+04   -0.17405E-05   -0.48455E-06  3008   0.122E-03    0.298E-03
DAV:   6    -0.333180207125E+04    0.11642E-07   -0.82744E-07  2848   0.791E-04
   9 F= -.33460281E+04 E0= -.33460281E+04  d E =0.107558E-03
 BRION: g(F)=  0.249E-02 g(S)=  0.000E+00 retain N=  2 mean eig= 3.51
 eig:   0.104  6.909
 bond charge predicted
       N       E                     dE             d eps       ncg     rms          rms(c)
DAV:   1    -0.333179969146E+04    0.23798E-02   -0.43880E-01  3584   0.316E-01    0.925E-02
DAV:   2    -0.333180015471E+04   -0.46324E-03   -0.59588E-03  3744   0.300E-02    0.675E-02
DAV:   3    -0.333180016341E+04   -0.87046E-05   -0.90533E-05  4000   0.541E-03    0.444E-02
DAV:   4    -0.333180021861E+04   -0.55198E-04   -0.71405E-05  3392   0.532E-03    0.121E-02
DAV:   5    -0.333180022235E+04   -0.37475E-05   -0.14353E-05  3360   0.257E-03    0.861E-03
DAV:   6    -0.333180022248E+04   -0.12096E-06   -0.22852E-06  2976   0.135E-03
  10 F= -.33460269E+04 E0= -.33460269E+04  d E =0.115504E-02
 BRION: g(F)=  0.109E-02 g(S)=  0.000E+00 retain N=  2 mean eig= 0.10
 eig:   0.100  0.100
 bond charge predicted
       N       E                     dE             d eps       ncg     rms          rms(c)
DAV:   1    -0.333180164203E+04   -0.14197E-02   -0.49834E-01  3584   0.339E-01    0.962E-02
DAV:   2    -0.333180222266E+04   -0.58063E-03   -0.72219E-03  3776   0.317E-02    0.678E-02
DAV:   3    -0.333180223442E+04   -0.11763E-04   -0.98936E-05  4256   0.566E-03    0.466E-02
DAV:   4    -0.333180230174E+04   -0.67317E-04   -0.83835E-05  3456   0.587E-03    0.128E-02
DAV:   5    -0.333180230554E+04   -0.38081E-05   -0.17363E-05  3392   0.288E-03    0.891E-03
DAV:   6    -0.333180230596E+04   -0.41770E-06   -0.38636E-06  3008   0.168E-03
  11 F= -.33460283E+04 E0= -.33460283E+04  d E =-.135633E-02
 BRION: g(F)=  0.847E-03 g(S)=  0.000E+00 retain N=  3 mean eig= 1.53
 eig:   4.099  0.133  0.367
 bond charge predicted
       N       E                     dE             d eps       ncg     rms          rms(c)
DAV:   1    -0.333180285125E+04   -0.54570E-03   -0.44087E-02  3648   0.100E-01    0.320E-02
DAV:   2    -0.333180290966E+04   -0.58409E-04   -0.74768E-04  3744   0.103E-02    0.217E-02
DAV:   3    -0.333180291117E+04   -0.15169E-05   -0.77642E-06  3232   0.155E-03    0.153E-02
DAV:   4    -0.333180292043E+04   -0.92520E-05   -0.96618E-06  2944   0.178E-03    0.379E-03
DAV:   5    -0.333180292089E+04   -0.46031E-06   -0.16712E-06  3008   0.819E-04
  12 F= -.33460287E+04 E0= -.33460287E+04  d E =-.386920E-03
 BRION: g(F)=  0.799E-03 g(S)=  0.000E+00 retain N=  2 mean eig= 2.36
 eig:   0.103  4.625
 bond charge predicted
       N       E                     dE             d eps       ncg     rms          rms(c)
DAV:   1    -0.333180458839E+04   -0.16680E-02   -0.14373E+00  3584   0.573E-01    0.162E-01
DAV:   2    -0.333180602323E+04   -0.14348E-02   -0.18358E-02  3776   0.526E-02    0.115E-01
DAV:   3    -0.333180608083E+04   -0.57604E-04   -0.28152E-04  4448   0.997E-03    0.751E-02
DAV:   4    -0.333180627720E+04   -0.19637E-03   -0.20919E-04  3616   0.943E-03    0.218E-02
DAV:   5    -0.333180628153E+04   -0.43293E-05   -0.48191E-05  3424   0.500E-03    0.140E-02
DAV:   6    -0.333180628333E+04   -0.17997E-05   -0.93856E-06  3360   0.257E-03    0.716E-03
DAV:   7    -0.333180628331E+04    0.16764E-07   -0.17195E-06  3200   0.143E-03
  13 F= -.33460308E+04 E0= -.33460308E+04  d E =-.210607E-02
 BRION: g(F)=  0.117E-02 g(S)=  0.000E+00 retain N=  2 mean eig= 0.26
 eig:   0.368  0.151
 bond charge predicted
       N       E                     dE             d eps       ncg     rms          rms(c)
DAV:   1    -0.333180293562E+04    0.33477E-02   -0.74580E-01  3584   0.414E-01    0.120E-01
DAV:   2    -0.333180373580E+04   -0.80018E-03   -0.10131E-02  3744   0.389E-02    0.861E-02
DAV:   3    -0.333180375610E+04   -0.20303E-04   -0.15720E-04  4320   0.745E-03    0.572E-02
DAV:   4    -0.333180385392E+04   -0.97813E-04   -0.12415E-04  3488   0.724E-03    0.169E-02
DAV:   5    -0.333180385795E+04   -0.40309E-05   -0.27694E-05  3456   0.383E-03    0.106E-02
DAV:   6    -0.333180385871E+04   -0.76590E-06   -0.42353E-06  3072   0.179E-03
  14 F= -.33460293E+04 E0= -.33460293E+04  d E =0.151863E-02
 BRION: g(F)=  0.118E-02 g(S)=  0.000E+00 retain N=  2 mean eig= 0.65
 eig:   0.007  1.292
 bond charge predicted
       N       E                     dE             d eps       ncg     rms          rms(c)
DAV:   1    -0.333180512765E+04   -0.12697E-02   -0.44293E-01  3584   0.318E-01    0.931E-02
DAV:   2    -0.333180567740E+04   -0.54975E-03   -0.67420E-03  3744   0.305E-02    0.667E-02
DAV:   3    -0.333180568387E+04   -0.64747E-05   -0.84199E-05  4096   0.499E-03    0.468E-02
DAV:   4    -0.333180574554E+04   -0.61667E-04   -0.86104E-05  3392   0.569E-03    0.121E-02
DAV:   5    -0.333180574698E+04   -0.14380E-05   -0.17465E-05  3328   0.290E-03    0.814E-03
DAV:   6    -0.333180574767E+04   -0.69186E-06   -0.21958E-06  2976   0.126E-03
  15 F= -.33460304E+04 E0= -.33460304E+04  d E =-.117890E-02
 BRION: g(F)=  0.124E-02 g(S)=  0.000E+00 retain N=  2 mean eig= 0.92
 eig:   0.179  1.670
 bond charge predicted
       N       E                     dE             d eps       ncg     rms          rms(c)
DAV:   1    -0.333180631709E+04   -0.57011E-03   -0.51660E-02  3648   0.108E-01    0.344E-02
DAV:   2    -0.333180638771E+04   -0.70621E-04   -0.89258E-04  3712   0.111E-02    0.252E-02
DAV:   3    -0.333180638790E+04   -0.18254E-06   -0.13118E-05  3424   0.195E-03    0.174E-02
DAV:   4    -0.333180639507E+04   -0.71761E-05   -0.90401E-06  2912   0.185E-03    0.504E-03
DAV:   5    -0.333180639673E+04   -0.16567E-05   -0.22478E-06  3040   0.912E-04    0.321E-03
DAV:   6    -0.333180639673E+04    0.23283E-08   -0.33781E-07  2784   0.556E-04
  16 F= -.33460309E+04 E0= -.33460309E+04  d E =-.418736E-03
 BRION: g(F)=  0.673E-03 g(S)=  0.000E+00 retain N=  1 mean eig= 0.14
 eig:   0.138
 bond charge predicted
       N       E                     dE             d eps       ncg     rms          rms(c)
DAV:   1    -0.333180719664E+04   -0.79991E-03   -0.13244E-01  3584   0.173E-01    0.522E-02
DAV:   2    -0.333180734312E+04   -0.14648E-03   -0.18831E-03  3808   0.165E-02    0.373E-02
DAV:   3    -0.333180734591E+04   -0.27921E-05   -0.30812E-05  3808   0.332E-03    0.246E-02
DAV:   4    -0.333180736446E+04   -0.18554E-04   -0.21422E-05  3328   0.300E-03    0.765E-03
DAV:   5    -0.333180736618E+04   -0.17135E-05   -0.47694E-06  3168   0.161E-03    0.439E-03
DAV:   6    -0.333180736630E+04   -0.11851E-06   -0.64187E-07  2784   0.774E-04
  17 F= -.33460314E+04 E0= -.33460314E+04  d E =-.594241E-03
 BRION: g(F)=  0.915E-03 g(S)=  0.000E+00 retain N=  2 mean eig= 0.67
 eig:   0.155  1.192
 bond charge predicted
       N       E                     dE             d eps       ncg     rms          rms(c)
DAV:   1    -0.333180759239E+04   -0.22621E-03   -0.88054E-03  3712   0.440E-02    0.178E-02
DAV:   2    -0.333180760654E+04   -0.14151E-04   -0.19455E-04  3328   0.519E-03    0.146E-02
DAV:   3    -0.333180760550E+04    0.10370E-05   -0.43670E-06  2976   0.114E-03    0.978E-03
DAV:   4    -0.333180760611E+04   -0.61013E-06   -0.23958E-06  2784   0.946E-04
  18 F= -.33460316E+04 E0= -.33460316E+04  d E =-.152806E-03
 BRION: g(F)=  0.667E-03 g(S)=  0.000E+00 retain N=  1 mean eig= 0.17
 eig:   0.168
 bond charge predicted
       N       E                     dE             d eps       ncg     rms          rms(c)
DAV:   1    -0.333180837299E+04   -0.76749E-03   -0.12507E-01  3648   0.168E-01    0.498E-02
DAV:   2    -0.333180851939E+04   -0.14639E-03   -0.18502E-03  3744   0.162E-02    0.354E-02
DAV:   3    -0.333180852305E+04   -0.36650E-05   -0.23517E-05  3744   0.259E-03    0.245E-02
DAV:   4    -0.333180854346E+04   -0.20410E-04   -0.21299E-05  3232   0.277E-03    0.591E-03
DAV:   5    -0.333180854456E+04   -0.10985E-05   -0.38519E-06  2976   0.122E-03    0.463E-03
DAV:   6    -0.333180854464E+04   -0.78697E-07   -0.76853E-07  2848   0.761E-04
  19 F= -.33460322E+04 E0= -.33460322E+04  d E =-.561187E-03
 BRION: g(F)=  0.886E-03 g(S)=  0.000E+00 retain N=  2 mean eig= 0.13
 eig:   0.169  0.100
 bond charge predicted
       N       E                     dE             d eps       ncg     rms          rms(c)
DAV:   1    -0.333180875146E+04   -0.20690E-03   -0.72835E-03  3648   0.401E-02    0.179E-02
DAV:   2    -0.333180876322E+04   -0.11764E-04   -0.16938E-04  3328   0.485E-03    0.146E-02
DAV:   3    -0.333180876171E+04    0.15136E-05   -0.43884E-06  3072   0.121E-03    0.942E-03
DAV:   4    -0.333180876218E+04   -0.47206E-06   -0.23397E-06  2848   0.963E-04
  20 F= -.33460323E+04 E0= -.33460323E+04  d E =-.139532E-03
 BRION: g(F)=  0.629E-03 g(S)=  0.000E+00 retain N=  1 mean eig= 0.16
 eig:   0.156
 bond charge predicted
       N       E                     dE             d eps       ncg     rms          rms(c)
DAV:   1    -0.333180948786E+04   -0.72615E-03   -0.12049E-01  3648   0.166E-01    0.492E-02
DAV:   2    -0.333180962604E+04   -0.13819E-03   -0.17709E-03  3744   0.157E-02    0.349E-02
DAV:   3    -0.333180962910E+04   -0.30603E-05   -0.27446E-05  3776   0.304E-03    0.234E-02
DAV:   4    -0.333180964664E+04   -0.17534E-04   -0.19708E-05  3296   0.285E-03    0.694E-03
DAV:   5    -0.333180964850E+04   -0.18657E-05   -0.39667E-06  3008   0.138E-03    0.454E-03
DAV:   6    -0.333180964856E+04   -0.58673E-07   -0.89779E-07  2848   0.877E-04
  21 F= -.33460328E+04 E0= -.33460328E+04  d E =-.535169E-03
 BRION: g(F)=  0.795E-03 g(S)=  0.000E+00 retain N=  2 mean eig= 0.97
 eig:   0.133  1.804
 bond charge predicted
       N       E                     dE             d eps       ncg     rms          rms(c)
DAV:   1    -0.333180985866E+04   -0.21016E-03   -0.73039E-03  3648   0.400E-02    0.170E-02
DAV:   2    -0.333180987030E+04   -0.11638E-04   -0.15917E-04  3328   0.483E-03    0.136E-02
DAV:   3    -0.333180986940E+04    0.89582E-06   -0.34020E-06  2944   0.103E-03
  22 F= -.33460330E+04 E0= -.33460330E+04  d E =-.134441E-03
 BRION: g(F)=  0.584E-03 g(S)=  0.000E+00 retain N=  1 mean eig= 0.14
 eig:   0.143
 bond charge predicted
       N       E                     dE             d eps       ncg     rms          rms(c)
DAV:   1    -0.333181058787E+04   -0.71757E-03   -0.11220E-01  3648   0.160E-01    0.488E-02
DAV:   2    -0.333181071100E+04   -0.12313E-03   -0.16047E-03  3776   0.152E-02    0.350E-02
DAV:   3    -0.333181071578E+04   -0.47812E-05   -0.21422E-05  3744   0.249E-03    0.236E-02
DAV:   4    -0.333181073538E+04   -0.19597E-04   -0.19389E-05  3232   0.265E-03    0.593E-03
DAV:   5    -0.333181073607E+04   -0.68732E-06   -0.34361E-06  3072   0.122E-03
  23 F= -.33460335E+04 E0= -.33460335E+04  d E =-.504038E-03
 BRION: g(F)=  0.808E-03 g(S)=  0.000E+00 retain N=  2 mean eig= 0.18
 eig:   0.109  0.258
 bond charge predicted
       N       E                     dE             d eps       ncg     rms          rms(c)
DAV:   1    -0.333181092316E+04   -0.18778E-03   -0.75323E-03  3648   0.403E-02    0.176E-02
DAV:   2    -0.333181093575E+04   -0.12589E-04   -0.17822E-04  3360   0.494E-03    0.142E-02
DAV:   3    -0.333181093453E+04    0.12167E-05   -0.45139E-06  3040   0.123E-03    0.928E-03
DAV:   4    -0.333181093497E+04   -0.44238E-06   -0.23000E-06  2848   0.976E-04
  24 F= -.33460336E+04 E0= -.33460336E+04  d E =-.128049E-03
 BRION: g(F)=  0.575E-03 g(S)=  0.000E+00 retain N=  2 mean eig= 3.17
 eig:   0.166  6.166
 bond charge predicted
       N       E                     dE             d eps       ncg     rms          rms(c)
DAV:   1    -0.333181141306E+04   -0.47853E-03   -0.44190E-02  3648   0.100E-01    0.311E-02
DAV:   2    -0.333181146702E+04   -0.53958E-04   -0.68597E-04  3680   0.976E-03    0.221E-02
DAV:   3    -0.333181146810E+04   -0.10800E-05   -0.96239E-06  3456   0.182E-03    0.152E-02
DAV:   4    -0.333181147536E+04   -0.72645E-05   -0.80329E-06  2976   0.182E-03    0.430E-03
DAV:   5    -0.333181147579E+04   -0.42981E-06   -0.16325E-06  2944   0.963E-04
  25 F= -.33460339E+04 E0= -.33460339E+04  d E =-.321527E-03
 BRION: g(F)=  0.547E-03 g(S)=  0.000E+00 retain N=  2 mean eig= 1.51
 eig:   0.129  2.892
 bond charge predicted
       N       E                     dE             d eps       ncg     rms          rms(c)
DAV:   1    -0.333181197817E+04   -0.50281E-03   -0.50170E-02  3648   0.106E-01    0.315E-02
DAV:   2    -0.333181203649E+04   -0.58318E-04   -0.74061E-04  3680   0.101E-02    0.220E-02
DAV:   3    -0.333181203868E+04   -0.21904E-05   -0.86686E-06  3456   0.158E-03    0.152E-02
DAV:   4    -0.333181204733E+04   -0.86438E-05   -0.83603E-06  2848   0.179E-03    0.362E-03
DAV:   5    -0.333181204757E+04   -0.24738E-06   -0.15363E-06  2880   0.807E-04
  26 F= -.33460343E+04 E0= -.33460343E+04  d E =-.333749E-03
 BRION: g(F)=  0.528E-03 g(S)=  0.000E+00 retain N=  2 mean eig= 3.39
 eig:   0.107  6.675
 bond charge predicted
       N       E                     dE             d eps       ncg     rms          rms(c)
DAV:   1    -0.333181260654E+04   -0.55921E-03   -0.67670E-02  3648   0.123E-01    0.370E-02
DAV:   2    -0.333181268684E+04   -0.80302E-04   -0.10112E-03  3680   0.119E-02    0.263E-02
DAV:   3    -0.333181268896E+04   -0.21195E-05   -0.12579E-05  3456   0.193E-03    0.182E-02
DAV:   4    -0.333181269985E+04   -0.10885E-04   -0.11806E-05  3040   0.210E-03    0.456E-03
DAV:   5    -0.333181270022E+04   -0.36962E-06   -0.21983E-06  2912   0.993E-04
  27 F= -.33460346E+04 E0= -.33460346E+04  d E =-.374226E-03
 BRION: g(F)=  0.607E-03 g(S)=  0.000E+00 retain N=  2 mean eig= 0.28
 eig:   0.249  0.314
 bond charge predicted
       N       E                     dE             d eps       ncg     rms          rms(c)
DAV:   1    -0.333181292020E+04   -0.22036E-03   -0.98981E-03  3648   0.468E-02    0.184E-02
DAV:   2    -0.333181293554E+04   -0.15340E-04   -0.20351E-04  3328   0.530E-03    0.144E-02
DAV:   3    -0.333181293475E+04    0.79500E-06   -0.41438E-06  3040   0.121E-03
  28 F= -.33460348E+04 E0= -.33460348E+04  d E =-.136447E-03
 BRION: g(F)=  0.544E-03 g(S)=  0.000E+00 retain N=  2 mean eig= 0.33
 eig:   0.025  0.631
 bond charge predicted
       N       E                     dE             d eps       ncg     rms          rms(c)
DAV:   1    -0.333181332697E+04   -0.39143E-03   -0.32380E-02  3648   0.851E-02    0.277E-02
DAV:   2    -0.333181336684E+04   -0.39864E-04   -0.52509E-04  3616   0.849E-03    0.202E-02
DAV:   3    -0.333181336822E+04   -0.13841E-05   -0.81457E-06  3168   0.159E-03    0.137E-02
DAV:   4    -0.333181337400E+04   -0.57750E-05   -0.53260E-06  2912   0.147E-03    0.387E-03
DAV:   5    -0.333181337490E+04   -0.89977E-06   -0.12403E-06  2944   0.707E-04
  29 F= -.33460350E+04 E0= -.33460350E+04  d E =-.257009E-03
 BRION: g(F)=  0.519E-03 g(S)=  0.000E+00 retain N=  2 mean eig= 1.96
 eig:   0.156  3.756
 bond charge predicted
       N       E                     dE             d eps       ncg     rms          rms(c)
DAV:   1    -0.333181383215E+04   -0.45815E-03   -0.41921E-02  3648   0.973E-02    0.295E-02
DAV:   2    -0.333181388242E+04   -0.50269E-04   -0.63297E-04  3616   0.938E-03    0.209E-02
DAV:   3    -0.333181388397E+04   -0.15574E-05   -0.74894E-06  3424   0.151E-03    0.145E-02
DAV:   4    -0.333181389121E+04   -0.72370E-05   -0.76577E-06  2848   0.170E-03    0.372E-03
DAV:   5    -0.333181389127E+04   -0.59721E-07   -0.14791E-06  2816   0.866E-04
  30 F= -.33460353E+04 E0= -.33460353E+04  d E =-.294376E-03
 BRION: g(F)=  0.460E-03 g(S)=  0.000E+00 retain N=  1 mean eig= 0.12
 eig:   0.117
 bond charge predicted
       N       E                     dE             d eps       ncg     rms          rms(c)
DAV:   1    -0.333181441884E+04   -0.52763E-03   -0.65395E-02  3648   0.121E-01    0.366E-02
DAV:   2    -0.333181449299E+04   -0.74143E-04   -0.95539E-04  3712   0.115E-02    0.260E-02
DAV:   3    -0.333181449583E+04   -0.28465E-05   -0.12549E-05  3488   0.197E-03    0.177E-02
DAV:   4    -0.333181450653E+04   -0.10696E-04   -0.10741E-05  3104   0.206E-03    0.465E-03
DAV:   5    -0.333181450698E+04   -0.44680E-06   -0.20702E-06  2912   0.101E-03
  31 F= -.33460357E+04 E0= -.33460357E+04  d E =-.343337E-03
 BRION: g(F)=  0.594E-03 g(S)=  0.000E+00 retain N=  2 mean eig= 0.18
 eig:   0.042  0.316
 bond charge predicted
       N       E                     dE             d eps       ncg     rms          rms(c)
DAV:   1    -0.333181467320E+04   -0.16667E-03   -0.60612E-03  3648   0.364E-02    0.145E-02
DAV:   2    -0.333181468317E+04   -0.99763E-05   -0.13274E-04  3296   0.429E-03    0.117E-02
DAV:   3    -0.333181468256E+04    0.61002E-06   -0.27279E-06  2976   0.934E-04
  32 F= -.33460358E+04 E0= -.33460358E+04  d E =-.103896E-03
 BRION: g(F)=  0.431E-03 g(S)=  0.000E+00 retain N=  2 mean eig= 3.63
 eig:   0.192  7.075
 bond charge predicted
       N       E                     dE             d eps       ncg     rms          rms(c)
DAV:   1    -0.333181527058E+04   -0.58741E-03   -0.85874E-02  3648   0.139E-01    0.430E-02
DAV:   2    -0.333181536554E+04   -0.94958E-04   -0.12411E-03  3680   0.133E-02    0.309E-02
DAV:   3    -0.333181536998E+04   -0.44430E-05   -0.17041E-05  3584   0.232E-03    0.210E-02
DAV:   4    -0.333181538595E+04   -0.15969E-04   -0.15558E-05  3168   0.246E-03    0.560E-03
DAV:   5    -0.333181538613E+04   -0.17730E-06   -0.33327E-06  2944   0.131E-03
  33 F= -.33460362E+04 E0= -.33460362E+04  d E =-.387226E-03
 BRION: g(F)=  0.609E-03 g(S)=  0.000E+00 retain N=  2 mean eig= 0.66
 eig:   0.153  1.176
 bond charge predicted
       N       E                     dE             d eps       ncg     rms          rms(c)
DAV:   1    -0.333181549524E+04   -0.10929E-03   -0.28830E-03  3456   0.248E-02    0.118E-02
DAV:   2    -0.333181550048E+04   -0.52450E-05   -0.75525E-05  3200   0.321E-03    0.963E-03
DAV:   3    -0.333181549998E+04    0.50466E-06   -0.18197E-06  2880   0.773E-04
  34 F= -.33460362E+04 E0= -.33460362E+04  d E =-.703532E-04
 BRION: g(F)=  0.398E-03 g(S)=  0.000E+00 retain N=  1 mean eig= 0.16
 eig:   0.158
 bond charge predicted
       N       E                     dE             d eps       ncg     rms          rms(c)
DAV:   1    -0.333181609154E+04   -0.59106E-03   -0.86494E-02  3648   0.139E-01    0.409E-02
DAV:   2    -0.333181618157E+04   -0.90036E-04   -0.11913E-03  3744   0.130E-02    0.289E-02
DAV:   3    -0.333181618710E+04   -0.55244E-05   -0.15491E-05  3520   0.218E-03    0.196E-02
DAV:   4    -0.333181620299E+04   -0.15889E-04   -0.13936E-05  3136   0.235E-03    0.502E-03
DAV:   5    -0.333181620317E+04   -0.17940E-06   -0.27738E-06  2912   0.112E-03
  35 F= -.33460366E+04 E0= -.33460366E+04  d E =-.387774E-03
 BRION: g(F)=  0.403E-03 g(S)=  0.000E+00 retain N=  2 mean eig= 0.10
 eig:   0.152  0.044
 bond charge predicted
       N       E                     dE             d eps       ncg     rms          rms(c)
DAV:   1    -0.333181645968E+04   -0.25669E-03   -0.14720E-02  3648   0.576E-02    0.195E-02
DAV:   2    -0.333181648011E+04   -0.20433E-04   -0.26252E-04  3360   0.599E-03    0.143E-02
DAV:   3    -0.333181648055E+04   -0.43749E-06   -0.36380E-06  3168   0.113E-03
  36 F= -.33460368E+04 E0= -.33460368E+04  d E =-.148651E-03
 BRION: g(F)=  0.437E-03 g(S)=  0.000E+00 retain N=  1 mean eig= 0.19
 eig:   0.190
 bond charge predicted
       N       E                     dE             d eps       ncg     rms          rms(c)
DAV:   1    -0.333181692843E+04   -0.44832E-03   -0.47366E-02  3648   0.103E-01    0.324E-02
DAV:   2    -0.333181698379E+04   -0.55356E-04   -0.72752E-04  3680   0.100E-02    0.229E-02
DAV:   3    -0.333181698744E+04   -0.36481E-05   -0.99612E-06  3456   0.176E-03    0.158E-02
DAV:   4    -0.333181699690E+04   -0.94608E-05   -0.73250E-06  2912   0.173E-03    0.401E-03
DAV:   5    -0.333181699763E+04   -0.72946E-06   -0.14940E-06  2880   0.803E-04
  37 F= -.33460370E+04 E0= -.33460370E+04  d E =-.287067E-03
 BRION: g(F)=  0.381E-03 g(S)=  0.000E+00 retain N=  1 mean eig= 0.12
 eig:   0.125
 bond charge predicted
       N       E                     dE             d eps       ncg     rms          rms(c)
DAV:   1    -0.333181743554E+04   -0.43864E-03   -0.48562E-02  3648   0.105E-01    0.322E-02
DAV:   2    -0.333181749474E+04   -0.59203E-04   -0.75063E-04  3680   0.102E-02    0.230E-02
DAV:   3    -0.333181749688E+04   -0.21313E-05   -0.93929E-06  3520   0.170E-03    0.161E-02
DAV:   4    -0.333181750553E+04   -0.86559E-05   -0.91786E-06  2880   0.185E-03    0.420E-03
DAV:   5    -0.333181750579E+04   -0.25472E-06   -0.17363E-06  2944   0.944E-04
  38 F= -.33460373E+04 E0= -.33460373E+04  d E =-.269388E-03
 BRION: g(F)=  0.527E-03 g(S)=  0.000E+00 retain N=  2 mean eig= 0.79
 eig:   0.182  1.390
 bond charge predicted
       N       E                     dE             d eps       ncg     rms          rms(c)
DAV:   1    -0.333181762091E+04   -0.11537E-03   -0.30897E-03  3488   0.259E-02    0.112E-02
DAV:   2    -0.333181762607E+04   -0.51603E-05   -0.72757E-05  3264   0.317E-03    0.912E-03
DAV:   3    -0.333181762572E+04    0.34540E-06   -0.16297E-06  2880   0.740E-04
  39 F= -.33460374E+04 E0= -.33460374E+04  d E =-.707702E-04
 BRION: g(F)=  0.352E-03 g(S)=  0.000E+00 retain N=  1 mean eig= 0.16
 eig:   0.165
 bond charge predicted
       N       E                     dE             d eps       ncg     rms          rms(c)
DAV:   1    -0.333181816904E+04   -0.54298E-03   -0.77406E-02  3648   0.132E-01    0.388E-02
DAV:   2    -0.333181824821E+04   -0.79165E-04   -0.10607E-03  3680   0.122E-02    0.274E-02
DAV:   3    -0.333181825417E+04   -0.59668E-05   -0.14167E-05  3520   0.212E-03    0.185E-02
DAV:   4    -0.333181826951E+04   -0.15332E-04   -0.12655E-05  3104   0.226E-03    0.488E-03
DAV:   5    -0.333181826974E+04   -0.23446E-06   -0.25430E-06  2912   0.110E-03
  40 F= -.33460377E+04 E0= -.33460377E+04  d E =-.347236E-03
 BRION: g(F)=  0.354E-03 g(S)=  0.000E+00 retain N=  2 mean eig= 0.13
 eig:   0.154  0.112
 bond charge predicted
       N       E                     dE             d eps       ncg     rms          rms(c)
DAV:   1    -0.333181853758E+04   -0.26808E-03   -0.16294E-02  3648   0.606E-02    0.196E-02
DAV:   2    -0.333181855862E+04   -0.21040E-04   -0.27238E-04  3360   0.609E-03    0.139E-02
DAV:   3    -0.333181855988E+04   -0.12557E-05   -0.31709E-06  3168   0.103E-03    0.972E-03
DAV:   4    -0.333181856328E+04   -0.34024E-05   -0.31115E-06  2784   0.112E-03    0.253E-03
DAV:   5    -0.333181856346E+04   -0.17590E-06   -0.51490E-07  2848   0.552E-04
  41 F= -.33460379E+04 E0= -.33460379E+04  d E =-.154775E-03
 BRION: g(F)=  0.398E-03 g(S)=  0.000E+00 retain N=  1 mean eig= 0.16
 eig:   0.157
 bond charge predicted
       N       E                     dE             d eps       ncg     rms          rms(c)
DAV:   1    -0.333181895151E+04   -0.38823E-03   -0.35910E-02  3648   0.900E-02    0.261E-02
DAV:   2    -0.333181899018E+04   -0.38667E-04   -0.50784E-04  3552   0.836E-03    0.183E-02
DAV:   3    -0.333181899285E+04   -0.26777E-05   -0.63402E-06  3232   0.140E-03    0.126E-02
DAV:   4    -0.333181899996E+04   -0.71103E-05   -0.57607E-06  2880   0.154E-03    0.314E-03
DAV:   5    -0.333181900022E+04   -0.25774E-06   -0.10748E-06  2816   0.689E-04
  42 F= -.33460381E+04 E0= -.33460381E+04  d E =-.235299E-03
 BRION: g(F)=  0.345E-03 g(S)=  0.000E+00 retain N=  1 mean eig= 0.15
 eig:   0.149
 bond charge predicted
       N       E                     dE             d eps       ncg     rms          rms(c)
DAV:   1    -0.333181948101E+04   -0.48105E-03   -0.66761E-02  3648   0.122E-01    0.370E-02
DAV:   2    -0.333181955599E+04   -0.74978E-04   -0.98184E-04  3712   0.117E-02    0.266E-02
DAV:   3    -0.333181955938E+04   -0.33872E-05   -0.14055E-05  3488   0.213E-03    0.181E-02
DAV:   4    -0.333181957226E+04   -0.12886E-04   -0.11710E-05  3104   0.216E-03    0.503E-03
DAV:   5    -0.333181957301E+04   -0.75065E-06   -0.23466E-06  2976   0.108E-03
  43 F= -.33460384E+04 E0= -.33460384E+04  d E =-.299310E-03
 BRION: g(F)=  0.550E-03 g(S)=  0.000E+00 retain N=  2 mean eig= 0.36
 eig:   0.247  0.478
 bond charge predicted
       N       E                     dE             d eps       ncg     rms          rms(c)
DAV:   1    -0.333181970084E+04   -0.12858E-03   -0.36617E-03  3616   0.281E-02    0.125E-02
DAV:   2    -0.333181970676E+04   -0.59194E-05   -0.86426E-05  3296   0.346E-03    0.101E-02
DAV:   3    -0.333181970654E+04    0.22107E-06   -0.19908E-06  2880   0.801E-04
  44 F= -.33460385E+04 E0= -.33460385E+04  d E =-.775517E-04
 BRION: g(F)=  0.334E-03 g(S)=  0.000E+00 retain N=  1 mean eig= 0.18
 eig:   0.175
 bond charge predicted
       N       E                     dE             d eps       ncg     rms          rms(c)
DAV:   1    -0.333182021582E+04   -0.50906E-03   -0.74457E-02  3648   0.129E-01    0.381E-02
DAV:   2    -0.333182029327E+04   -0.77456E-04   -0.10404E-03  3680   0.121E-02    0.274E-02
DAV:   3    -0.333182029843E+04   -0.51544E-05   -0.13941E-05  3424   0.199E-03    0.186E-02
DAV:   4    -0.333182031457E+04   -0.16146E-04   -0.12346E-05  2976   0.215E-03    0.462E-03
DAV:   5    -0.333182031540E+04   -0.82166E-06   -0.22978E-06  2880   0.945E-04
  45 F= -.33460388E+04 E0= -.33460388E+04  d E =-.318245E-03
 BRION: g(F)=  0.481E-03 g(S)=  0.000E+00 retain N=  2 mean eig= 0.15
 eig:   0.155  0.142
 bond charge predicted
       N       E                     dE             d eps       ncg     rms          rms(c)
DAV:   1    -0.333182041338E+04   -0.98807E-04   -0.19993E-03  3392   0.208E-02    0.997E-03
DAV:   2    -0.333182041681E+04   -0.34327E-05   -0.51697E-05  3296   0.268E-03    0.813E-03
DAV:   3    -0.333182041659E+04    0.22538E-06   -0.12539E-06  2848   0.654E-04
  46 F= -.33460389E+04 E0= -.33460389E+04  d E =-.580460E-04
 BRION: g(F)=  0.330E-03 g(S)=  0.000E+00 retain N=  1 mean eig= 0.15
 eig:   0.155
 bond charge predicted
       N       E                     dE             d eps       ncg     rms          rms(c)
DAV:   1    -0.333182094147E+04   -0.52465E-03   -0.74968E-02  3648   0.129E-01    0.382E-02
DAV:   2    -0.333182101612E+04   -0.74654E-04   -0.10009E-03  3680   0.119E-02    0.271E-02
DAV:   3    -0.333182102170E+04   -0.55784E-05   -0.14102E-05  3520   0.212E-03    0.181E-02
DAV:   4    -0.333182103785E+04   -0.16147E-04   -0.12408E-05  3136   0.222E-03    0.498E-03
DAV:   5    -0.333182103825E+04   -0.40350E-06   -0.25204E-06  2912   0.110E-03
  47 F= -.33460392E+04 E0= -.33460392E+04  d E =-.331615E-03
 BRION: g(F)=  0.332E-03 g(S)=  0.000E+00 retain N=  2 mean eig= 0.41
 eig:   0.167  0.658
 bond charge predicted
       N       E                     dE             d eps       ncg     rms          rms(c)
DAV:   1    -0.333182122637E+04   -0.18852E-03   -0.75932E-03  3648   0.410E-02    0.129E-02
DAV:   2    -0.333182123541E+04   -0.90419E-05   -0.12408E-04  3296   0.409E-03    0.853E-03
DAV:   3    -0.333182123665E+04   -0.12394E-05   -0.10640E-06  3072   0.630E-04    0.608E-03
DAV:   4    -0.333182123902E+04   -0.23660E-05   -0.13111E-06  2784   0.746E-04    0.146E-03
DAV:   5    -0.333182123900E+04    0.19209E-07   -0.17070E-07  2592   0.368E-04
  48 F= -.33460393E+04 E0= -.33460393E+04  d E =-.105780E-03
 BRION: g(F)=  0.333E-03 g(S)=  0.000E+00 retain N=  1 mean eig= 0.25
 eig:   0.250
 bond charge predicted
       N       E                     dE             d eps       ncg     rms          rms(c)
DAV:   1    -0.333182168414E+04   -0.44512E-03   -0.49105E-02  3648   0.104E-01    0.296E-02
DAV:   2    -0.333182173134E+04   -0.47200E-04   -0.63343E-04  3616   0.942E-03    0.209E-02
DAV:   3    -0.333182173531E+04   -0.39726E-05   -0.78347E-06  3360   0.150E-03    0.141E-02
DAV:   4    -0.333182174582E+04   -0.10509E-04   -0.78108E-06  2880   0.173E-03    0.360E-03
DAV:   5    -0.333182174587E+04   -0.51223E-07   -0.14740E-06  2816   0.800E-04
  49 F= -.33460396E+04 E0= -.33460396E+04  d E =-.267355E-03
 BRION: g(F)=  0.339E-03 g(S)=  0.000E+00 retain N=  2 mean eig= 0.73
 eig:   0.320  1.149
 bond charge predicted
       N       E                     dE             d eps       ncg     rms          rms(c)
DAV:   1    -0.333182190089E+04   -0.15507E-03   -0.53926E-03  3648   0.343E-02    0.121E-02
DAV:   2    -0.333182190803E+04   -0.71411E-05   -0.98941E-05  3296   0.365E-03    0.900E-03
DAV:   3    -0.333182190849E+04   -0.45891E-06   -0.13199E-06  3008   0.688E-04
  50 F= -.33460397E+04 E0= -.33460397E+04  d E =-.834867E-04
 BRION: g(F)=  0.374E-03 g(S)=  0.000E+00 retain N=  2 mean eig= 2.61
 eig:   0.057  5.155
 bond charge predicted
       N       E                     dE             d eps       ncg     rms          rms(c)
DAV:   1    -0.333182209947E+04   -0.19143E-03   -0.88788E-03  3648   0.440E-02    0.154E-02
DAV:   2    -0.333182210923E+04   -0.97631E-05   -0.14776E-04  3296   0.446E-03    0.111E-02
DAV:   3    -0.333182211010E+04   -0.87416E-06   -0.27379E-06  3072   0.101E-03
  51 F= -.33460398E+04 E0= -.33460398E+04  d E =-.110924E-03
 BRION: g(F)=  0.330E-03 g(S)=  0.000E+00 retain N=  2 mean eig= 2.78
 eig:   0.168  5.401
 bond charge predicted
       N       E                     dE             d eps       ncg     rms          rms(c)
DAV:   1    -0.333182254004E+04   -0.43081E-03   -0.46523E-02  3648   0.101E-01    0.313E-02
DAV:   2    -0.333182258767E+04   -0.47629E-04   -0.66048E-04  3648   0.950E-03    0.222E-02
DAV:   3    -0.333182259287E+04   -0.52009E-05   -0.81574E-06  3360   0.154E-03    0.152E-02
DAV:   4    -0.333182260483E+04   -0.11964E-04   -0.79399E-06  2880   0.172E-03    0.364E-03
DAV:   5    -0.333182260509E+04   -0.25518E-06   -0.13998E-06  2816   0.778E-04
  52 F= -.33460400E+04 E0= -.33460400E+04  d E =-.262208E-03
 BRION: g(F)=  0.369E-03 g(S)=  0.000E+00 retain N=  2 mean eig= 0.18
 eig:   0.148  0.207
 bond charge predicted
       N       E                     dE             d eps       ncg     rms          rms(c)
DAV:   1    -0.333182279259E+04   -0.18776E-03   -0.73801E-03  3648   0.402E-02    0.128E-02
DAV:   2    -0.333182280186E+04   -0.92732E-05   -0.12241E-04  3296   0.404E-03    0.879E-03
DAV:   3    -0.333182280265E+04   -0.79011E-06   -0.11772E-06  3104   0.647E-04
  53 F= -.33460401E+04 E0= -.33460401E+04  d E =-.103941E-03
 BRION: g(F)=  0.332E-03 g(S)=  0.000E+00 retain N=  3 mean eig= 2.36
 eig:   6.727  0.052  0.292
 bond charge predicted
       N       E                     dE             d eps       ncg     rms          rms(c)
DAV:   1    -0.333182288255E+04   -0.80689E-04   -0.11865E-03  3360   0.162E-02    0.592E-03
DAV:   2    -0.333182288373E+04   -0.11817E-05   -0.18315E-05  2976   0.165E-03    0.397E-03
DAV:   3    -0.333182288405E+04   -0.31793E-06   -0.14547E-07  2720   0.377E-04
  54 F= -.33460402E+04 E0= -.33460402E+04  d E =-.442084E-04
 BRION: g(F)=  0.331E-03 g(S)=  0.000E+00 retain N=  2 mean eig= 0.14
 eig:   0.144  0.144
 bond charge predicted
       N       E                     dE             d eps       ncg     rms          rms(c)
DAV:   1    -0.333182347632E+04   -0.59259E-03   -0.97012E-02  3584   0.146E-01    0.419E-02
DAV:   2    -0.333182356809E+04   -0.91774E-04   -0.12127E-03  3680   0.132E-02    0.298E-02
DAV:   3    -0.333182357529E+04   -0.72006E-05   -0.17355E-05  3552   0.240E-03    0.197E-02
DAV:   4    -0.333182359323E+04   -0.17932E-04   -0.15109E-05  3136   0.245E-03    0.549E-03
DAV:   5    -0.333182359344E+04   -0.21572E-06   -0.32741E-06  2944   0.126E-03
  55 F= -.33460406E+04 E0= -.33460406E+04  d E =-.376520E-03
 BRION: g(F)=  0.334E-03 g(S)=  0.000E+00 retain N=  1 mean eig= 0.22
 eig:   0.225
 bond charge predicted
       N       E                     dE             d eps       ncg     rms          rms(c)
DAV:   1    -0.333182378794E+04   -0.19471E-03   -0.88286E-03  3648   0.439E-02    0.145E-02
DAV:   2    -0.333182379981E+04   -0.11872E-04   -0.15361E-04  3296   0.457E-03    0.101E-02
DAV:   3    -0.333182380051E+04   -0.69709E-06   -0.16937E-06  3072   0.774E-04
  56 F= -.33460407E+04 E0= -.33460407E+04  d E =-.106279E-03
 BRION: g(F)=  0.359E-03 g(S)=  0.000E+00 retain N=  2 mean eig= 1.41
 eig:   0.332  2.481
 bond charge predicted
       N       E                     dE             d eps       ncg     rms          rms(c)
DAV:   1    -0.333182398326E+04   -0.18345E-03   -0.69600E-03  3648   0.389E-02    0.134E-02
DAV:   2    -0.333182399160E+04   -0.83352E-05   -0.11401E-04  3264   0.396E-03    0.973E-03
DAV:   3    -0.333182399229E+04   -0.69442E-06   -0.15867E-06  3008   0.774E-04
  57 F= -.33460408E+04 E0= -.33460408E+04  d E =-.102727E-03
 BRION: g(F)=  0.327E-03 g(S)=  0.000E+00 retain N=  2 mean eig= 0.40
 eig:   0.036  0.761
 bond charge predicted
       N       E                     dE             d eps       ncg     rms          rms(c)
DAV:   1    -0.333182440229E+04   -0.41070E-03   -0.41337E-02  3584   0.949E-02    0.292E-02
DAV:   2    -0.333182444748E+04   -0.45188E-04   -0.58738E-04  3616   0.891E-03    0.205E-02
DAV:   3    -0.333182445078E+04   -0.33005E-05   -0.72770E-06  3392   0.150E-03    0.141E-02
DAV:   4    -0.333182445971E+04   -0.89253E-05   -0.70346E-06  2912   0.167E-03    0.357E-03
DAV:   5    -0.333182445977E+04   -0.64843E-07   -0.13989E-06  2816   0.824E-04
  58 F= -.33460410E+04 E0= -.33460410E+04  d E =-.248050E-03
 BRION: g(F)=  0.328E-03 g(S)=  0.000E+00 retain N=  2 mean eig= 0.15
 eig:   0.222  0.072
 bond charge predicted
       N       E                     dE             d eps       ncg     rms          rms(c)
DAV:   1    -0.333182474394E+04   -0.28424E-03   -0.19151E-02  3584   0.645E-02    0.195E-02
DAV:   2    -0.333182476747E+04   -0.23522E-04   -0.29429E-04  3360   0.612E-03    0.133E-02
DAV:   3    -0.333182476867E+04   -0.12036E-05   -0.31507E-06  3168   0.102E-03    0.939E-03
DAV:   4    -0.333182477251E+04   -0.38361E-05   -0.33545E-06  2848   0.119E-03    0.236E-03
DAV:   5    -0.333182477255E+04   -0.43306E-07   -0.60779E-07  2784   0.565E-04
  59 F= -.33460412E+04 E0= -.33460412E+04  d E =-.165475E-03
 BRION: g(F)=  0.319E-03 g(S)=  0.000E+00 retain N=  2 mean eig= 2.91
 eig:   0.061  5.762
 bond charge predicted
       N       E                     dE             d eps       ncg     rms          rms(c)
DAV:   1    -0.333182534715E+04   -0.57465E-03   -0.92355E-02  3584   0.141E-01    0.410E-02
DAV:   2    -0.333182544248E+04   -0.95332E-04   -0.12083E-03  3680   0.128E-02    0.289E-02
DAV:   3    -0.333182544712E+04   -0.46385E-05   -0.14700E-05  3488   0.201E-03    0.196E-02
DAV:   4    -0.333182546241E+04   -0.15284E-04   -0.15070E-05  3072   0.236E-03    0.505E-03
DAV:   5    -0.333182546227E+04    0.13644E-06   -0.30653E-06  2944   0.115E-03
  60 F= -.33460415E+04 E0= -.33460415E+04  d E =-.358637E-03
 BRION: g(F)=  0.328E-03 g(S)=  0.000E+00 retain N=  2 mean eig= 1.73
 eig:   0.247  3.221
 bond charge predicted
       N       E                     dE             d eps       ncg     rms          rms(c)
DAV:   1    -0.333182622385E+04   -0.76145E-03   -0.23617E-01  3584   0.226E-01    0.669E-02
DAV:   2    -0.333182648317E+04   -0.25932E-03   -0.32350E-03  3744   0.208E-02    0.475E-02
DAV:   3    -0.333182649262E+04   -0.94435E-05   -0.43867E-05  3840   0.365E-03    0.321E-02
DAV:   4    -0.333182652721E+04   -0.34588E-04   -0.39618E-05  3328   0.389E-03    0.870E-03
DAV:   5    -0.333182652796E+04   -0.75181E-06   -0.82636E-06  3168   0.192E-03
  61 F= -.33460421E+04 E0= -.33460421E+04  d E =-.545407E-03
 BRION: g(F)=  0.545E-03 g(S)=  0.000E+00 retain N=  2 mean eig= 0.41
 eig:   0.443  0.385
 bond charge predicted
       N       E                     dE             d eps       ncg     rms          rms(c)
DAV:   1    -0.333182565169E+04    0.87551E-03   -0.10775E-01  3584   0.152E-01    0.461E-02
DAV:   2    -0.333182578828E+04   -0.13659E-03   -0.16813E-03  3680   0.149E-02    0.341E-02
DAV:   3    -0.333182578886E+04   -0.57661E-06   -0.21494E-05  3552   0.247E-03    0.243E-02
DAV:   4    -0.333182580348E+04   -0.14622E-04   -0.24946E-05  3328   0.292E-03    0.602E-03
DAV:   5    -0.333182580412E+04   -0.63423E-06   -0.45267E-06  3040   0.134E-03
  62 F= -.33460417E+04 E0= -.33460417E+04  d E =0.368505E-03
 BRION: g(F)=  0.435E-03 g(S)=  0.000E+00 retain N=  2 mean eig= 0.57
 eig:   0.077  1.069
 bond charge predicted
       N       E                     dE             d eps       ncg     rms          rms(c)
DAV:   1    -0.333182626488E+04   -0.46139E-03   -0.55906E-02  3584   0.110E-01    0.324E-02
DAV:   2    -0.333182633498E+04   -0.70102E-04   -0.84870E-04  3680   0.105E-02    0.236E-02
DAV:   3    -0.333182633508E+04   -0.10116E-06   -0.10369E-05  3424   0.171E-03    0.167E-02
DAV:   4    -0.333182634250E+04   -0.74150E-05   -0.12520E-05  2976   0.211E-03    0.424E-03
DAV:   5    -0.333182634264E+04   -0.14273E-06   -0.23224E-06  2912   0.100E-03
  63 F= -.33460420E+04 E0= -.33460420E+04  d E =-.281778E-03
 BRION: g(F)=  0.314E-03 g(S)=  0.000E+00 retain N=  2 mean eig= 1.48
 eig:   0.163  2.790
 bond charge predicted
       N       E                     dE             d eps       ncg     rms          rms(c)
DAV:   1    -0.333182681237E+04   -0.46987E-03   -0.62359E-02  3584   0.116E-01    0.348E-02
DAV:   2    -0.333182688615E+04   -0.73785E-04   -0.90920E-04  3680   0.108E-02    0.241E-02
DAV:   3    -0.333182688946E+04   -0.33100E-05   -0.99028E-06  3456   0.164E-03    0.168E-02
DAV:   4    -0.333182689994E+04   -0.10473E-04   -0.10660E-05  2816   0.196E-03    0.402E-03
DAV:   5    -0.333182689991E+04    0.29802E-07   -0.19132E-06  2880   0.880E-04
  64 F= -.33460423E+04 E0= -.33460423E+04  d E =-.284300E-03
 BRION: g(F)=  0.293E-03 g(S)=  0.000E+00 retain N=  2 mean eig= 2.09
 eig:   0.129  4.058
 bond charge predicted
       N       E                     dE             d eps       ncg     rms          rms(c)
DAV:   1    -0.333182758869E+04   -0.68875E-03   -0.18736E-01  3584   0.200E-01    0.602E-02
DAV:   2    -0.333182779989E+04   -0.21120E-03   -0.26321E-03  3776   0.186E-02    0.422E-02
DAV:   3    -0.333182780736E+04   -0.74727E-05   -0.37075E-05  3840   0.347E-03    0.286E-02
DAV:   4    -0.333182783394E+04   -0.26575E-04   -0.31317E-05  3360   0.354E-03    0.812E-03
DAV:   5    -0.333182783491E+04   -0.96776E-06   -0.66648E-06  3168   0.182E-03
  65 F= -.33460428E+04 E0= -.33460428E+04  d E =-.475706E-03
 BRION: g(F)=  0.303E-03 g(S)=  0.000E+00 retain N=  2 mean eig= 0.44
 eig:   0.445  0.445
 bond charge predicted
       N       E                     dE             d eps       ncg     rms          rms(c)
DAV:   1    -0.333182776592E+04    0.68021E-04   -0.40595E-03  3424   0.270E-02    0.187E-02
DAV:   2    -0.333182777341E+04   -0.74895E-05   -0.13683E-04  3328   0.410E-03    0.148E-02
DAV:   3    -0.333182777138E+04    0.20238E-05   -0.64310E-06  3072   0.140E-03    0.885E-03
DAV:   4    -0.333182777131E+04    0.69733E-07   -0.18612E-06  2912   0.904E-04
  66 F= -.33460427E+04 E0= -.33460427E+04  d E =0.504701E-04
 BRION: g(F)=  0.668E-03 g(S)=  0.000E+00 retain N=  3 mean eig= 2.05
 eig:   5.399  0.205  0.556
 bond charge predicted
       N       E                     dE             d eps       ncg     rms          rms(c)
DAV:   1    -0.333182849322E+04   -0.72183E-03   -0.20362E-01  3584   0.209E-01    0.617E-02
DAV:   2    -0.333182871638E+04   -0.22316E-03   -0.27779E-03  3776   0.194E-02    0.445E-02
DAV:   3    -0.333182872085E+04   -0.44685E-05   -0.38857E-05  3808   0.331E-03    0.299E-02
DAV:   4    -0.333182874675E+04   -0.25906E-04   -0.34616E-05  3328   0.357E-03    0.769E-03
DAV:   5    -0.333182874798E+04   -0.12276E-05   -0.67296E-06  3072   0.161E-03    0.584E-03
DAV:   6    -0.333182874802E+04   -0.36205E-07   -0.13097E-06  2912   0.961E-04
  67 F= -.33460432E+04 E0= -.33460432E+04  d E =-.490869E-03
 BRION: g(F)=  0.517E-03 g(S)=  0.000E+00 retain N=  3 mean eig= 1.84
 eig:   4.716  0.695  0.105
 bond charge predicted
       N       E                     dE             d eps       ncg     rms          rms(c)
DAV:   1    -0.333182815087E+04    0.59711E-03   -0.60514E-02  3584   0.114E-01    0.358E-02
DAV:   2    -0.333182822870E+04   -0.77825E-04   -0.96048E-04  3680   0.111E-02    0.265E-02
DAV:   3    -0.333182822927E+04   -0.57393E-06   -0.12828E-05  3456   0.190E-03    0.185E-02
DAV:   4    -0.333182823628E+04   -0.70082E-05   -0.12284E-05  3072   0.209E-03    0.465E-03
DAV:   5    -0.333182823698E+04   -0.70641E-06   -0.23106E-06  3008   0.976E-04
  68 F= -.33460430E+04 E0= -.33460430E+04  d E =0.244834E-03
 BRION: g(F)=  0.325E-03 g(S)=  0.000E+00 retain N=  2 mean eig= 0.20
 eig:   0.301  0.092
 bond charge predicted
       N       E                     dE             d eps       ncg     rms          rms(c)
DAV:   1    -0.333182874372E+04   -0.50745E-03   -0.92742E-02  3584   0.142E-01    0.432E-02
DAV:   2    -0.333182885302E+04   -0.10930E-03   -0.13765E-03  3680   0.133E-02    0.306E-02
DAV:   3    -0.333182885344E+04   -0.41781E-06   -0.21553E-05  3520   0.267E-03    0.207E-02
DAV:   4    -0.333182886451E+04   -0.11069E-04   -0.17670E-05  3232   0.257E-03    0.634E-03
DAV:   5    -0.333182886590E+04   -0.13862E-05   -0.34127E-06  2944   0.130E-03    0.387E-03
DAV:   6    -0.333182886599E+04   -0.96974E-07   -0.67047E-07  2816   0.758E-04
  69 F= -.33460433E+04 E0= -.33460433E+04  d E =-.316187E-03
 BRION: g(F)=  0.282E-03 g(S)=  0.000E+00 retain N=  3 mean eig= 0.38
 eig:   0.328  0.140  0.662
 bond charge predicted
       N       E                     dE             d eps       ncg     rms          rms(c)
DAV:   1    -0.333182909650E+04   -0.23060E-03   -0.13757E-02  3584   0.542E-02    0.188E-02
DAV:   2    -0.333182911455E+04   -0.18051E-04   -0.23413E-04  3296   0.551E-03    0.127E-02
DAV:   3    -0.333182911498E+04   -0.42596E-06   -0.29757E-06  3008   0.100E-03
  70 F= -.33460434E+04 E0= -.33460434E+04  d E =-.118342E-03
 BRION: g(F)=  0.239E-03 g(S)=  0.000E+00 retain N=  3 mean eig= 2.25
 eig:   6.087  0.336  0.336
 bond charge predicted
       N       E                     dE             d eps       ncg     rms          rms(c)
DAV:   1    -0.333182973009E+04   -0.61554E-03   -0.17277E-01  3584   0.192E-01    0.587E-02
DAV:   2    -0.333182992278E+04   -0.19269E-03   -0.24202E-03  3776   0.179E-02    0.421E-02
DAV:   3    -0.333182993005E+04   -0.72661E-05   -0.35069E-05  3712   0.326E-03    0.282E-02
DAV:   4    -0.333182995417E+04   -0.24123E-04   -0.27460E-05  3328   0.329E-03    0.738E-03
DAV:   5    -0.333182995566E+04   -0.14897E-05   -0.56005E-06  3008   0.149E-03    0.551E-03
DAV:   6    -0.333182995562E+04    0.35972E-07   -0.12225E-06  2880   0.953E-04
  71 F= -.33460438E+04 E0= -.33460438E+04  d E =-.393411E-03
 BRION: g(F)=  0.675E-03 g(S)=  0.000E+00 retain N=  3 mean eig= 2.63
 eig:   7.366  0.114  0.401
 bond charge predicted
       N       E                     dE             d eps       ncg     rms          rms(c)
DAV:   1    -0.333183038581E+04   -0.43015E-03   -0.61445E-02  3584   0.115E-01    0.381E-02
DAV:   2    -0.333183046825E+04   -0.82435E-04   -0.10094E-03  3712   0.115E-02    0.283E-02
DAV:   3    -0.333183046764E+04    0.61048E-06   -0.15152E-05  3424   0.216E-03    0.193E-02
DAV:   4    -0.333183047434E+04   -0.66977E-05   -0.12885E-05  3168   0.215E-03    0.532E-03
DAV:   5    -0.333183047518E+04   -0.84576E-06   -0.25050E-06  3008   0.106E-03
  72 F= -.33460440E+04 E0= -.33460440E+04  d E =-.253010E-03
 BRION: g(F)=  0.503E-03 g(S)=  0.000E+00 retain N=  3 mean eig= 2.44
 eig:   0.320  0.320  6.675
 bond charge predicted
       N       E                     dE             d eps       ncg     rms          rms(c)
DAV:   1    -0.333182942893E+04    0.10454E-02   -0.16540E-01  3584   0.188E-01    0.560E-02
DAV:   2    -0.333182962175E+04   -0.19282E-03   -0.23866E-03  3648   0.177E-02    0.404E-02
DAV:   3    -0.333182962555E+04   -0.37982E-05   -0.31811E-05  3712   0.302E-03    0.277E-02
DAV:   4    -0.333182964592E+04   -0.20366E-04   -0.29342E-05  3328   0.328E-03    0.712E-03
DAV:   5    -0.333182964706E+04   -0.11428E-05   -0.58308E-06  2944   0.148E-03    0.541E-03
DAV:   6    -0.333182964702E+04    0.38766E-07   -0.11231E-06  2848   0.868E-04
  73 F= -.33460437E+04 E0= -.33460437E+04  d E =0.386131E-03
 BRION: g(F)=  0.261E-03 g(S)=  0.000E+00 retain N=  2 mean eig= 0.12
 eig:   0.118  0.118
 bond charge predicted
       N       E                     dE             d eps       ncg     rms          rms(c)
DAV:   1    -0.333183019641E+04   -0.54935E-03   -0.10926E-01  3584   0.153E-01    0.448E-02
DAV:   2    -0.333183032709E+04   -0.13069E-03   -0.15732E-03  3712   0.142E-02    0.316E-02
DAV:   3    -0.333183032960E+04   -0.25081E-05   -0.17951E-05  3488   0.215E-03    0.222E-02
DAV:   4    -0.333183034450E+04   -0.14899E-04   -0.19987E-05  3136   0.261E-03    0.536E-03
DAV:   5    -0.333183034453E+04   -0.29919E-07   -0.33898E-06  2912   0.112E-03
  74 F= -.33460440E+04 E0= -.33460440E+04  d E =-.331876E-03
 BRION: g(F)=  0.224E-03 g(S)=  0.000E+00 retain N=  3 mean eig= 0.77
 eig:   1.889  0.112  0.318
 bond charge predicted
       N       E                     dE             d eps       ncg     rms          rms(c)
DAV:   1    -0.333183069238E+04   -0.34788E-03   -0.41633E-02  3584   0.943E-02    0.303E-02
DAV:   2    -0.333183074750E+04   -0.55116E-04   -0.68032E-04  3584   0.920E-03    0.207E-02
DAV:   3    -0.333183074891E+04   -0.14143E-05   -0.89466E-06  3456   0.175E-03    0.144E-02
DAV:   4    -0.333183075521E+04   -0.63019E-05   -0.77674E-06  2880   0.179E-03    0.418E-03
DAV:   5    -0.333183075566E+04   -0.44541E-06   -0.15412E-06  2848   0.926E-04
  75 F= -.33460442E+04 E0= -.33460442E+04  d E =-.197039E-03
 BRION: g(F)=  0.218E-03 g(S)=  0.000E+00 retain N=  3 mean eig= 2.10
 eig:   5.552  0.374  0.374
 bond charge predicted
       N       E                     dE             d eps       ncg     rms          rms(c)
DAV:   1    -0.333183158153E+04   -0.82631E-03   -0.58461E-01  3584   0.353E-01    0.104E-01
DAV:   2    -0.333183218420E+04   -0.60267E-03   -0.74945E-03  3712   0.321E-02    0.744E-02
DAV:   3    -0.333183220647E+04   -0.22271E-04   -0.10247E-04  3968   0.547E-03    0.496E-02
DAV:   4    -0.333183228518E+04   -0.78710E-04   -0.92626E-05  3328   0.589E-03    0.133E-02
DAV:   5    -0.333183228422E+04    0.95752E-06   -0.21535E-05  3360   0.312E-03    0.852E-03
DAV:   6    -0.333183228491E+04   -0.68860E-06   -0.28846E-06  3072   0.135E-03
  76 F= -.33460449E+04 E0= -.33460449E+04  d E =-.683085E-03
 BRION: g(F)=  0.658E-03 g(S)=  0.000E+00 retain N=  3 mean eig= 1.93
 eig:   5.271  0.084  0.426
 bond charge predicted
       N       E                     dE             d eps       ncg     rms          rms(c)
DAV:   1    -0.333183274901E+04   -0.46478E-03   -0.96489E-02  3584   0.143E-01    0.460E-02
DAV:   2    -0.333183288040E+04   -0.13140E-03   -0.16045E-03  3680   0.141E-02    0.331E-02
DAV:   3    -0.333183288203E+04   -0.16280E-05   -0.20723E-05  3456   0.235E-03    0.231E-02
DAV:   4    -0.333183289439E+04   -0.12358E-04   -0.17368E-05  3168   0.247E-03    0.602E-03
DAV:   5    -0.333183289620E+04   -0.18120E-05   -0.36203E-06  3008   0.113E-03    0.426E-03
DAV:   6    -0.333183289615E+04    0.50291E-07   -0.60433E-07  2816   0.685E-04
  77 F= -.33460451E+04 E0= -.33460451E+04  d E =-.277579E-03
 BRION: g(F)=  0.530E-03 g(S)=  0.000E+00 retain N=  3 mean eig= 2.32
 eig:   6.334  0.474  0.165
 bond charge predicted
       N       E                     dE             d eps       ncg     rms          rms(c)
DAV:   1    -0.333183002623E+04    0.28700E-02   -0.86548E-01  3584   0.428E-01    0.126E-01
DAV:   2    -0.333183088733E+04   -0.86110E-03   -0.10911E-02  3712   0.388E-02    0.899E-02
DAV:   3    -0.333183092361E+04   -0.36279E-04   -0.15166E-04  4192   0.671E-03    0.597E-02
DAV:   4    -0.333183104104E+04   -0.11743E-03   -0.13682E-04  3392   0.722E-03    0.162E-02
DAV:   5    -0.333183104108E+04   -0.40629E-07   -0.29388E-05  3360   0.357E-03    0.111E-02
DAV:   6    -0.333183104161E+04   -0.53353E-06   -0.55723E-06  3072   0.181E-03
  78 F= -.33460443E+04 E0= -.33460443E+04  d E =0.832549E-03
 BRION: g(F)=  0.289E-03 g(S)=  0.000E+00 retain N=  2 mean eig= 0.28
 eig:   0.201  0.351
 bond charge predicted
       N       E                     dE             d eps       ncg     rms          rms(c)
DAV:   1    -0.333183171950E+04   -0.67842E-03   -0.30702E-01  3584   0.256E-01    0.765E-02
DAV:   2    -0.333183211417E+04   -0.39467E-03   -0.47220E-03  3680   0.241E-02    0.541E-02
DAV:   3    -0.333183212004E+04   -0.58749E-05   -0.56746E-05  3840   0.401E-03    0.383E-02
DAV:   4    -0.333183216056E+04   -0.40521E-04   -0.60658E-05  3360   0.470E-03    0.985E-03
DAV:   5    -0.333183216154E+04   -0.97521E-06   -0.11781E-05  3232   0.225E-03    0.706E-03
DAV:   6    -0.333183216175E+04   -0.20827E-06   -0.24594E-06  2944   0.120E-03
  79 F= -.33460448E+04 E0= -.33460448E+04  d E =-.519722E-03
 BRION: g(F)=  0.205E-03 g(S)=  0.000E+00 retain N=  3 mean eig= 1.04
 eig:   0.181  0.295  2.652
 bond charge predicted
       N       E                     dE             d eps       ncg     rms          rms(c)
DAV:   1    -0.333183235594E+04   -0.19440E-03   -0.10894E-02  3584   0.482E-02    0.158E-02
DAV:   2    -0.333183237108E+04   -0.15137E-04   -0.18355E-04  3264   0.485E-03    0.103E-02
DAV:   3    -0.333183237181E+04   -0.73144E-06   -0.16511E-06  3008   0.744E-04
  80 F= -.33460449E+04 E0= -.33460449E+04  d E =-.925466E-04
 BRION: g(F)=  0.183E-03 g(S)=  0.000E+00 retain N=  3 mean eig= 1.22
 eig:   2.453  0.610  0.610
 bond charge predicted
       N       E                     dE             d eps       ncg     rms          rms(c)
DAV:   1    -0.333183307274E+04   -0.70166E-03   -0.32811E-01  3584   0.264E-01    0.780E-02
DAV:   2    -0.333183342326E+04   -0.35052E-03   -0.43582E-03  3712   0.241E-02    0.552E-02
DAV:   3    -0.333183343742E+04   -0.14153E-04   -0.59775E-05  3840   0.423E-03    0.370E-02
DAV:   4    -0.333183348462E+04   -0.47209E-04   -0.50241E-05  3328   0.444E-03    0.972E-03
DAV:   5    -0.333183348551E+04   -0.88615E-06   -0.10127E-05  3200   0.206E-03    0.714E-03
DAV:   6    -0.333183348559E+04   -0.84750E-07   -0.26274E-06  2912   0.127E-03
  81 F= -.33460454E+04 E0= -.33460454E+04  d E =-.488284E-03
 BRION: g(F)=  0.369E-03 g(S)=  0.000E+00 retain N=  3 mean eig= 0.90
 eig:   1.861  0.398  0.450
 bond charge predicted
       N       E                     dE             d eps       ncg     rms          rms(c)
DAV:   1    -0.333183403146E+04   -0.54595E-03   -0.15987E-01  3584   0.184E-01    0.570E-02
DAV:   2    -0.333183423316E+04   -0.20170E-03   -0.24425E-03  3712   0.176E-02    0.401E-02
DAV:   3    -0.333183423881E+04   -0.56501E-05   -0.29667E-05  3744   0.291E-03    0.280E-02
DAV:   4    -0.333183426225E+04   -0.23435E-04   -0.29975E-05  3328   0.332E-03    0.726E-03
DAV:   5    -0.333183426268E+04   -0.42934E-06   -0.59741E-06  2976   0.162E-03
  82 F= -.33460457E+04 E0= -.33460457E+04  d E =-.336346E-03
 BRION: g(F)=  0.330E-03 g(S)=  0.000E+00 retain N=  1 mean eig= 0.12
 eig:   0.124
 bond charge predicted
       N       E                     dE             d eps       ncg     rms          rms(c)
DAV:   1    -0.333183407425E+04    0.18800E-03   -0.17070E-02  3584   0.529E-02    0.420E-02
DAV:   2    -0.333183410423E+04   -0.29983E-04   -0.58008E-04  3424   0.836E-03    0.344E-02
DAV:   3    -0.333183409120E+04    0.13026E-04   -0.35986E-05  3520   0.302E-03    0.181E-02
DAV:   4    -0.333183408898E+04    0.22247E-05   -0.68136E-06  3072   0.176E-03    0.810E-03
DAV:   5    -0.333183409033E+04   -0.13545E-05   -0.39570E-06  2944   0.119E-03    0.286E-03
DAV:   6    -0.333183409028E+04    0.48894E-07   -0.73052E-07  2816   0.805E-04
  83 F= -.33460456E+04 E0= -.33460456E+04  d E =0.197002E-03
 BRION: g(F)=  0.319E-02 g(S)=  0.000E+00 retain N=  2 mean eig= 0.24
 eig:   0.231  0.246
 bond charge predicted
       N       E                     dE             d eps       ncg     rms          rms(c)
DAV:   1    -0.333183435205E+04   -0.26172E-03   -0.12810E-02  3584   0.470E-02    0.361E-02
DAV:   2    -0.333183437165E+04   -0.19598E-04   -0.41054E-04  3296   0.718E-03    0.288E-02
DAV:   3    -0.333183436199E+04    0.96611E-05   -0.26150E-05  3424   0.258E-03    0.144E-02
DAV:   4    -0.333183436085E+04    0.11405E-05   -0.46188E-06  2976   0.156E-03    0.608E-03
DAV:   5    -0.333183436176E+04   -0.90920E-06   -0.23621E-06  2976   0.946E-04
  84 F= -.33460458E+04 E0= -.33460458E+04  d E =-.242963E-03
 BRION: g(F)=  0.163E-03 g(S)=  0.000E+00 retain N=  1 mean eig= 0.14
 eig:   0.139
 bond charge predicted
       N       E                     dE             d eps       ncg     rms          rms(c)
DAV:   1    -0.333183463933E+04   -0.27848E-03   -0.34952E-02  3584   0.863E-02    0.290E-02
DAV:   2    -0.333183468615E+04   -0.46815E-04   -0.60009E-04  3488   0.869E-03    0.207E-02
DAV:   3    -0.333183468634E+04   -0.18976E-06   -0.94103E-06  3168   0.182E-03
  85 F= -.33460459E+04 E0= -.33460459E+04  d E =-.131586E-03
 BRION: g(F)=  0.252E-03 g(S)=  0.000E+00 retain N=  2 mean eig= 0.45
 eig:   0.135  0.769
 bond charge predicted
       N       E                     dE             d eps       ncg     rms          rms(c)
DAV:   1    -0.333183477951E+04   -0.93369E-04   -0.31936E-03  3392   0.254E-02    0.141E-02
DAV:   2    -0.333183478551E+04   -0.59996E-05   -0.87452E-05  3296   0.342E-03    0.113E-02
DAV:   3    -0.333183478545E+04    0.59255E-07   -0.31789E-06  2880   0.102E-03
  86 F= -.33460460E+04 E0= -.33460460E+04  d E =-.488310E-04
 BRION: g(F)=  0.179E-03 g(S)=  0.000E+00 retain N=  1 mean eig= 0.18
 eig:   0.177
 bond charge predicted
       N       E                     dE             d eps       ncg     rms          rms(c)
DAV:   1    -0.333183506325E+04   -0.27774E-03   -0.27915E-02  3584   0.770E-02    0.264E-02
DAV:   2    -0.333183509680E+04   -0.33550E-04   -0.44981E-04  3392   0.769E-03    0.186E-02
DAV:   3    -0.333183509890E+04   -0.20982E-05   -0.56778E-06  3008   0.132E-03    0.129E-02
DAV:   4    -0.333183510567E+04   -0.67706E-05   -0.58169E-06  2784   0.140E-03    0.320E-03
DAV:   5    -0.333183510611E+04   -0.44238E-06   -0.94770E-07  2880   0.610E-04
  87 F= -.33460461E+04 E0= -.33460461E+04  d E =-.130445E-03
 BRION: g(F)=  0.195E-03 g(S)=  0.000E+00 retain N=  2 mean eig= 0.20
 eig:   0.199  0.199
 bond charge predicted
       N       E                     dE             d eps       ncg     rms          rms(c)
DAV:   1    -0.333183519088E+04   -0.85206E-04   -0.28869E-03  3328   0.245E-02    0.110E-02
DAV:   2    -0.333183519518E+04   -0.43059E-05   -0.63505E-05  3200   0.287E-03    0.818E-03
DAV:   3    -0.333183519483E+04    0.34855E-06   -0.16392E-06  3040   0.802E-04
  88 F= -.33460461E+04 E0= -.33460461E+04  d E =-.408695E-04
 BRION: g(F)=  0.158E-03 g(S)=  0.000E+00 retain N=  3 mean eig= 2.38
 eig:   6.754  0.193  0.193
 bond charge predicted
       N       E                     dE             d eps       ncg     rms          rms(c)
DAV:   1    -0.333183529205E+04   -0.96866E-04   -0.31901E-03  3328   0.260E-02    0.959E-03
DAV:   2    -0.333183529598E+04   -0.39331E-05   -0.55533E-05  3104   0.271E-03    0.701E-03
DAV:   3    -0.333183529630E+04   -0.31944E-06   -0.84468E-07  2848   0.581E-04
  89 F= -.33460462E+04 E0= -.33460462E+04  d E =-.440252E-04
 BRION: g(F)=  0.142E-03 g(S)=  0.000E+00 retain N=  2 mean eig= 1.61
 eig:   0.149  3.075
 bond charge predicted
       N       E                     dE             d eps       ncg     rms          rms(c)
DAV:   1    -0.333183556981E+04   -0.27383E-03   -0.27087E-02  3584   0.761E-02    0.241E-02
DAV:   2    -0.333183560023E+04   -0.30418E-04   -0.39456E-04  3360   0.722E-03    0.173E-02
DAV:   3    -0.333183560198E+04   -0.17521E-05   -0.49328E-06  3200   0.123E-03    0.119E-02
DAV:   4    -0.333183560740E+04   -0.54223E-05   -0.48982E-06  2816   0.136E-03    0.301E-03
DAV:   5    -0.333183560748E+04   -0.76019E-07   -0.88358E-07  2784   0.657E-04
  90 F= -.33460463E+04 E0= -.33460463E+04  d E =-.126565E-03
 BRION: g(F)=  0.209E-03 g(S)=  0.000E+00 retain N=  3 mean eig= 1.36
 eig:   3.047  0.160  0.879
 bond charge predicted
       N       E                     dE             d eps       ncg     rms          rms(c)
DAV:   1    -0.333183568237E+04   -0.74965E-04   -0.17928E-03  3296   0.194E-02    0.767E-03
DAV:   2    -0.333183568522E+04   -0.28580E-05   -0.37967E-05  3008   0.223E-03    0.599E-03
DAV:   3    -0.333183568521E+04    0.11409E-07   -0.56596E-07  2752   0.461E-04
  91 F= -.33460464E+04 E0= -.33460464E+04  d E =-.346177E-04
 BRION: g(F)=  0.136E-03 g(S)=  0.000E+00 retain N=  1 mean eig= 0.17
 eig:   0.172
 bond charge predicted
       N       E                     dE             d eps       ncg     rms          rms(c)
DAV:   1    -0.333183597381E+04   -0.28858E-03   -0.30889E-02  3584   0.812E-02    0.248E-02
DAV:   2    -0.333183600749E+04   -0.33688E-04   -0.43742E-04  3392   0.751E-03    0.175E-02
DAV:   3    -0.333183600948E+04   -0.19907E-05   -0.56171E-06  3168   0.136E-03    0.119E-02
DAV:   4    -0.333183601550E+04   -0.60134E-05   -0.53324E-06  2880   0.148E-03    0.322E-03
DAV:   5    -0.333183601562E+04   -0.12130E-06   -0.10669E-06  2784   0.742E-04
  92 F= -.33460465E+04 E0= -.33460465E+04  d E =-.136684E-03
 BRION: g(F)=  0.138E-03 g(S)=  0.000E+00 retain N=  2 mean eig= 0.13
 eig:   0.130  0.130
 bond charge predicted
       N       E                     dE             d eps       ncg     rms          rms(c)
DAV:   1    -0.333183613333E+04   -0.11783E-03   -0.45435E-03  3520   0.311E-02    0.102E-02
DAV:   2    -0.333183613949E+04   -0.61587E-05   -0.78225E-05  3232   0.318E-03    0.714E-03
DAV:   3    -0.333183613980E+04   -0.31490E-06   -0.77434E-07  2848   0.528E-04
  93 F= -.33460465E+04 E0= -.33460465E+04  d E =-.495383E-04
 BRION: g(F)=  0.141E-03 g(S)=  0.000E+00 retain N=  1 mean eig= 0.15
 eig:   0.153
 bond charge predicted
       N       E                     dE             d eps       ncg     rms          rms(c)
DAV:   1    -0.333183637095E+04   -0.23147E-03   -0.18003E-02  3584   0.620E-02    0.194E-02
DAV:   2    -0.333183639163E+04   -0.20678E-04   -0.26763E-04  3264   0.586E-03    0.136E-02
DAV:   3    -0.333183639314E+04   -0.15124E-05   -0.28935E-06  3104   0.951E-04    0.952E-03
DAV:   4    -0.333183639711E+04   -0.39678E-05   -0.29738E-06  2720   0.108E-03    0.225E-03
DAV:   5    -0.333183639714E+04   -0.28289E-07   -0.46995E-07  2720   0.498E-04
  94 F= -.33460466E+04 E0= -.33460466E+04  d E =-.104993E-03
 BRION: g(F)=  0.133E-03 g(S)=  0.000E+00 retain N=  2 mean eig= 2.02
 eig:   0.090  3.944
 bond charge predicted
       N       E                     dE             d eps       ncg     rms          rms(c)
DAV:   1    -0.333183657184E+04   -0.17473E-03   -0.10887E-02  3584   0.482E-02    0.152E-02
DAV:   2    -0.333183658531E+04   -0.13474E-04   -0.17326E-04  3264   0.463E-03    0.105E-02
DAV:   3    -0.333183658594E+04   -0.62399E-06   -0.21146E-06  3104   0.874E-04
  95 F= -.33460467E+04 E0= -.33460467E+04  d E =-.761393E-04
 BRION: g(F)=  0.128E-03 g(S)=  0.000E+00 retain N=  2 mean eig= 0.18
 eig:   0.205  0.162
 bond charge predicted
       N       E                     dE             d eps       ncg     rms          rms(c)
DAV:   1    -0.333183681015E+04   -0.22483E-03   -0.18588E-02  3584   0.629E-02    0.206E-02
DAV:   2    -0.333183683229E+04   -0.22143E-04   -0.29197E-04  3328   0.609E-03    0.145E-02
DAV:   3    -0.333183683410E+04   -0.18063E-05   -0.34722E-06  3104   0.102E-03    0.101E-02
DAV:   4    -0.333183683839E+04   -0.42885E-05   -0.29832E-06  2720   0.105E-03    0.237E-03
DAV:   5    -0.333183683864E+04   -0.25239E-06   -0.41757E-07  2720   0.459E-04
  96 F= -.33460468E+04 E0= -.33460468E+04  d E =-.100890E-03
 BRION: g(F)=  0.174E-03 g(S)=  0.000E+00 retain N=  2 mean eig= 0.48
 eig:   0.160  0.792
 bond charge predicted
       N       E                     dE             d eps       ncg     rms          rms(c)
DAV:   1    -0.333183695047E+04   -0.11208E-03   -0.39265E-03  3488   0.289E-02    0.103E-02
DAV:   2    -0.333183695610E+04   -0.56335E-05   -0.72492E-05  3232   0.305E-03    0.786E-03
DAV:   3    -0.333183695616E+04   -0.56345E-07   -0.91037E-07  2816   0.555E-04
  97 F= -.33460469E+04 E0= -.33460469E+04  d E =-.469289E-04
 BRION: g(F)=  0.134E-03 g(S)=  0.000E+00 retain N=  1 mean eig= 0.15
 eig:   0.154
 bond charge predicted
       N       E                     dE             d eps       ncg     rms          rms(c)
DAV:   1    -0.333183717527E+04   -0.21917E-03   -0.24310E-02  3584   0.716E-02    0.252E-02
DAV:   2    -0.333183720578E+04   -0.30514E-04   -0.40442E-04  3328   0.736E-03    0.190E-02
DAV:   3    -0.333183720624E+04   -0.46066E-06   -0.73049E-06  3008   0.154E-03
  98 F= -.33460470E+04 E0= -.33460470E+04  d E =-.846100E-04
 BRION: g(F)=  0.402E-03 g(S)=  0.000E+00 retain N=  2 mean eig= 0.13
 eig:   0.189  0.076
 bond charge predicted
       N       E                     dE             d eps       ncg     rms          rms(c)
DAV:   1    -0.333183727856E+04   -0.72785E-04   -0.20942E-03  3360   0.198E-02    0.130E-02
DAV:   2    -0.333183728356E+04   -0.49996E-05   -0.72848E-05  3296   0.315E-03    0.107E-02
DAV:   3    -0.333183728299E+04    0.57474E-06   -0.31211E-06  2784   0.100E-03
  99 F= -.33460470E+04 E0= -.33460470E+04  d E =-.471474E-04
 BRION: g(F)=  0.119E-03 g(S)=  0.000E+00 retain N=  1 mean eig= 0.17
 eig:   0.167
 bond charge predicted
       N       E                     dE             d eps       ncg     rms          rms(c)
DAV:   1    -0.333183754478E+04   -0.26121E-03   -0.25936E-02  3584   0.743E-02    0.240E-02
DAV:   2    -0.333183757474E+04   -0.29965E-04   -0.39522E-04  3360   0.707E-03    0.168E-02
DAV:   3    -0.333183757709E+04   -0.23487E-05   -0.41562E-06  3136   0.111E-03    0.118E-02
DAV:   4    -0.333183758346E+04   -0.63641E-05   -0.52393E-06  2752   0.138E-03    0.286E-03
DAV:   5    -0.333183758339E+04    0.66007E-07   -0.86317E-07  2752   0.629E-04
 100 F= -.33460471E+04 E0= -.33460471E+04  d E =-.117074E-03
 BRION: g(F)=  0.126E-03 g(S)=  0.000E+00 retain N=  2 mean eig= 0.18
 eig:   0.125  0.241
 bond charge predicted
       N       E                     dE             d eps       ncg     rms          rms(c)
DAV:   1    -0.333183768496E+04   -0.10151E-03   -0.38838E-03  3392   0.286E-02    0.953E-03
DAV:   2    -0.333183769012E+04   -0.51520E-05   -0.68387E-05  3168   0.293E-03    0.674E-03
DAV:   3    -0.333183769035E+04   -0.23900E-06   -0.79318E-07  2912   0.571E-04
 101 F= -.33460472E+04 E0= -.33460472E+04  d E =-.423163E-04
 BRION: g(F)=  0.126E-03 g(S)=  0.000E+00 retain N=  3 mean eig= 2.03
 eig:   5.804  0.168  0.113
 bond charge predicted
       N       E                     dE             d eps       ncg     rms          rms(c)
DAV:   1    -0.333183800857E+04   -0.31846E-03   -0.43154E-02  3584   0.957E-02    0.298E-02
DAV:   2    -0.333183805710E+04   -0.48527E-04   -0.62803E-04  3552   0.893E-03    0.210E-02
DAV:   3    -0.333183805996E+04   -0.28590E-05   -0.78264E-06  3232   0.156E-03    0.145E-02
DAV:   4    -0.333183806863E+04   -0.86731E-05   -0.76642E-06  2912   0.171E-03    0.382E-03
DAV:   5    -0.333183806881E+04   -0.17462E-06   -0.15172E-06  2784   0.867E-04
 102 F= -.33460473E+04 E0= -.33460473E+04  d E =-.148381E-03
 BRION: g(F)=  0.126E-03 g(S)=  0.000E+00 retain N=  2 mean eig= 2.44
 eig:   0.117  4.766
 bond charge predicted
       N       E                     dE             d eps       ncg     rms          rms(c)
DAV:   1    -0.333183816085E+04   -0.92215E-04   -0.35531E-03  3328   0.271E-02    0.111E-02
DAV:   2    -0.333183816563E+04   -0.47820E-05   -0.69667E-05  3136   0.306E-03    0.780E-03
DAV:   3    -0.333183816579E+04   -0.16077E-06   -0.13272E-06  2880   0.708E-04
 103 F= -.33460473E+04 E0= -.33460473E+04  d E =-.336612E-04
 BRION: g(F)=  0.143E-03 g(S)=  0.000E+00 retain N=  3 mean eig= 2.31
 eig:   6.613  0.157  0.157
 bond charge predicted
       N       E                     dE             d eps       ncg     rms          rms(c)
DAV:   1    -0.333183823044E+04   -0.64806E-04   -0.16718E-03  3264   0.185E-02    0.818E-03
DAV:   2    -0.333183823303E+04   -0.25952E-05   -0.37257E-05  3040   0.224E-03    0.645E-03
DAV:   3    -0.333183823308E+04   -0.46100E-07   -0.87671E-07  2752   0.603E-04
 104 F= -.33460474E+04 E0= -.33460474E+04  d E =-.286167E-04
 BRION: g(F)=  0.117E-03 g(S)=  0.000E+00 retain N=  2 mean eig= 0.38
 eig:   0.124  0.644
 bond charge predicted
       N       E                     dE             d eps       ncg     rms          rms(c)
DAV:   1    -0.333183844682E+04   -0.21379E-03   -0.18459E-02  3584   0.624E-02    0.201E-02
DAV:   2    -0.333183846764E+04   -0.20818E-04   -0.27958E-04  3264   0.593E-03    0.142E-02
DAV:   3    -0.333183846911E+04   -0.14757E-05   -0.37224E-06  3168   0.113E-03    0.975E-03
DAV:   4    -0.333183847305E+04   -0.39408E-05   -0.33463E-06  2816   0.117E-03    0.263E-03
DAV:   5    -0.333183847330E+04   -0.24529E-06   -0.58900E-07  2720   0.555E-04
 105 F= -.33460475E+04 E0= -.33460475E+04  d E =-.937087E-04
 BRION: g(F)=  0.126E-03 g(S)=  0.000E+00 retain N=  3 mean eig= 0.23
 eig:   0.061  0.315  0.315
 bond charge predicted
       N       E                     dE             d eps       ncg     rms          rms(c)
DAV:   1    -0.333183852988E+04   -0.56825E-04   -0.10373E-03  3232   0.147E-02    0.594E-03
DAV:   2    -0.333183853144E+04   -0.15583E-05   -0.21268E-05  2848   0.169E-03    0.450E-03
DAV:   3    -0.333183853150E+04   -0.60885E-07   -0.26970E-07  2592   0.367E-04
 106 F= -.33460475E+04 E0= -.33460475E+04  d E =-.220878E-04
 BRION: g(F)=  0.107E-03 g(S)=  0.000E+00 retain N=  2 mean eig= 3.46
 eig:   0.127  6.801
 bond charge predicted
       N       E                     dE             d eps       ncg     rms          rms(c)
DAV:   1    -0.333183877460E+04   -0.24317E-03   -0.22678E-02  3584   0.692E-02    0.209E-02
DAV:   2    -0.333183879743E+04   -0.22831E-04   -0.30469E-04  3264   0.626E-03    0.147E-02
DAV:   3    -0.333183879925E+04   -0.18115E-05   -0.35925E-06  3072   0.103E-03    0.100E-02
DAV:   4    -0.333183880383E+04   -0.45861E-05   -0.36400E-06  2752   0.117E-03    0.248E-03
DAV:   5    -0.333183880386E+04   -0.32596E-07   -0.56382E-07  2752   0.513E-04
 107 F= -.33460476E+04 E0= -.33460476E+04  d E =-.103214E-03
 BRION: g(F)=  0.105E-03 g(S)=  0.000E+00 retain N=  2 mean eig= 1.15
 eig:   0.100  2.196
 bond charge predicted
       N       E                     dE             d eps       ncg     rms          rms(c)
DAV:   1    -0.333183899901E+04   -0.19518E-03   -0.15462E-02  3584   0.570E-02    0.181E-02
DAV:   2    -0.333183901800E+04   -0.18988E-04   -0.24614E-04  3264   0.545E-03    0.125E-02
DAV:   3    -0.333183901891E+04   -0.90944E-06   -0.30247E-06  3168   0.103E-03
 108 F= -.33460477E+04 E0= -.33460477E+04  d E =-.803882E-04
 BRION: g(F)=  0.999E-04 g(S)=  0.000E+00 retain N=  1 mean eig= 0.37
 eig:   0.373
 bond charge predicted
       N       E                     dE             d eps       ncg     rms          rms(c)
DAV:   1    -0.333183921359E+04   -0.19559E-03   -0.13951E-02  3584   0.542E-02    0.185E-02
DAV:   2    -0.333183923004E+04   -0.16446E-04   -0.22096E-04  3264   0.529E-03    0.128E-02
DAV:   3    -0.333183923177E+04   -0.17290E-05   -0.24727E-06  2976   0.901E-04    0.892E-03
DAV:   4    -0.333183923542E+04   -0.36496E-05   -0.23493E-06  2752   0.924E-04    0.205E-03
DAV:   5    -0.333183923555E+04   -0.12876E-06   -0.30480E-07  2592   0.406E-04
 109 F= -.33460477E+04 E0= -.33460477E+04  d E =-.814090E-04
 BRION: g(F)=  0.110E-03 g(S)=  0.000E+00 retain N=  2 mean eig= 3.08
 eig:   0.166  6.000
 bond charge predicted
       N       E                     dE             d eps       ncg     rms          rms(c)
DAV:   1    -0.333183948414E+04   -0.24872E-03   -0.26592E-02  3584   0.747E-02    0.229E-02
DAV:   2    -0.333183951544E+04   -0.31296E-04   -0.39664E-04  3360   0.703E-03    0.163E-02
DAV:   3    -0.333183951675E+04   -0.13151E-05   -0.45456E-06  3168   0.116E-03    0.113E-02
DAV:   4    -0.333183952132E+04   -0.45717E-05   -0.47365E-06  2784   0.132E-03    0.281E-03
DAV:   5    -0.333183952146E+04   -0.13353E-06   -0.78878E-07  2752   0.599E-04
 110 F= -.33460479E+04 E0= -.33460479E+04  d E =-.103303E-03
 BRION: g(F)=  0.141E-03 g(S)=  0.000E+00 retain N=  2 mean eig= 0.37
 eig:   0.247  0.498
 bond charge predicted
       N       E                     dE             d eps       ncg     rms          rms(c)
DAV:   1    -0.333183942564E+04    0.95685E-04   -0.31377E-03  3328   0.255E-02    0.896E-03
DAV:   2    -0.333183943025E+04   -0.46175E-05   -0.59220E-05  3104   0.279E-03    0.725E-03
DAV:   3    -0.333183942994E+04    0.31781E-06   -0.92178E-07  2784   0.547E-04
 111 F= -.33460478E+04 E0= -.33460478E+04  d E =0.310468E-04
 BRION: g(F)=  0.104E-03 g(S)=  0.000E+00 retain N=  2 mean eig= 0.63
 eig:   0.110  1.160
 bond charge predicted
       N       E                     dE             d eps       ncg     rms          rms(c)
DAV:   1    -0.333183961848E+04   -0.18822E-03   -0.14538E-02  3584   0.552E-02    0.155E-02
DAV:   2    -0.333183963616E+04   -0.17684E-04   -0.21352E-04  3264   0.518E-03    0.109E-02
DAV:   3    -0.333183963644E+04   -0.27393E-06   -0.24487E-06  3040   0.876E-04
 112 F= -.33460479E+04 E0= -.33460479E+04  d E =-.752652E-04
 BRION: g(F)=  0.922E-04 g(S)=  0.000E+00 retain N=  2 mean eig= 0.35
 eig:   0.199  0.500
 bond charge predicted
       N       E                     dE             d eps       ncg     rms          rms(c)
DAV:   1    -0.333183985169E+04   -0.21553E-03   -0.18232E-02  3584   0.618E-02    0.205E-02
DAV:   2    -0.333183987357E+04   -0.21881E-04   -0.28434E-04  3328   0.600E-03    0.142E-02
DAV:   3    -0.333183987532E+04   -0.17472E-05   -0.29243E-06  2976   0.961E-04    0.101E-02
DAV:   4    -0.333183987967E+04   -0.43524E-05   -0.33861E-06  2752   0.107E-03    0.232E-03
DAV:   5    -0.333183987967E+04    0.76834E-08   -0.46264E-07  2752   0.488E-04
 113 F= -.33460480E+04 E0= -.33460480E+04  d E =-.867564E-04
 BRION: g(F)=  0.109E-03 g(S)=  0.000E+00 retain N=  1 mean eig= 0.17
 eig:   0.173
 bond charge predicted
       N       E                     dE             d eps       ncg     rms          rms(c)
DAV:   1    -0.333183993862E+04   -0.58951E-04   -0.18293E-03  3264   0.193E-02    0.793E-03
DAV:   2    -0.333183994161E+04   -0.29817E-05   -0.40042E-05  3104   0.226E-03    0.639E-03
DAV:   3    -0.333183994143E+04    0.17823E-06   -0.73462E-07  2720   0.513E-04
 114 F= -.33460480E+04 E0= -.33460480E+04  d E =-.216420E-04
 BRION: g(F)=  0.122E-03 g(S)=  0.000E+00 retain N=  2 mean eig= 1.77
 eig:   0.142  3.391
 bond charge predicted
[...]
DAV:   2    -0.333184228589E+04   -0.99114E-04   -0.12231E-03  3648   0.124E-02    0.291E-02
DAV:   3    -0.333184228869E+04   -0.27959E-05   -0.15729E-05  3456   0.213E-03    0.197E-02
DAV:   4    -0.333184230124E+04   -0.12558E-04   -0.14802E-05  3072   0.234E-03    0.533E-03
DAV:   5    -0.333184230133E+04   -0.83586E-07   -0.31005E-06  2880   0.119E-03
 129 F= -.33460488E+04 E0= -.33460488E+04  d E =-.147855E-03
 BRION: g(F)=  0.118E-03 g(S)=  0.000E+00 retain N=  2 mean eig= 0.47
 eig:   0.774  0.162
 bond charge predicted
       N       E                     dE             d eps       ncg     rms          rms(c)
DAV:   1    -0.333184191672E+04    0.38452E-03   -0.40168E-02  3584   0.915E-02    0.281E-02
DAV:   2    -0.333184196978E+04   -0.53058E-04   -0.63915E-04  3456   0.892E-03    0.206E-02
DAV:   3    -0.333184196983E+04   -0.51456E-07   -0.75802E-06  3072   0.147E-03
 130 F= -.33460487E+04 E0= -.33460487E+04  d E =0.104765E-03
 BRION: g(F)=  0.887E-04 g(S)=  0.000E+00 retain N=  1 mean eig= 0.17
 eig:   0.170
 bond charge predicted
       N       E                     dE             d eps       ncg     rms          rms(c)
DAV:   1    -0.333184220925E+04   -0.23947E-03   -0.38962E-02  3584   0.900E-02    0.281E-02
DAV:   2    -0.333184226703E+04   -0.57786E-04   -0.68322E-04  3328   0.928E-03    0.215E-02
DAV:   3    -0.333184226521E+04    0.18241E-05   -0.88836E-06  3040   0.152E-03    0.153E-02
DAV:   4    -0.333184226751E+04   -0.23046E-05   -0.98163E-06  2912   0.183E-03    0.397E-03
DAV:   5    -0.333184226815E+04   -0.63272E-06   -0.18035E-06  2944   0.817E-04
 131 F= -.33460488E+04 E0= -.33460488E+04  d E =-.793779E-04
 BRION: g(F)=  0.417E-03 g(S)=  0.000E+00 retain N=  2 mean eig= 0.24
 eig:   0.276  0.198
 bond charge predicted
       N       E                     dE             d eps       ncg     rms          rms(c)
DAV:   1    -0.333184232617E+04   -0.58656E-04   -0.19570E-03  3296   0.187E-02    0.130E-02
DAV:   2    -0.333184233058E+04   -0.44059E-05   -0.67228E-05  3296   0.289E-03    0.107E-02
DAV:   3    -0.333184232930E+04    0.12801E-05   -0.29822E-06  2816   0.932E-04    0.621E-03
DAV:   4    -0.333184232883E+04    0.46566E-06   -0.71444E-07  2656   0.625E-04
 132 F= -.33460488E+04 E0= -.33460488E+04  d E =-.363922E-04
 BRION: g(F)=  0.605E-04 g(S)=  0.000E+00 retain N=  1 mean eig= 0.14
 eig:   0.139
 bond charge predicted
       N       E                     dE             d eps       ncg     rms          rms(c)
DAV:   1    -0.333184247387E+04   -0.14457E-03   -0.12572E-02  3584   0.511E-02    0.183E-02
DAV:   2    -0.333184249152E+04   -0.17656E-04   -0.22181E-04  3264   0.527E-03    0.138E-02
DAV:   3    -0.333184249114E+04    0.38161E-06   -0.35631E-06  3008   0.107E-03
 133 F= -.33460488E+04 E0= -.33460488E+04  d E =-.403541E-04
 BRION: g(F)=  0.194E-03 g(S)=  0.000E+00 retain N=  2 mean eig= 0.10
 eig:   0.124  0.074
 bond charge predicted
       N       E                     dE             d eps       ncg     rms          rms(c)
DAV:   1    -0.333184253017E+04   -0.38652E-04   -0.11319E-03  3232   0.143E-02    0.958E-03
DAV:   2    -0.333184253276E+04   -0.25835E-05   -0.38995E-05  3072   0.216E-03    0.770E-03
DAV:   3    -0.333184253236E+04    0.39255E-06   -0.17943E-06  2688   0.720E-04
 134 F= -.33460489E+04 E0= -.33460489E+04  d E =-.222075E-04
 BRION: g(F)=  0.535E-04 g(S)=  0.000E+00 retain N=  1 mean eig= 0.16
 eig:   0.165
 bond charge predicted
       N       E                     dE             d eps       ncg     rms          rms(c)
DAV:   1    -0.333184268881E+04   -0.15605E-03   -0.11358E-02  3584   0.486E-02    0.163E-02
DAV:   2    -0.333184270308E+04   -0.14273E-04   -0.17939E-04  3264   0.471E-03    0.114E-02
DAV:   3    -0.333184270378E+04   -0.69709E-06   -0.18708E-06  2976   0.747E-04
 135 F= -.33460489E+04 E0= -.33460489E+04  d E =-.480334E-04
 BRION: g(F)=  0.585E-04 g(S)=  0.000E+00 retain N=  2 mean eig= 0.29
 eig:   0.159  0.417
 bond charge predicted
       N       E                     dE             d eps       ncg     rms          rms(c)
DAV:   1    -0.333184275647E+04   -0.53391E-04   -0.12537E-03  3296   0.161E-02    0.703E-03
DAV:   2    -0.333184275818E+04   -0.17100E-05   -0.24212E-05  2976   0.184E-03    0.511E-03
DAV:   3    -0.333184275821E+04   -0.33760E-07   -0.55358E-07  2656   0.551E-04
 136 F= -.33460489E+04 E0= -.33460489E+04  d E =-.184086E-04
 BRION: g(F)=  0.563E-04 g(S)=  0.000E+00 retain N=  3 mean eig= 1.36
 eig:   3.541  0.162  0.363
 bond charge predicted
       N       E                     dE             d eps       ncg     rms          rms(c)
DAV:   1    -0.333184286106E+04   -0.10288E-03   -0.49739E-03  3520   0.322E-02    0.113E-02
DAV:   2    -0.333184286723E+04   -0.61708E-05   -0.80207E-05  3232   0.319E-03    0.808E-03
DAV:   3    -0.333184286751E+04   -0.27951E-06   -0.10353E-06  2912   0.628E-04
 137 F= -.33460490E+04 E0= -.33460490E+04  d E =-.323319E-04
 BRION: g(F)=  0.506E-04 g(S)=  0.000E+00 retain N=  2 mean eig= 0.62
 eig:   0.010  1.236
 bond charge predicted
       N       E                     dE             d eps       ncg     rms          rms(c)
DAV:   1    -0.333184299561E+04   -0.12838E-03   -0.73883E-03  3584   0.392E-02    0.137E-02
DAV:   2    -0.333184300520E+04   -0.95841E-05   -0.12019E-04  3232   0.396E-03    0.969E-03
DAV:   3    -0.333184300568E+04   -0.47719E-06   -0.13563E-06  2912   0.679E-04
 138 F= -.33460490E+04 E0= -.33460490E+04  d E =-.378667E-04
 BRION: g(F)=  0.681E-04 g(S)=  0.000E+00 retain N=  3 mean eig= 0.48
 eig:   1.201  0.076  0.162
 bond charge predicted
       N       E                     dE             d eps       ncg     rms          rms(c)
DAV:   1    -0.333184305122E+04   -0.46027E-04   -0.98049E-04  3232   0.141E-02    0.647E-03
DAV:   2    -0.333184305271E+04   -0.14815E-05   -0.21008E-05  2880   0.167E-03    0.501E-03
DAV:   3    -0.333184305271E+04   -0.27940E-08   -0.55477E-07  2624   0.487E-04
 139 F= -.33460490E+04 E0= -.33460490E+04  d E =-.160439E-04
 BRION: g(F)=  0.482E-04 g(S)=  0.000E+00 retain N=  1 mean eig= 0.16
 eig:   0.162
 bond charge predicted
       N       E                     dE             d eps       ncg     rms          rms(c)
DAV:   1    -0.333184318548E+04   -0.13277E-03   -0.90055E-03  3584   0.433E-02    0.145E-02
DAV:   2    -0.333184319613E+04   -0.10650E-04   -0.13781E-04  3232   0.416E-03    0.102E-02
DAV:   3    -0.333184319656E+04   -0.42992E-06   -0.18656E-06  3040   0.831E-04
 140 F= -.33460491E+04 E0= -.33460491E+04  d E =-.409379E-04
 BRION: g(F)=  0.453E-04 g(S)=  0.000E+00 retain N=  2 mean eig= 0.28
 eig:   0.121  0.449
 bond charge predicted
       N       E                     dE             d eps       ncg     rms          rms(c)
DAV:   1    -0.333184328904E+04   -0.92910E-04   -0.35529E-03  3360   0.272E-02    0.103E-02
DAV:   2    -0.333184329358E+04   -0.45483E-05   -0.58761E-05  3168   0.281E-03    0.701E-03
DAV:   3    -0.333184329401E+04   -0.42957E-06   -0.69134E-07  2752   0.555E-04
 141 F= -.33460491E+04 E0= -.33460491E+04  d E =-.275674E-04
 BRION: g(F)=  0.437E-04 g(S)=  0.000E+00 retain N=  2 mean eig= 0.29
 eig:   0.289  0.289
 bond charge predicted
       N       E                     dE             d eps       ncg     rms          rms(c)
DAV:   1    -0.333184345884E+04   -0.16526E-03   -0.14357E-02  3584   0.549E-02    0.176E-02
DAV:   2    -0.333184347658E+04   -0.17742E-04   -0.22058E-04  3264   0.527E-03    0.124E-02
DAV:   3    -0.333184347725E+04   -0.66077E-06   -0.26969E-06  2944   0.932E-04
 142 F= -.33460491E+04 E0= -.33460491E+04  d E =-.491058E-04
 BRION: g(F)=  0.639E-04 g(S)=  0.000E+00 retain N=  2 mean eig= 0.25
 eig:   0.247  0.247
 bond charge predicted
       N       E                     dE             d eps       ncg     rms          rms(c)
DAV:   1    -0.333184347252E+04    0.40598E-05   -0.28034E-04  3264   0.705E-03    0.488E-03
DAV:   2    -0.333184347331E+04   -0.78545E-06   -0.10906E-05  2880   0.124E-03    0.410E-03
DAV:   3    -0.333184347311E+04    0.19826E-06   -0.23941E-07  2560   0.360E-04
 143 F= -.33460491E+04 E0= -.33460491E+04  d E =-.215746E-05
 BRION: g(F)=  0.468E-04 g(S)=  0.000E+00 retain N=  1 mean eig= 0.18
 eig:   0.176
 bond charge predicted
       N       E                     dE             d eps       ncg     rms          rms(c)
DAV:   1    -0.333184360654E+04   -0.13323E-03   -0.99711E-03  3584   0.455E-02    0.149E-02
DAV:   2    -0.333184361926E+04   -0.12717E-04   -0.15766E-04  3232   0.443E-03    0.109E-02
DAV:   3    -0.333184361939E+04   -0.12538E-06   -0.20388E-06  2944   0.767E-04
 144 F= -.33460492E+04 E0= -.33460492E+04  d E =-.358817E-04
 BRION: g(F)=  0.102E-03 g(S)=  0.000E+00 retain N=  2 mean eig= 0.18
 eig:   0.181  0.182
 bond charge predicted
       N       E                     dE             d eps       ncg     rms          rms(c)
DAV:   1    -0.333184365053E+04   -0.31267E-04   -0.56042E-04  3232   0.103E-02    0.663E-03
DAV:   2    -0.333184365182E+04   -0.12876E-05   -0.18378E-05  2944   0.158E-03    0.550E-03
DAV:   3    -0.333184365163E+04    0.18289E-06   -0.64819E-07  2656   0.516E-04
 145 F= -.33460492E+04 E0= -.33460492E+04  d E =-.133820E-04
 BRION: g(F)=  0.436E-04 g(S)=  0.000E+00 retain N=  1 mean eig= 0.15
 eig:   0.154
 bond charge predicted
       N       E                     dE             d eps       ncg     rms          rms(c)
DAV:   1    -0.333184377354E+04   -0.12173E-03   -0.94688E-03  3584   0.442E-02    0.152E-02
DAV:   2    -0.333184378612E+04   -0.12572E-04   -0.15902E-04  3232   0.444E-03    0.114E-02
DAV:   3    -0.333184378610E+04    0.19441E-07   -0.23769E-06  2944   0.838E-04
 146 F= -.33460492E+04 E0= -.33460492E+04  d E =-.306931E-04
 BRION: g(F)=  0.127E-03 g(S)=  0.000E+00 retain N=  2 mean eig= 0.23
 eig:   0.163  0.302
 bond charge predicted
       N       E                     dE             d eps       ncg     rms          rms(c)
DAV:   1    -0.333184381776E+04   -0.31638E-04   -0.61744E-04  3232   0.106E-02    0.735E-03
DAV:   2    -0.333184381931E+04   -0.15592E-05   -0.22137E-05  2944   0.170E-03    0.613E-03
DAV:   3    -0.333184381908E+04    0.23004E-06   -0.75343E-07  2688   0.524E-04
 147 F= -.33460492E+04 E0= -.33460492E+04  d E =-.150832E-04
 BRION: g(F)=  0.393E-04 g(S)=  0.000E+00 retain N=  1 mean eig= 0.16
 eig:   0.161
 bond charge predicted
       N       E                     dE             d eps       ncg     rms          rms(c)
DAV:   1    -0.333184394692E+04   -0.12760E-03   -0.85379E-03  3584   0.420E-02    0.139E-02
DAV:   2    -0.333184395756E+04   -0.10643E-04   -0.13272E-04  3232   0.403E-03    0.991E-03
DAV:   3    -0.333184395796E+04   -0.40059E-06   -0.14870E-06  2944   0.688E-04
 148 F= -.33460493E+04 E0= -.33460493E+04  d E =-.356631E-04
 BRION: g(F)=  0.503E-04 g(S)=  0.000E+00 retain N=  2 mean eig= 0.19
 eig:   0.190  0.190
 bond charge predicted
       N       E                     dE             d eps       ncg     rms          rms(c)
DAV:   1    -0.333184398979E+04   -0.32231E-04   -0.45453E-04  3264   0.960E-03    0.507E-03
DAV:   2    -0.333184399054E+04   -0.74587E-06   -0.10574E-05  2912   0.124E-03    0.398E-03
DAV:   3    -0.333184399053E+04    0.31432E-08   -0.23633E-07  2560   0.382E-04
 149 F= -.33460493E+04 E0= -.33460493E+04  d E =-.102519E-04
 BRION: g(F)=  0.399E-04 g(S)=  0.000E+00 retain N=  1 mean eig= 0.14
 eig:   0.142
 bond charge predicted
       N       E                     dE             d eps       ncg     rms          rms(c)
DAV:   1    -0.333184410659E+04   -0.11606E-03   -0.75109E-03  3584   0.393E-02    0.128E-02
DAV:   2    -0.333184411594E+04   -0.93463E-05   -0.11689E-04  3232   0.379E-03    0.934E-03
DAV:   3    -0.333184411611E+04   -0.17369E-06   -0.14998E-06  2912   0.682E-04
 150 F= -.33460493E+04 E0= -.33460493E+04  d E =-.310026E-04
 BRION: g(F)=  0.658E-04 g(S)=  0.000E+00 retain N=  2 mean eig= 0.35
 eig:   0.149  0.545
 bond charge predicted
       N       E                     dE             d eps       ncg     rms          rms(c)
DAV:   1    -0.333184414333E+04   -0.27394E-04   -0.37149E-04  3232   0.850E-03    0.530E-03
DAV:   2    -0.333184414411E+04   -0.77148E-06   -0.11118E-05  2912   0.124E-03    0.439E-03
DAV:   3    -0.333184414405E+04    0.60420E-07   -0.25134E-07  2528   0.369E-04
 151 F= -.33460493E+04 E0= -.33460493E+04  d E =-.982055E-05
 BRION: g(F)=  0.362E-04 g(S)=  0.000E+00 retain N=  1 mean eig= 0.16
 eig:   0.163
 bond charge predicted
       N       E                     dE             d eps       ncg     rms          rms(c)
DAV:   1    -0.333184426560E+04   -0.12149E-03   -0.76044E-03  3584   0.396E-02    0.127E-02
DAV:   2    -0.333184427476E+04   -0.91646E-05   -0.11335E-04  3232   0.372E-03    0.895E-03
DAV:   3    -0.333184427510E+04   -0.33539E-06   -0.12236E-06  2880   0.626E-04
 152 F= -.33460494E+04 E0= -.33460494E+04  d E =-.332166E-04
 BRION: g(F)=  0.379E-04 g(S)=  0.000E+00 retain N=  2 mean eig= 0.23
 eig:   0.227  0.227
 bond charge predicted
       N       E                     dE             d eps       ncg     rms          rms(c)
DAV:   1    -0.333184431983E+04   -0.45072E-04   -0.89593E-04  3232   0.136E-02    0.570E-03
DAV:   2    -0.333184432108E+04   -0.12488E-05   -0.16328E-05  2880   0.152E-03    0.418E-03
DAV:   3    -0.333184432116E+04   -0.76834E-07   -0.21056E-07  2624   0.377E-04
 153 F= -.33460494E+04 E0= -.33460494E+04  d E =-.125348E-04
 BRION: g(F)=  0.391E-04 g(S)=  0.000E+00 retain N=  1 mean eig= 0.13
 eig:   0.135
 bond charge predicted
       N       E                     dE             d eps       ncg     rms          rms(c)
DAV:   1    -0.333184441886E+04   -0.97775E-04   -0.51709E-03  3424   0.326E-02    0.108E-02
DAV:   2    -0.333184442539E+04   -0.65331E-05   -0.81738E-05  3232   0.318E-03    0.782E-03
DAV:   3    -0.333184442554E+04   -0.15448E-06   -0.10197E-06  2816   0.581E-04
 154 F= -.33460494E+04 E0= -.33460494E+04  d E =-.259011E-04
 BRION: g(F)=  0.487E-04 g(S)=  0.000E+00 retain N=  2 mean eig= 0.73
 eig:   0.148  1.306
 bond charge predicted
       N       E                     dE             d eps       ncg     rms          rms(c)
DAV:   1    -0.333184445190E+04   -0.26514E-04   -0.32307E-04  3232   0.803E-03    0.451E-03
DAV:   2    -0.333184445250E+04   -0.59477E-06   -0.82596E-06  2816   0.108E-03
 155 F= -.33460494E+04 E0= -.33460494E+04  d E =-.829215E-05
 BRION: g(F)=  0.325E-04 g(S)=  0.000E+00 retain N=  1 mean eig= 0.17
 eig:   0.169
 bond charge predicted
       N       E                     dE             d eps       ncg     rms          rms(c)
DAV:   1    -0.333184456701E+04   -0.11510E-03   -0.68137E-03  3584   0.375E-02    0.131E-02
DAV:   2    -0.333184457507E+04   -0.80655E-05   -0.10345E-04  3232   0.353E-03    0.933E-03
DAV:   3    -0.333184457559E+04   -0.51665E-06   -0.11200E-06  2880   0.607E-04
 156 F= -.33460494E+04 E0= -.33460494E+04  d E =-.301041E-04
 BRION: g(F)=  0.332E-04 g(S)=  0.000E+00 retain N=  2 mean eig= 0.13
 eig:   0.175  0.094
 bond charge predicted
       N       E                     dE             d eps       ncg     rms          rms(c)
DAV:   1    -0.333184461576E+04   -0.40685E-04   -0.72860E-04  3232   0.122E-02    0.506E-03
DAV:   2    -0.333184461670E+04   -0.94471E-06   -0.12658E-05  2880   0.133E-03    0.357E-03
DAV:   3    -0.333184461680E+04   -0.10035E-06   -0.13065E-07  2464   0.340E-04
 157 F= -.33460494E+04 E0= -.33460494E+04  d E =-.113477E-04
 BRION: g(F)=  0.335E-04 g(S)=  0.000E+00 retain N=  1 mean eig= 0.19
 eig:   0.193
 bond charge predicted
       N       E                     dE             d eps       ncg     rms          rms(c)
DAV:   1    -0.333184471339E+04   -0.96693E-04   -0.47787E-03  3424   0.313E-02    0.102E-02
DAV:   2    -0.333184471926E+04   -0.58666E-05   -0.72519E-05  3232   0.301E-03    0.718E-03
DAV:   3    -0.333184471949E+04   -0.22771E-06   -0.75790E-07  2848   0.528E-04
 158 F= -.33460495E+04 E0= -.33460495E+04  d E =-.253342E-04
 BRION: g(F)=  0.313E-04 g(S)=  0.000E+00 retain N=  2 mean eig= 0.21
 eig:   0.172  0.250
 bond charge predicted
       N       E                     dE             d eps       ncg     rms          rms(c)
DAV:   1    -0.333184477392E+04   -0.54657E-04   -0.13493E-03  3264   0.167E-02    0.633E-03
DAV:   2    -0.333184477571E+04   -0.17917E-05   -0.22598E-05  2816   0.175E-03    0.450E-03
DAV:   3    -0.333184477584E+04   -0.13376E-06   -0.16951E-07  2624   0.349E-04
 159 F= -.33460495E+04 E0= -.33460495E+04  d E =-.138753E-04
 BRION: g(F)=  0.344E-04 g(S)=  0.000E+00 retain N=  2 mean eig= 0.30
 eig:   0.068  0.531
 bond charge predicted
       N       E                     dE             d eps       ncg     rms          rms(c)
DAV:   1    -0.333184488870E+04   -0.11300E-03   -0.68238E-03  3584   0.374E-02    0.119E-02
DAV:   2    -0.333184489709E+04   -0.83874E-05   -0.10251E-04  3232   0.356E-03    0.827E-03
DAV:   3    -0.333184489736E+04   -0.27020E-06   -0.11382E-06  2848   0.603E-04
 160 F= -.33460495E+04 E0= -.33460495E+04  d E =-.293395E-04
 BRION: g(F)=  0.332E-04 g(S)=  0.000E+00 retain N=  2 mean eig= 3.64
 eig:   0.127  7.147
 bond charge predicted
       N       E                     dE             d eps       ncg     rms          rms(c)
DAV:   1    -0.333184488741E+04    0.96778E-05   -0.14765E-04  3232   0.527E-03    0.305E-03
DAV:   2    -0.333184488786E+04   -0.44541E-06   -0.53289E-06  2784   0.863E-04
 161 F= -.33460495E+04 E0= -.33460495E+04  d E =0.142025E-05
 BRION: g(F)=  0.351E-04 g(S)=  0.000E+00 retain N=  2 mean eig= 1.18
 eig:   0.311  2.051
 bond charge predicted
       N       E                     dE             d eps       ncg     rms          rms(c)
DAV:   1    -0.333184498870E+04   -0.10129E-03   -0.53978E-03  3520   0.333E-02    0.105E-02
DAV:   2    -0.333184499547E+04   -0.67650E-05   -0.81145E-05  3232   0.312E-03    0.717E-03
DAV:   3    -0.333184499572E+04   -0.25146E-06   -0.78911E-07  2816   0.532E-04
 162 F= -.33460495E+04 E0= -.33460495E+04  d E =-.257035E-04
 BRION: g(F)=  0.301E-04 g(S)=  0.000E+00 retain N=  3 mean eig= 3.60
 eig:   7.232  0.319  3.250
 bond charge predicted
       N       E                     dE             d eps       ncg     rms          rms(c)
DAV:   1    -0.333184523266E+04   -0.23719E-03   -0.10774E+00  3584   0.470E-01    0.140E-01
DAV:   2    -0.333184633543E+04   -0.11028E-02   -0.13559E-02  3712   0.420E-02    0.993E-02
DAV:   3    -0.333184636767E+04   -0.32245E-04   -0.17886E-04  4032   0.698E-03    0.659E-02
DAV:   4    -0.333184650020E+04   -0.13253E-03   -0.16545E-04  3360   0.758E-03    0.175E-02
DAV:   5    -0.333184649812E+04    0.20806E-05   -0.34049E-05  3360   0.365E-03    0.121E-02
DAV:   6    -0.333184649899E+04   -0.86601E-06   -0.86042E-06  3168   0.203E-03
 163 F= -.33460499E+04 E0= -.33460499E+04  d E =-.331102E-03
 BRION: g(F)=  0.315E-04 g(S)=  0.000E+00 retain N=  4 mean eig= 4.88
 eig:   7.578  7.578  0.319  4.052
 bond charge predicted
       N       E                     dE             d eps       ncg     rms          rms(c)
DAV:   1    -0.333184531134E+04    0.11868E-02   -0.24215E+00  3584   0.697E-01    0.215E-01
DAV:   2    -0.333184822774E+04   -0.29164E-02   -0.35000E-02  3712   0.643E-02    0.150E-01
DAV:   3    -0.333184828986E+04   -0.62117E-04   -0.41764E-04  4160   0.103E-02    0.103E-01
DAV:   4    -0.333184859572E+04   -0.30586E-03   -0.42166E-04  3552   0.118E-02    0.269E-02
DAV:   5    -0.333184859510E+04    0.61630E-06   -0.82175E-05  3392   0.556E-03    0.192E-02
DAV:   6    -0.333184859601E+04   -0.90501E-06   -0.20167E-05  3392   0.318E-03    0.947E-03
DAV:   7    -0.333184859580E+04    0.20431E-06   -0.33588E-06  3200   0.167E-03
 164 F= -.33460502E+04 E0= -.33460502E+04  d E =-.352815E-03
 BRION: g(F)=  0.135E-04 g(S)=  0.000E+00 retain N=  1 mean eig= 5.71
 eig:   5.714
 reached required accuracy - stopping structural energy minimisation
 PROFILE, used timers:     329
