 running  256 mpi-ranks, with    1 threads/rank, on    7 nodes
 distrk:  each k-point on  128 cores,    2 groups
 distr:  one band on    4 cores,   32 groups
 vasp.6.4.1 05Apr23 (build May 18 2023 13:19:41) complex                         
 POSCAR found type information on POSCAR C S O 
 POSCAR found :  3 types and     368 ions
 Reading from existing POTCAR
 scaLAPACK will be used
 Reading from existing POTCAR
 -----------------------------------------------------------------------------
|                                                                             |
|               ----> ADVICE to this user running VASP <----                  |
|                                                                             |
|     You have a (more or less) 'large supercell' and for larger cells it     |
|     might be more efficient to use real-space projection operators.         |
|     Therefore, try LREAL= Auto in the INCAR file.                           |
|     Mind: If you want to do very accurate calculations, keep the            |
|     reciprocal projection scheme (i.e. LREAL=.FALSE.).                      |
|                                                                             |
 -----------------------------------------------------------------------------

 LDA part: xc-table for Pade appr. of Perdew
 POSCAR, INCAR and KPOINTS ok, starting setup
 FFT: planning ... GRIDC
 FFT: planning ... GRID_SOFT
 FFT: planning ... GRID
 WAVECAR not read
 WARNING: chargedensity file is incomplete
 WARNING: random wavefunctions but no delay for mixing, default for NELMDL
 entering main loop
       N       E                     dE             d eps       ncg     rms          rms(c)
DAV:   1     0.134136594622E+05    0.13414E+05   -0.45826E+05  4544   0.945E+02
DAV:   2     0.174060343801E+03   -0.13240E+05   -0.12477E+05  5248   0.242E+02
DAV:   3    -0.335328248223E+04   -0.35273E+04   -0.34782E+04  4384   0.133E+02
DAV:   4    -0.355394591708E+04   -0.20066E+03   -0.19704E+03  4352   0.406E+01
DAV:   5    -0.355960389029E+04   -0.56580E+01   -0.55728E+01  4832   0.610E+00    0.753E+01
DAV:   6    -0.343484542724E+04    0.12476E+03   -0.77466E+01  3968   0.798E+00    0.550E+01
DAV:   7    -0.332590487740E+04    0.10894E+03   -0.43141E+02  3968   0.183E+01    0.130E+01
DAV:   8    -0.332453372101E+04    0.13712E+01   -0.40615E+01  3872   0.696E+00    0.681E+00
DAV:   9    -0.332447733879E+04    0.56382E-01   -0.37154E+00  4096   0.324E+00    0.423E+00
DAV:  10    -0.332436258890E+04    0.11475E+00   -0.13768E+00  4224   0.217E+00    0.203E+00
DAV:  11    -0.332440460507E+04   -0.42016E-01   -0.18074E+00  4160   0.181E+00    0.158E+00
DAV:  12    -0.332431977673E+04    0.84828E-01   -0.64767E-01  4224   0.979E-01    0.656E-01
DAV:  13    -0.332431361074E+04    0.61660E-02   -0.13337E-01  4096   0.477E-01    0.299E-01
DAV:  14    -0.332431554988E+04   -0.19391E-02   -0.31741E-02  4000   0.245E-01    0.178E-01
DAV:  15    -0.332431597311E+04   -0.42322E-03   -0.56201E-03  4288   0.898E-02    0.119E-01
DAV:  16    -0.332431622319E+04   -0.25009E-03   -0.13593E-03  4128   0.504E-02    0.701E-02
DAV:  17    -0.332431642675E+04   -0.20356E-03   -0.55367E-04  4064   0.314E-02    0.364E-02
DAV:  18    -0.332431641630E+04    0.10448E-04   -0.20238E-04  4000   0.184E-02    0.225E-02
DAV:  19    -0.332431641879E+04   -0.24820E-05   -0.83039E-05  4192   0.113E-02    0.958E-03
DAV:  20    -0.332431642207E+04   -0.32828E-05   -0.15719E-05  4000   0.531E-03    0.558E-03
DAV:  21    -0.332431642342E+04   -0.13543E-05   -0.36765E-06  3872   0.292E-03    0.293E-03
DAV:  22    -0.332431642432E+04   -0.89547E-06   -0.15648E-06  2912   0.178E-03
   1 F= -.33385820E+04 E0= -.33385820E+04  d E =-.333858E+04
 BRION: g(F)=  0.109E+02 g(S)=  0.000E+00
 bond charge predicted
       N       E                     dE             d eps       ncg     rms          rms(c)
DAV:   1    -0.331285901069E+04    0.11457E+02   -0.20743E+03  3584   0.450E+01    0.121E+01
DAV:   2    -0.332778495875E+04   -0.14926E+02   -0.16632E+02  4256   0.970E+00    0.776E+00
DAV:   3    -0.332681353749E+04    0.97142E+00   -0.45198E+00  4224   0.200E+00    0.572E+00
DAV:   4    -0.332618530781E+04    0.62823E+00   -0.55482E+00  4160   0.283E+00    0.287E+00
DAV:   5    -0.332631547957E+04   -0.13017E+00   -0.14314E+00  4032   0.122E+00    0.298E+00
DAV:   6    -0.332618787064E+04    0.12761E+00   -0.43192E-01  3936   0.709E-01    0.126E+00
DAV:   7    -0.332618269597E+04    0.51747E-02   -0.37409E-01  4032   0.562E-01    0.708E-01
DAV:   8    -0.332617977952E+04    0.29165E-02   -0.46707E-02  4544   0.282E-01    0.278E-01
DAV:   9    -0.332618069349E+04   -0.91397E-03   -0.14120E-02  4064   0.127E-01    0.145E-01
DAV:  10    -0.332618068747E+04    0.60220E-05   -0.22318E-03  4256   0.660E-02    0.687E-02
DAV:  11    -0.332618073974E+04   -0.52274E-04   -0.11728E-03  4032   0.438E-02    0.551E-02
DAV:  12    -0.332618071719E+04    0.22548E-04   -0.27032E-04  4032   0.202E-02    0.344E-02
DAV:  13    -0.332618070889E+04    0.83031E-05   -0.10080E-04  4096   0.101E-02    0.124E-02
DAV:  14    -0.332618071009E+04   -0.12025E-05   -0.23166E-05  4192   0.503E-03    0.442E-03
DAV:  15    -0.332618071078E+04   -0.68871E-06   -0.57900E-06  3744   0.260E-03
   2 F= -.33404727E+04 E0= -.33404727E+04  d E =-.189073E+01
 BRION: g(F)=  0.164E+02 g(S)=  0.000E+00 retain N=  1 mean eig= 0.36
 eig:   0.359
 bond charge predicted
       N       E                     dE             d eps       ncg     rms          rms(c)
DAV:   1    -0.332723243347E+04   -0.10517E+01   -0.48930E+02  3744   0.248E+01    0.454E+00
DAV:   2    -0.332836310849E+04   -0.11307E+01   -0.14901E+01  4128   0.376E+00    0.420E+00
DAV:   3    -0.332819010595E+04    0.17300E+00   -0.53633E-01  4288   0.825E-01    0.341E+00
DAV:   4    -0.332797208564E+04    0.21802E+00   -0.11424E+00  4000   0.122E+00    0.978E-01
DAV:   5    -0.332797765528E+04   -0.55696E-02   -0.16946E-01  3936   0.457E-01    0.615E-01
DAV:   6    -0.332797806246E+04   -0.40719E-03   -0.33477E-02  4192   0.210E-01    0.256E-01
DAV:   7    -0.332798007298E+04   -0.20105E-02   -0.55657E-03  3968   0.997E-02    0.164E-01
DAV:   8    -0.332797977526E+04    0.29772E-03   -0.28509E-03  3936   0.606E-02    0.670E-02
DAV:   9    -0.332797971787E+04    0.57388E-04   -0.63376E-04  4160   0.320E-02    0.322E-02
DAV:  10    -0.332797972403E+04   -0.61563E-05   -0.20651E-04  4000   0.162E-02    0.174E-02
DAV:  11    -0.332797972416E+04   -0.13376E-06   -0.32300E-05  4224   0.629E-03    0.975E-03
DAV:  12    -0.332797972272E+04    0.14425E-05   -0.82126E-06  4032   0.349E-03    0.418E-03
DAV:  13    -0.332797972264E+04    0.76601E-07   -0.17151E-06  3040   0.182E-03
   3 F= -.33422665E+04 E0= -.33422665E+04  d E =-.179384E+01
 BRION: g(F)=  0.112E+02 g(S)=  0.000E+00 retain N=  2 mean eig= 1.06
 eig:   0.204  1.922
 bond charge predicted
       N       E                     dE             d eps       ncg     rms          rms(c)
DAV:   1    -0.332942644593E+04   -0.14467E+01   -0.17139E+02  3616   0.143E+01    0.280E+00
DAV:   2    -0.332977813659E+04   -0.35169E+00   -0.48969E+00  4032   0.216E+00    0.239E+00
DAV:   3    -0.332971468775E+04    0.63449E-01   -0.21568E-01  4224   0.516E-01    0.172E+00
DAV:   4    -0.332966555143E+04    0.49136E-01   -0.13248E-01  4000   0.430E-01    0.744E-01
DAV:   5    -0.332966862688E+04   -0.30754E-02   -0.56731E-02  3936   0.259E-01    0.269E-01
DAV:   6    -0.332966848053E+04    0.14635E-03   -0.11392E-02  4096   0.117E-01    0.119E-01
DAV:   7    -0.332966888568E+04   -0.40515E-03   -0.15508E-03  4032   0.457E-02    0.772E-02
DAV:   8    -0.332966887616E+04    0.95121E-05   -0.36821E-04  4032   0.245E-02    0.368E-02
DAV:   9    -0.332966888834E+04   -0.12177E-04   -0.12754E-04  3968   0.124E-02    0.152E-02
DAV:  10    -0.332966888680E+04    0.15412E-05   -0.28595E-05  4192   0.704E-03    0.795E-03
DAV:  11    -0.332966888673E+04    0.69034E-07   -0.85697E-06  3968   0.346E-03
   4 F= -.33439606E+04 E0= -.33439606E+04  d E =-.169406E+01
 BRION: g(F)=  0.138E+01 g(S)=  0.000E+00 retain N=  2 mean eig= 1.60
 eig:   0.173  3.030
 bond charge predicted
       N       E                     dE             d eps       ncg     rms          rms(c)
DAV:   1    -0.332954822695E+04    0.12066E+00   -0.15332E+02  3584   0.130E+01    0.203E+00
DAV:   2    -0.332990660086E+04   -0.35837E+00   -0.41725E+00  4128   0.182E+00    0.179E+00
DAV:   3    -0.332988466917E+04    0.21932E-01   -0.11496E-01  4256   0.360E-01    0.143E+00
DAV:   4    -0.332985198910E+04    0.32680E-01   -0.10922E-01  4160   0.409E-01    0.563E-01
DAV:   5    -0.332985510771E+04   -0.31186E-02   -0.37438E-02  3936   0.216E-01    0.256E-01
DAV:   6    -0.332985520604E+04   -0.98326E-04   -0.70580E-03  4320   0.114E-01    0.110E-01
DAV:   7    -0.332985544358E+04   -0.23754E-03   -0.17608E-03  4032   0.459E-02    0.747E-02
DAV:   8    -0.332985543488E+04    0.87053E-05   -0.26213E-04  4256   0.203E-02    0.508E-02
DAV:   9    -0.332985544348E+04   -0.86071E-05   -0.11665E-04  4064   0.122E-02    0.277E-02
DAV:  10    -0.332985544373E+04   -0.24703E-06   -0.50262E-05  4128   0.871E-03    0.100E-02
DAV:  11    -0.332985544431E+04   -0.57893E-06   -0.15523E-05  4000   0.438E-03    0.361E-03
DAV:  12    -0.332985544444E+04   -0.12724E-06   -0.14572E-06  2848   0.157E-03
   5 F= -.33441494E+04 E0= -.33441494E+04  d E =-.188799E+00
 BRION: g(F)=  0.386E+01 g(S)=  0.000E+00 retain N=  3 mean eig= 1.45
 eig:   4.014  0.208  0.137
 bond charge predicted
       N       E                     dE             d eps       ncg     rms          rms(c)
DAV:   1    -0.333022300280E+04   -0.36756E+00   -0.47367E+01  3584   0.767E+00    0.149E+00
DAV:   2    -0.333032306183E+04   -0.10006E+00   -0.14230E+00  4160   0.116E+00    0.127E+00
DAV:   3    -0.333030700727E+04    0.16055E-01   -0.72166E-02  4224   0.282E-01    0.948E-01
DAV:   4    -0.333029276833E+04    0.14239E-01   -0.26286E-02  3968   0.205E-01    0.508E-01
DAV:   5    -0.333029220825E+04    0.56008E-03   -0.25529E-02  4032   0.176E-01    0.199E-01
DAV:   6    -0.333029170160E+04    0.50665E-03   -0.81618E-03  3968   0.958E-02    0.814E-02
DAV:   7    -0.333029183077E+04   -0.12917E-03   -0.86757E-04  4032   0.369E-02    0.572E-02
DAV:   8    -0.333029181039E+04    0.20378E-04   -0.43618E-04  4128   0.254E-02    0.305E-02
DAV:   9    -0.333029181828E+04   -0.78891E-05   -0.65376E-05  3936   0.944E-03    0.213E-02
DAV:  10    -0.333029181431E+04    0.39731E-05   -0.39298E-05  4160   0.795E-03    0.681E-03
DAV:  11    -0.333029181400E+04    0.30454E-06   -0.10314E-05  3936   0.357E-03    0.313E-03
DAV:  12    -0.333029181408E+04   -0.76951E-07   -0.15284E-06  3136   0.136E-03
   6 F= -.33445854E+04 E0= -.33445854E+04  d E =-.435999E+00
 BRION: g(F)=  0.762E+00 g(S)=  0.000E+00 retain N=  1 mean eig= 0.20
 eig:   0.204
 bond charge predicted
       N       E                     dE             d eps       ncg     rms          rms(c)
DAV:   1    -0.333015090683E+04    0.14091E+00   -0.76834E+01  3584   0.869E+00    0.162E+00
DAV:   2    -0.333036319978E+04   -0.21229E+00   -0.24944E+00  4192   0.129E+00    0.138E+00
DAV:   3    -0.333035094392E+04    0.12256E-01   -0.61362E-02  4288   0.253E-01    0.110E+00
DAV:   4    -0.333033374524E+04    0.17199E-01   -0.50811E-02  4032   0.269E-01    0.429E-01
DAV:   5    -0.333033563583E+04   -0.18906E-02   -0.19617E-02  4032   0.140E-01    0.199E-01
DAV:   6    -0.333033538783E+04    0.24800E-03   -0.43880E-03  4128   0.837E-02    0.832E-02
DAV:   7    -0.333033552650E+04   -0.13866E-03   -0.83747E-04  3968   0.324E-02    0.624E-02
DAV:   8    -0.333033550909E+04    0.17404E-04   -0.22901E-04  4064   0.166E-02    0.349E-02
DAV:   9    -0.333033552239E+04   -0.13297E-04   -0.48459E-05  4000   0.751E-03    0.197E-02
DAV:  10    -0.333033552015E+04    0.22382E-05   -0.26296E-05  4000   0.568E-03    0.691E-03
DAV:  11    -0.333033552084E+04   -0.68406E-06   -0.66591E-06  3872   0.275E-03
   7 F= -.33446284E+04 E0= -.33446284E+04  d E =-.430604E-01
 BRION: g(F)=  0.305E+01 g(S)=  0.000E+00 retain N=  2 mean eig= 0.07
 eig:   0.118  0.028
 bond charge predicted
       N       E                     dE             d eps       ncg     rms          rms(c)
DAV:   1    -0.333056679751E+04   -0.23128E+00   -0.19835E+01  3584   0.477E+00    0.103E+00
DAV:   2    -0.333063193323E+04   -0.65136E-01   -0.83761E-01  4000   0.799E-01    0.105E+00
DAV:   3    -0.333062733766E+04    0.45956E-02   -0.21887E-02  4416   0.139E-01    0.934E-01
DAV:   4    -0.333061065510E+04    0.16683E-01   -0.28529E-02  3808   0.196E-01    0.387E-01
DAV:   5    -0.333061011631E+04    0.53879E-03   -0.14868E-02  3904   0.122E-01    0.138E-01
DAV:   6    -0.333061000215E+04    0.11416E-03   -0.30941E-03  4064   0.629E-02    0.504E-02
DAV:   7    -0.333061010043E+04   -0.98282E-04   -0.33373E-04  3968   0.210E-02    0.375E-02
DAV:   8    -0.333061007676E+04    0.23667E-04   -0.10141E-04  4064   0.121E-02    0.169E-02
DAV:   9    -0.333061008511E+04   -0.83459E-05   -0.32216E-05  4032   0.535E-03    0.984E-03
DAV:  10    -0.333061008530E+04   -0.19197E-06   -0.68129E-06  3968   0.332E-03
   8 F= -.33449025E+04 E0= -.33449025E+04  d E =-.274020E+00
 BRION: g(F)=  0.428E+00 g(S)=  0.000E+00 retain N=  1 mean eig= 0.16
 eig:   0.162
 bond charge predicted
       N       E                     dE             d eps       ncg     rms          rms(c)
DAV:   1    -0.333054135181E+04    0.68733E-01   -0.49639E+01  3584   0.695E+00    0.125E+00
DAV:   2    -0.333067079566E+04   -0.12944E+00   -0.15218E+00  4192   0.103E+00    0.105E+00
DAV:   3    -0.333066400533E+04    0.67903E-02   -0.37993E-02  4352   0.201E-01    0.841E-01
DAV:   4    -0.333065532727E+04    0.86781E-02   -0.24311E-02  4128   0.194E-01    0.359E-01
DAV:   5    -0.333065669710E+04   -0.13698E-02   -0.12475E-02  4000   0.115E-01    0.157E-01
DAV:   6    -0.333065653148E+04    0.16562E-03   -0.33015E-03  4128   0.704E-02    0.668E-02
DAV:   7    -0.333065662809E+04   -0.96608E-04   -0.54383E-04  3936   0.252E-02    0.490E-02
DAV:   8    -0.333065660481E+04    0.23272E-04   -0.15106E-04  4192   0.136E-02    0.257E-02
DAV:   9    -0.333065660851E+04   -0.36969E-05   -0.32637E-05  3968   0.622E-03    0.147E-02
DAV:  10    -0.333065660646E+04    0.20495E-05   -0.17563E-05  3968   0.441E-03    0.539E-03
DAV:  11    -0.333065660681E+04   -0.34564E-06   -0.38448E-06  3776   0.207E-03
   9 F= -.33449470E+04 E0= -.33449470E+04  d E =-.445830E-01
 BRION: g(F)=  0.162E+01 g(S)=  0.000E+00 retain N=  2 mean eig= 0.40
 eig:   0.122  0.685
 bond charge predicted
       N       E                     dE             d eps       ncg     rms          rms(c)
DAV:   1    -0.333080971515E+04   -0.15311E+00   -0.11167E+01  3584   0.390E+00    0.698E-01
DAV:   2    -0.333083673171E+04   -0.27017E-01   -0.36727E-01  4128   0.607E-01    0.700E-01
DAV:   3    -0.333083391362E+04    0.28181E-02   -0.12381E-02  4512   0.113E-01    0.604E-01
DAV:   4    -0.333082669516E+04    0.72185E-02   -0.13109E-02  4032   0.145E-01    0.265E-01
DAV:   5    -0.333082642482E+04    0.27034E-03   -0.68656E-03  3872   0.928E-02    0.897E-02
DAV:   6    -0.333082643484E+04   -0.10015E-04   -0.11219E-03  3904   0.392E-02    0.364E-02
DAV:   7    -0.333082647616E+04   -0.41323E-04   -0.14919E-04  4192   0.139E-02    0.221E-02
DAV:   8    -0.333082647107E+04    0.50904E-05   -0.19313E-05  4192   0.535E-03    0.151E-02
DAV:   9    -0.333082646972E+04    0.13470E-05   -0.19103E-05  4096   0.514E-03    0.512E-03
DAV:  10    -0.333082647005E+04   -0.33097E-06   -0.37414E-06  3552   0.233E-03
  10 F= -.33451167E+04 E0= -.33451167E+04  d E =-.169694E+00
 BRION: g(F)=  0.206E+00 g(S)=  0.000E+00 retain N=  1 mean eig= 0.18
 eig:   0.177
 bond charge predicted
       N       E                     dE             d eps       ncg     rms          rms(c)
DAV:   1    -0.333084937833E+04   -0.22909E-01   -0.29445E+01  3584   0.521E+00    0.898E-01
DAV:   2    -0.333091558006E+04   -0.66202E-01   -0.78865E-01  4160   0.739E-01    0.688E-01
DAV:   3    -0.333091275208E+04    0.28280E-02   -0.22938E-02  4288   0.156E-01    0.542E-01
DAV:   4    -0.333091038105E+04    0.23710E-02   -0.88372E-03  4256   0.118E-01    0.267E-01
DAV:   5    -0.333091139212E+04   -0.10111E-02   -0.57118E-03  3968   0.828E-02    0.114E-01
DAV:   6    -0.333091137538E+04    0.16738E-04   -0.16919E-03  4032   0.482E-02    0.507E-02
DAV:   7    -0.333091140488E+04   -0.29498E-04   -0.27395E-04  3968   0.175E-02    0.339E-02
DAV:   8    -0.333091139464E+04    0.10234E-04   -0.55773E-05  4192   0.845E-03    0.196E-02
DAV:   9    -0.333091139399E+04    0.65134E-06   -0.12482E-05  4000   0.406E-03    0.974E-03
DAV:  10    -0.333091139342E+04    0.56822E-06   -0.79233E-06  4064   0.307E-03
  11 F= -.33451986E+04 E0= -.33451986E+04  d E =-.818876E-01
 BRION: g(F)=  0.501E+00 g(S)=  0.000E+00 retain N=  2 mean eig= 0.16
 eig:   0.156  0.156
 bond charge predicted
       N       E                     dE             d eps       ncg     rms          rms(c)
DAV:   1    -0.333097285445E+04   -0.61460E-01   -0.46405E+00  3584   0.251E+00    0.405E-01
DAV:   2    -0.333098219210E+04   -0.93377E-02   -0.12520E-01  4096   0.373E-01    0.388E-01
DAV:   3    -0.333098101776E+04    0.11743E-02   -0.47247E-03  4736   0.735E-02    0.318E-01
DAV:   4    -0.333097915887E+04    0.18589E-02   -0.57418E-03  4096   0.956E-02    0.126E-01
DAV:   5    -0.333097919858E+04   -0.39713E-04   -0.17554E-03  3904   0.484E-02    0.506E-02
DAV:   6    -0.333097919467E+04    0.39146E-05   -0.27052E-04  4320   0.202E-02    0.201E-02
DAV:   7    -0.333097920112E+04   -0.64522E-05   -0.46485E-05  4096   0.760E-03    0.131E-02
DAV:   8    -0.333097920032E+04    0.79488E-06   -0.11538E-05  4256   0.431E-03    0.702E-03
DAV:   9    -0.333097919981E+04    0.51490E-06   -0.29453E-06  3520   0.217E-03
  12 F= -.33452664E+04 E0= -.33452664E+04  d E =-.678094E-01
 BRION: g(F)=  0.132E+00 g(S)=  0.000E+00 retain N=  1 mean eig= 0.21
 eig:   0.206
 bond charge predicted
       N       E                     dE             d eps       ncg     rms          rms(c)
DAV:   1    -0.333100211787E+04   -0.22918E-01   -0.19466E+01  3584   0.384E+00    0.743E-01
DAV:   2    -0.333105025835E+04   -0.48140E-01   -0.54732E-01  4032   0.541E-01    0.558E-01
DAV:   3    -0.333104891822E+04    0.13401E-02   -0.10574E-02  4384   0.102E-01    0.444E-01
DAV:   4    -0.333104802770E+04    0.89052E-03   -0.68675E-03  4032   0.960E-02    0.162E-01
DAV:   5    -0.333104877339E+04   -0.74569E-03   -0.27892E-03  4000   0.510E-02    0.823E-02
DAV:   6    -0.333104877335E+04    0.38650E-07   -0.65000E-04  4128   0.307E-02    0.402E-02
DAV:   7    -0.333104878695E+04   -0.13604E-04   -0.12421E-04  4000   0.127E-02    0.275E-02
DAV:   8    -0.333104878193E+04    0.50272E-05   -0.34405E-05  4096   0.638E-03    0.140E-02
DAV:   9    -0.333104878361E+04   -0.16862E-05   -0.75473E-06  3936   0.279E-03    0.723E-03
DAV:  10    -0.333104878379E+04   -0.17637E-06   -0.42373E-06  3360   0.209E-03
  13 F= -.33453337E+04 E0= -.33453337E+04  d E =-.672719E-01
 BRION: g(F)=  0.332E+00 g(S)=  0.000E+00 retain N=  2 mean eig= 0.14
 eig:   0.136  0.143
 bond charge predicted
       N       E                     dE             d eps       ncg     rms          rms(c)
DAV:   1    -0.333108180612E+04   -0.33023E-01   -0.27816E+00  3584   0.163E+00    0.369E-01
DAV:   2    -0.333109040313E+04   -0.85970E-02   -0.10941E-01  3936   0.260E-01    0.349E-01
DAV:   3    -0.333108957019E+04    0.83294E-03   -0.24995E-03  4352   0.471E-02    0.288E-01
DAV:   4    -0.333108837145E+04    0.11987E-02   -0.29647E-03  3712   0.606E-02    0.103E-01
DAV:   5    -0.333108852999E+04   -0.15853E-03   -0.12224E-03  4096   0.321E-02    0.393E-02
DAV:   6    -0.333108852666E+04    0.33283E-05   -0.20140E-04  4064   0.161E-02    0.158E-02
DAV:   7    -0.333108853677E+04   -0.10109E-04   -0.29271E-05  4032   0.602E-03    0.125E-02
DAV:   8    -0.333108853471E+04    0.20578E-05   -0.12099E-05  3648   0.345E-03    0.432E-03
DAV:   9    -0.333108853570E+04   -0.98837E-06   -0.19206E-06  3072   0.132E-03
  14 F= -.33453729E+04 E0= -.33453729E+04  d E =-.392403E-01
 BRION: g(F)=  0.112E+00 g(S)=  0.000E+00 retain N=  1 mean eig= 0.16
 eig:   0.164
 bond charge predicted
       N       E                     dE             d eps       ncg     rms          rms(c)
DAV:   1    -0.333110614661E+04   -0.17612E-01   -0.15316E+01  3584   0.337E+00    0.658E-01
DAV:   2    -0.333114370218E+04   -0.37556E-01   -0.42746E-01  4000   0.472E-01    0.501E-01
DAV:   3    -0.333114264046E+04    0.10617E-02   -0.78355E-03  4352   0.880E-02    0.397E-01
DAV:   4    -0.333114213280E+04    0.50766E-03   -0.58724E-03  4096   0.865E-02    0.139E-01
DAV:   5    -0.333114271518E+04   -0.58238E-03   -0.20755E-03  3872   0.433E-02    0.720E-02
DAV:   6    -0.333114271789E+04   -0.27138E-05   -0.42651E-04  4096   0.251E-02    0.344E-02
DAV:   7    -0.333114272706E+04   -0.91695E-05   -0.89599E-05  4032   0.106E-02    0.230E-02
DAV:   8    -0.333114272360E+04    0.34600E-05   -0.20257E-05  4096   0.486E-03    0.129E-02
DAV:   9    -0.333114272411E+04   -0.50897E-06   -0.47995E-06  3648   0.249E-03
  15 F= -.33454250E+04 E0= -.33454250E+04  d E =-.520525E-01
 BRION: g(F)=  0.281E+00 g(S)=  0.000E+00 retain N=  2 mean eig= 0.22
 eig:   0.112  0.319
 bond charge predicted
       N       E                     dE             d eps       ncg     rms          rms(c)
DAV:   1    -0.333117335809E+04   -0.30634E-01   -0.20701E+00  3584   0.157E+00    0.287E-01
DAV:   2    -0.333117832536E+04   -0.49673E-02   -0.65821E-02  4064   0.239E-01    0.272E-01
DAV:   3    -0.333117781284E+04    0.51252E-03   -0.20957E-03  4416   0.465E-02    0.223E-01
DAV:   4    -0.333117702959E+04    0.78325E-03   -0.15318E-03  3840   0.493E-02    0.979E-02
DAV:   5    -0.333117705825E+04   -0.28656E-04   -0.90769E-04  3968   0.325E-02    0.333E-02
DAV:   6    -0.333117705547E+04    0.27753E-05   -0.18131E-04  4032   0.152E-02    0.127E-02
DAV:   7    -0.333117706268E+04   -0.72086E-05   -0.20434E-05  3968   0.526E-03    0.971E-03
DAV:   8    -0.333117706093E+04    0.17566E-05   -0.45382E-06  3584   0.265E-03    0.473E-03
DAV:   9    -0.333117706107E+04   -0.14890E-06   -0.20112E-06  3200   0.153E-03
  16 F= -.33454588E+04 E0= -.33454588E+04  d E =-.337823E-01
 BRION: g(F)=  0.735E-01 g(S)=  0.000E+00 retain N=  1 mean eig= 0.18
 eig:   0.178
 bond charge predicted
       N       E                     dE             d eps       ncg     rms          rms(c)
DAV:   1    -0.333120270794E+04   -0.25647E-01   -0.12125E+01  3584   0.288E+00    0.555E-01
DAV:   2    -0.333123083016E+04   -0.28122E-01   -0.31669E-01  3904   0.391E-01    0.390E-01
DAV:   3    -0.333123048172E+04    0.34844E-03   -0.49214E-03  4416   0.707E-02    0.309E-01
DAV:   4    -0.333123076755E+04   -0.28584E-03   -0.38486E-03  4000   0.716E-02    0.985E-02
DAV:   5    -0.333123114264E+04   -0.37508E-03   -0.13212E-03  3872   0.343E-02    0.598E-02
DAV:   6    -0.333123112042E+04    0.22219E-04   -0.28440E-04  4064   0.212E-02    0.302E-02
DAV:   7    -0.333123112430E+04   -0.38818E-05   -0.75730E-05  4032   0.937E-03    0.198E-02
DAV:   8    -0.333123112197E+04    0.23346E-05   -0.15272E-05  4064   0.421E-03    0.111E-02
DAV:   9    -0.333123112206E+04   -0.97556E-07   -0.32539E-06  3488   0.210E-03
  17 F= -.33455110E+04 E0= -.33455110E+04  d E =-.521709E-01
 BRION: g(F)=  0.118E+00 g(S)=  0.000E+00 retain N=  2 mean eig= 0.15
 eig:   0.146  0.146
 bond charge predicted
       N       E                     dE             d eps       ncg     rms          rms(c)
DAV:   1    -0.333124773602E+04   -0.16614E-01   -0.13232E+00  3584   0.117E+00    0.220E-01
DAV:   2    -0.333125103863E+04   -0.33026E-02   -0.41610E-02  4000   0.175E-01    0.201E-01
DAV:   3    -0.333125075210E+04    0.28654E-03   -0.10792E-03  4352   0.333E-02    0.163E-01
DAV:   4    -0.333125042556E+04    0.32654E-03   -0.94671E-04  3840   0.375E-02    0.628E-02
DAV:   5    -0.333125047752E+04   -0.51958E-04   -0.41228E-04  4032   0.210E-02    0.246E-02
DAV:   6    -0.333125047657E+04    0.95018E-06   -0.78948E-05  4192   0.101E-02    0.104E-02
DAV:   7    -0.333125047911E+04   -0.25419E-05   -0.10080E-05  4000   0.386E-03    0.803E-03
DAV:   8    -0.333125047791E+04    0.11978E-05   -0.30684E-06  3360   0.211E-03    0.372E-03
DAV:   9    -0.333125047802E+04   -0.10838E-06   -0.84730E-07  2976   0.107E-03
  18 F= -.33455297E+04 E0= -.33455297E+04  d E =-.187496E-01
 BRION: g(F)=  0.667E-01 g(S)=  0.000E+00 retain N=  2 mean eig= 2.94
 eig:   0.182  5.689
 bond charge predicted
       N       E                     dE             d eps       ncg     rms          rms(c)
DAV:   1    -0.333127347189E+04   -0.22994E-01   -0.66137E+00  3584   0.201E+00    0.417E-01
DAV:   2    -0.333128873184E+04   -0.15260E-01   -0.17494E-01  3968   0.273E-01    0.304E-01
DAV:   3    -0.333128844939E+04    0.28246E-03   -0.27528E-03  4384   0.499E-02    0.239E-01
DAV:   4    -0.333128849995E+04   -0.50565E-04   -0.19034E-03  4000   0.465E-02    0.800E-02
DAV:   5    -0.333128876012E+04   -0.26017E-03   -0.78971E-04  3872   0.237E-02    0.439E-02
DAV:   6    -0.333128874372E+04    0.16404E-04   -0.14774E-04  4000   0.142E-02    0.227E-02
DAV:   7    -0.333128874734E+04   -0.36196E-05   -0.39105E-05  4000   0.638E-03    0.142E-02
DAV:   8    -0.333128874562E+04    0.17192E-05   -0.68852E-06  3712   0.272E-03    0.762E-03
DAV:   9    -0.333128874580E+04   -0.17986E-06   -0.15319E-06  3232   0.136E-03
  19 F= -.33455665E+04 E0= -.33455665E+04  d E =-.367664E-01
 BRION: g(F)=  0.774E-01 g(S)=  0.000E+00 retain N=  2 mean eig= 0.73
 eig:   0.130  1.329
 bond charge predicted
       N       E                     dE             d eps       ncg     rms          rms(c)
DAV:   1    -0.333130565665E+04   -0.16911E-01   -0.19264E+00  3584   0.113E+00    0.246E-01
DAV:   2    -0.333131056437E+04   -0.49077E-02   -0.57378E-02  3936   0.163E-01    0.200E-01
DAV:   3    -0.333131036481E+04    0.19955E-03   -0.93178E-04  4416   0.293E-02    0.159E-01
DAV:   4    -0.333131029916E+04    0.65654E-04   -0.10747E-03  3872   0.354E-02    0.448E-02
DAV:   5    -0.333131037038E+04   -0.71224E-04   -0.30523E-04  4096   0.160E-02    0.254E-02
DAV:   6    -0.333131037143E+04   -0.10470E-05   -0.45870E-05  4160   0.812E-03    0.139E-02
DAV:   7    -0.333131037203E+04   -0.59966E-06   -0.11167E-05  4032   0.375E-03    0.855E-03
DAV:   8    -0.333131037138E+04    0.65321E-06   -0.26920E-06  3328   0.173E-03
  20 F= -.33455874E+04 E0= -.33455874E+04  d E =-.208845E-01
 BRION: g(F)=  0.523E-01 g(S)=  0.000E+00 retain N=  1 mean eig= 0.16
 eig:   0.165
 bond charge predicted
       N       E                     dE             d eps       ncg     rms          rms(c)
DAV:   1    -0.333133014753E+04   -0.19775E-01   -0.64042E+00  3584   0.203E+00    0.402E-01
DAV:   2    -0.333134453420E+04   -0.14387E-01   -0.16343E-01  3840   0.272E-01    0.282E-01
DAV:   3    -0.333134437817E+04    0.15603E-03   -0.24973E-03  4384   0.484E-02    0.223E-01
DAV:   4    -0.333134456261E+04   -0.18444E-03   -0.18254E-03  3904   0.482E-02    0.684E-02
DAV:   5    -0.333134476933E+04   -0.20672E-03   -0.66572E-04  3968   0.232E-02    0.425E-02
DAV:   6    -0.333134475462E+04    0.14711E-04   -0.12842E-04  4032   0.135E-02    0.214E-02
DAV:   7    -0.333134475708E+04   -0.24561E-05   -0.31281E-05  3968   0.596E-03    0.138E-02
DAV:   8    -0.333134475568E+04    0.13966E-05   -0.80814E-06  3808   0.294E-03    0.708E-03
DAV:   9    -0.333134475580E+04   -0.11339E-06   -0.13854E-06  3104   0.135E-03
  21 F= -.33456203E+04 E0= -.33456203E+04  d E =-.329115E-01
 BRION: g(F)=  0.636E-01 g(S)=  0.000E+00 retain N=  2 mean eig= 0.37
 eig:   0.126  0.607
 bond charge predicted
       N       E                     dE             d eps       ncg     rms          rms(c)
DAV:   1    -0.333135630823E+04   -0.11553E-01   -0.95753E-01  3584   0.962E-01    0.165E-01
DAV:   2    -0.333135841344E+04   -0.21052E-02   -0.25514E-02  3936   0.137E-01    0.138E-01
DAV:   3    -0.333135828571E+04    0.12773E-03   -0.64472E-04  4448   0.264E-02    0.109E-01
DAV:   4    -0.333135818341E+04    0.10231E-03   -0.40290E-04  3904   0.257E-02    0.442E-02
DAV:   5    -0.333135821714E+04   -0.33738E-04   -0.19856E-04  3936   0.150E-02    0.186E-02
DAV:   6    -0.333135821514E+04    0.20069E-05   -0.41474E-05  4064   0.751E-03    0.770E-03
DAV:   7    -0.333135821647E+04   -0.13371E-05   -0.57248E-06  3936   0.283E-03    0.578E-03
DAV:   8    -0.333135821608E+04    0.38987E-06   -0.12836E-06  3040   0.134E-03
  22 F= -.33456332E+04 E0= -.33456332E+04  d E =-.129700E-01
 BRION: g(F)=  0.439E-01 g(S)=  0.000E+00 retain N=  2 mean eig= 0.63
 eig:   0.183  1.073
 bond charge predicted
       N       E                     dE             d eps       ncg     rms          rms(c)
DAV:   1    -0.333137482665E+04   -0.16610E-01   -0.39801E+00  3584   0.150E+00    0.326E-01
DAV:   2    -0.333138394063E+04   -0.91140E-02   -0.10496E-01  3872   0.202E-01    0.235E-01
DAV:   3    -0.333138380792E+04    0.13271E-03   -0.15396E-03  4416   0.359E-02    0.185E-01
DAV:   4    -0.333138398054E+04   -0.17262E-03   -0.12384E-03  3904   0.354E-02    0.527E-02
DAV:   5    -0.333138411596E+04   -0.13543E-03   -0.40819E-04  3968   0.168E-02    0.332E-02
DAV:   6    -0.333138410898E+04    0.69768E-05   -0.64736E-05  3968   0.903E-03    0.176E-02
DAV:   7    -0.333138411001E+04   -0.10214E-05   -0.18307E-05  4032   0.435E-03    0.984E-03
DAV:   8    -0.333138410923E+04    0.77661E-06   -0.35755E-06  3488   0.200E-03
  23 F= -.33456579E+04 E0= -.33456579E+04  d E =-.246878E-01
 BRION: g(F)=  0.492E-01 g(S)=  0.000E+00 retain N=  2 mean eig= 0.32
 eig:   0.136  0.503
 bond charge predicted
       N       E                     dE             d eps       ncg     rms          rms(c)
DAV:   1    -0.333139614148E+04   -0.12031E-01   -0.14126E+00  3584   0.876E-01    0.205E-01
DAV:   2    -0.333139959813E+04   -0.34566E-02   -0.40288E-02  3840   0.121E-01    0.160E-01
DAV:   3    -0.333139949147E+04    0.10665E-03   -0.59875E-04  4352   0.214E-02    0.126E-01
DAV:   4    -0.333139949615E+04   -0.46770E-05   -0.55371E-04  3744   0.227E-02    0.357E-02
DAV:   5    -0.333139955807E+04   -0.61914E-04   -0.19526E-04  4000   0.108E-02    0.204E-02
DAV:   6    -0.333139955407E+04    0.39947E-05   -0.25738E-05  3936   0.574E-03    0.113E-02
DAV:   7    -0.333139955501E+04   -0.94250E-06   -0.83415E-06  4096   0.281E-03
  24 F= -.33456727E+04 E0= -.33456727E+04  d E =-.148054E-01
 BRION: g(F)=  0.349E-01 g(S)=  0.000E+00 retain N=  1 mean eig= 0.15
 eig:   0.155
 bond charge predicted
       N       E                     dE             d eps       ncg     rms          rms(c)
DAV:   1    -0.333141508739E+04   -0.15533E-01   -0.43782E+00  3584   0.156E+00    0.332E-01
DAV:   2    -0.333142474040E+04   -0.96530E-02   -0.11018E-01  3808   0.208E-01    0.229E-01
DAV:   3    -0.333142466739E+04    0.73005E-04   -0.14791E-03  4416   0.359E-02    0.180E-01
DAV:   4    -0.333142499393E+04   -0.32654E-03   -0.12763E-03  3936   0.371E-02    0.464E-02
DAV:   5    -0.333142510886E+04   -0.11493E-03   -0.39399E-04  3904   0.166E-02    0.337E-02
DAV:   6    -0.333142509987E+04    0.89892E-05   -0.63477E-05  4000   0.921E-03    0.174E-02
DAV:   7    -0.333142510098E+04   -0.11098E-05   -0.18347E-05  4032   0.441E-03    0.981E-03
DAV:   8    -0.333142510033E+04    0.65228E-06   -0.39770E-06  3520   0.204E-03
  25 F= -.33456970E+04 E0= -.33456970E+04  d E =-.242771E-01
 BRION: g(F)=  0.351E-01 g(S)=  0.000E+00 retain N=  2 mean eig= 1.25
 eig:   0.126  2.379
 bond charge predicted
       N       E                     dE             d eps       ncg     rms          rms(c)
DAV:   1    -0.333143397040E+04   -0.88694E-02   -0.92580E-01  3584   0.843E-01    0.157E-01
DAV:   2    -0.333143598979E+04   -0.20194E-02   -0.23688E-02  3872   0.117E-01    0.119E-01
DAV:   3    -0.333143592572E+04    0.64070E-04   -0.43075E-04  4352   0.214E-02    0.934E-02
DAV:   4    -0.333143592957E+04   -0.38475E-05   -0.37250E-04  3936   0.236E-02    0.303E-02
DAV:   5    -0.333143596150E+04   -0.31925E-04   -0.12065E-04  3872   0.111E-02    0.166E-02
DAV:   6    -0.333143596092E+04    0.57288E-06   -0.21601E-05  3904   0.536E-03    0.773E-03
DAV:   7    -0.333143596146E+04   -0.53947E-06   -0.33218E-06  3776   0.215E-03
  26 F= -.33457073E+04 E0= -.33457073E+04  d E =-.103028E-01
 BRION: g(F)=  0.326E-01 g(S)=  0.000E+00 retain N=  2 mean eig= 0.37
 eig:   0.165  0.570
 bond charge predicted
       N       E                     dE             d eps       ncg     rms          rms(c)
DAV:   1    -0.333144805366E+04   -0.12093E-01   -0.26706E+00  3584   0.122E+00    0.263E-01
DAV:   2    -0.333145406070E+04   -0.60070E-02   -0.69140E-02  3840   0.162E-01    0.188E-01
DAV:   3    -0.333145398676E+04    0.73938E-04   -0.93902E-04  4384   0.281E-02    0.148E-01
DAV:   4    -0.333145414934E+04   -0.16258E-03   -0.77947E-04  3840   0.286E-02    0.409E-02
DAV:   5    -0.333145424757E+04   -0.98229E-04   -0.27729E-04  3872   0.132E-02    0.268E-02
DAV:   6    -0.333145424046E+04    0.71088E-05   -0.39779E-05  3936   0.703E-03    0.142E-02
DAV:   7    -0.333145424163E+04   -0.11704E-05   -0.13723E-05  4032   0.348E-03    0.793E-03
DAV:   8    -0.333145424123E+04    0.40559E-06   -0.24367E-06  3200   0.156E-03
  27 F= -.33457246E+04 E0= -.33457246E+04  d E =-.172993E-01
 BRION: g(F)=  0.361E-01 g(S)=  0.000E+00 retain N=  2 mean eig= 0.22
 eig:   0.158  0.275
 bond charge predicted
       N       E                     dE             d eps       ncg     rms          rms(c)
DAV:   1    -0.333146237696E+04   -0.81353E-02   -0.78044E-01  3584   0.633E-01    0.159E-01
DAV:   2    -0.333146429201E+04   -0.19150E-02   -0.22998E-02  3808   0.883E-02    0.128E-01
DAV:   3    -0.333146421444E+04    0.77569E-04   -0.32235E-04  4320   0.151E-02    0.101E-01
DAV:   4    -0.333146425609E+04   -0.41648E-04   -0.39203E-04  3776   0.173E-02    0.245E-02
DAV:   5    -0.333146428838E+04   -0.32288E-04   -0.99151E-05  4032   0.751E-03    0.153E-02
DAV:   6    -0.333146428888E+04   -0.50245E-06   -0.11083E-05  3872   0.350E-03    0.879E-03
DAV:   7    -0.333146428896E+04   -0.85100E-07   -0.34682E-06  3424   0.194E-03
  28 F= -.33457341E+04 E0= -.33457341E+04  d E =-.951163E-02
 BRION: g(F)=  0.262E-01 g(S)=  0.000E+00 retain N=  2 mean eig= 3.67
 eig:   0.137  7.209
 bond charge predicted
       N       E                     dE             d eps       ncg     rms          rms(c)
DAV:   1    -0.333147615208E+04   -0.11863E-01   -0.29516E+00  3584   0.127E+00    0.271E-01
DAV:   2    -0.333148266705E+04   -0.65150E-02   -0.73637E-02  3744   0.167E-01    0.187E-01
DAV:   3    -0.333148261089E+04    0.56161E-04   -0.92814E-04  4384   0.282E-02    0.147E-01
DAV:   4    -0.333148285591E+04   -0.24503E-03   -0.87231E-04  3872   0.306E-02    0.374E-02
DAV:   5    -0.333148294986E+04   -0.93944E-04   -0.27414E-04  3872   0.135E-02    0.280E-02
DAV:   6    -0.333148294392E+04    0.59400E-05   -0.42280E-05  3936   0.743E-03    0.147E-02
DAV:   7    -0.333148294516E+04   -0.12447E-05   -0.14567E-05  4000   0.362E-03    0.841E-03
DAV:   8    -0.333148294499E+04    0.17579E-06   -0.32559E-06  3296   0.181E-03
  29 F= -.33457517E+04 E0= -.33457517E+04  d E =-.175740E-01
 BRION: g(F)=  0.246E-01 g(S)=  0.000E+00 retain N=  2 mean eig= 1.49
 eig:   0.135  2.848
 bond charge predicted
       N       E                     dE             d eps       ncg     rms          rms(c)
DAV:   1    -0.333149094361E+04   -0.79984E-02   -0.94441E-01  3584   0.782E-01    0.154E-01
DAV:   2    -0.333149299681E+04   -0.20532E-02   -0.23647E-02  3840   0.105E-01    0.109E-01
DAV:   3    -0.333149297331E+04    0.23499E-04   -0.34929E-04  4448   0.185E-02    0.861E-02
DAV:   4    -0.333149305145E+04   -0.78143E-04   -0.29104E-04  3872   0.198E-02    0.250E-02
DAV:   5    -0.333149308835E+04   -0.36894E-04   -0.98726E-05  3872   0.903E-03    0.162E-02
DAV:   6    -0.333149308810E+04    0.24424E-06   -0.17541E-05  3904   0.489E-03    0.764E-03
DAV:   7    -0.333149308874E+04   -0.63900E-06   -0.36856E-06  3712   0.215E-03
  30 F= -.33457612E+04 E0= -.33457612E+04  d E =-.952117E-02
 BRION: g(F)=  0.231E-01 g(S)=  0.000E+00 retain N=  2 mean eig= 0.43
 eig:   0.136  0.719
 bond charge predicted
       N       E                     dE             d eps       ncg     rms          rms(c)
DAV:   1    -0.333150335146E+04   -0.10263E-01   -0.24549E+00  3584   0.116E+00    0.251E-01
DAV:   2    -0.333150882521E+04   -0.54737E-02   -0.62007E-02  3744   0.153E-01    0.175E-01
DAV:   3    -0.333150877749E+04    0.47720E-04   -0.74892E-04  4384   0.254E-02    0.138E-01
DAV:   4    -0.333150901945E+04   -0.24196E-03   -0.82460E-04  3872   0.293E-02    0.327E-02
DAV:   5    -0.333150908494E+04   -0.65489E-04   -0.23145E-04  3968   0.126E-02    0.255E-02
DAV:   6    -0.333150908319E+04    0.17486E-05   -0.31903E-05  3968   0.645E-03    0.134E-02
DAV:   7    -0.333150908411E+04   -0.92131E-06   -0.97426E-06  4000   0.314E-03
  31 F= -.33457762E+04 E0= -.33457762E+04  d E =-.149540E-01
 BRION: g(F)=  0.257E-01 g(S)=  0.000E+00 retain N=  2 mean eig= 0.13
 eig:   0.141  0.117
 bond charge predicted
       N       E                     dE             d eps       ncg     rms          rms(c)
DAV:   1    -0.333151406179E+04   -0.49786E-02   -0.38467E-01  3584   0.436E-01    0.115E-01
DAV:   2    -0.333151504076E+04   -0.97897E-03   -0.11861E-02  3808   0.615E-02    0.940E-02
DAV:   3    -0.333151499956E+04    0.41200E-04   -0.17227E-04  4416   0.105E-02    0.736E-02
DAV:   4    -0.333151501116E+04   -0.11606E-04   -0.17924E-04  3744   0.114E-02    0.207E-02
DAV:   5    -0.333151503576E+04   -0.24596E-04   -0.62730E-05  3936   0.546E-03    0.111E-02
DAV:   6    -0.333151503460E+04    0.11622E-05   -0.80859E-06  3456   0.287E-03    0.573E-03
DAV:   7    -0.333151503518E+04   -0.58545E-06   -0.22277E-06  3296   0.137E-03
  32 F= -.33457818E+04 E0= -.33457818E+04  d E =-.558879E-02
 BRION: g(F)=  0.214E-01 g(S)=  0.000E+00 retain N=  2 mean eig= 3.18
 eig:   0.145  6.214
 bond charge predicted
       N       E                     dE             d eps       ncg     rms          rms(c)
DAV:   1    -0.333152496408E+04   -0.99295E-02   -0.24318E+00  3584   0.114E+00    0.244E-01
DAV:   2    -0.333153026715E+04   -0.53031E-02   -0.60054E-02  3744   0.148E-01    0.169E-01
DAV:   3    -0.333153024422E+04    0.22929E-04   -0.70447E-04  4384   0.245E-02    0.134E-01
DAV:   4    -0.333153049771E+04   -0.25349E-03   -0.76500E-04  3872   0.277E-02    0.314E-02
DAV:   5    -0.333153055478E+04   -0.57065E-04   -0.21562E-04  3936   0.118E-02    0.251E-02
DAV:   6    -0.333153055148E+04    0.32972E-05   -0.32026E-05  3936   0.643E-03    0.129E-02
DAV:   7    -0.333153055207E+04   -0.58627E-06   -0.95935E-06  4064   0.309E-03
  33 F= -.33457962E+04 E0= -.33457962E+04  d E =-.144402E-01
 BRION: g(F)=  0.193E-01 g(S)=  0.000E+00 retain N=  2 mean eig= 1.83
 eig:   0.133  3.534
 bond charge predicted
       N       E                     dE             d eps       ncg     rms          rms(c)
DAV:   1    -0.333153733049E+04   -0.67790E-02   -0.86020E-01  3584   0.734E-01    0.147E-01
DAV:   2    -0.333153920626E+04   -0.18758E-02   -0.21481E-02  3776   0.984E-02    0.105E-01
DAV:   3    -0.333153918467E+04    0.21597E-04   -0.28400E-04  4416   0.165E-02    0.826E-02
DAV:   4    -0.333153926311E+04   -0.78443E-04   -0.31100E-04  3872   0.202E-02    0.211E-02
DAV:   5    -0.333153928697E+04   -0.23866E-04   -0.88759E-05  3840   0.857E-03    0.154E-02
DAV:   6    -0.333153928629E+04    0.68964E-06   -0.14786E-05  3968   0.450E-03    0.736E-03
DAV:   7    -0.333153928667E+04   -0.38312E-06   -0.32560E-06  3520   0.192E-03
  34 F= -.33458043E+04 E0= -.33458043E+04  d E =-.810611E-02
 BRION: g(F)=  0.188E-01 g(S)=  0.000E+00 retain N=  2 mean eig= 0.47
 eig:   0.138  0.811
 bond charge predicted
       N       E                     dE             d eps       ncg     rms          rms(c)
DAV:   1    -0.333154802232E+04   -0.87360E-02   -0.25008E+00  3584   0.116E+00    0.248E-01
DAV:   2    -0.333155354898E+04   -0.55267E-02   -0.62288E-02  3744   0.152E-01    0.172E-01
DAV:   3    -0.333155351652E+04    0.32465E-04   -0.77282E-04  4384   0.250E-02    0.136E-01
DAV:   4    -0.333155370935E+04   -0.19283E-03   -0.70750E-04  3840   0.272E-02    0.351E-02
DAV:   5    -0.333155378808E+04   -0.78732E-04   -0.23532E-04  3808   0.122E-02    0.259E-02
DAV:   6    -0.333155378257E+04    0.55078E-05   -0.38190E-05  4000   0.696E-03    0.135E-02
DAV:   7    -0.333155378335E+04   -0.77870E-06   -0.13020E-05  3936   0.334E-03    0.786E-03
DAV:   8    -0.333155378310E+04    0.25425E-06   -0.29922E-06  3296   0.165E-03
  35 F= -.33458177E+04 E0= -.33458177E+04  d E =-.133894E-01
 BRION: g(F)=  0.219E-01 g(S)=  0.000E+00 retain N=  2 mean eig= 0.07
 eig:   0.133  0.009
 bond charge predicted
       N       E                     dE             d eps       ncg     rms          rms(c)
DAV:   1    -0.333155589810E+04   -0.21148E-02   -0.12063E-01  3616   0.235E-01    0.856E-02
DAV:   2    -0.333155626734E+04   -0.36924E-03   -0.50480E-03  3744   0.382E-02    0.778E-02
DAV:   3    -0.333155622022E+04    0.47123E-04   -0.90065E-05  4224   0.684E-03    0.613E-02
DAV:   4    -0.333155620695E+04    0.13268E-04   -0.11490E-04  3744   0.812E-03    0.181E-02
DAV:   5    -0.333155622145E+04   -0.14498E-04   -0.38561E-05  3968   0.401E-03    0.765E-03
DAV:   6    -0.333155622103E+04    0.41642E-06   -0.55296E-06  3264   0.205E-03
  36 F= -.33458200E+04 E0= -.33458200E+04  d E =-.225709E-02
 BRION: g(F)=  0.180E-01 g(S)=  0.000E+00 retain N=  2 mean eig= 2.90
 eig:   0.140  5.657
 bond charge predicted
       N       E                     dE             d eps       ncg     rms          rms(c)
DAV:   1    -0.333156463906E+04   -0.84176E-02   -0.21189E+00  3584   0.106E+00    0.226E-01
DAV:   2    -0.333156924489E+04   -0.46058E-02   -0.51804E-02  3744   0.137E-01    0.158E-01
DAV:   3    -0.333156921581E+04    0.29076E-04   -0.60720E-04  4384   0.223E-02    0.124E-01
DAV:   4    -0.333156939276E+04   -0.17695E-03   -0.65751E-04  3808   0.260E-02    0.297E-02
DAV:   5    -0.333156944697E+04   -0.54209E-04   -0.19468E-04  3904   0.112E-02    0.238E-02
DAV:   6    -0.333156944210E+04    0.48607E-05   -0.30514E-05  3904   0.624E-03    0.125E-02
DAV:   7    -0.333156944246E+04   -0.35670E-06   -0.11037E-05  4064   0.306E-03    0.718E-03
DAV:   8    -0.333156944227E+04    0.19628E-06   -0.27278E-06  3232   0.161E-03
  37 F= -.33458321E+04 E0= -.33458321E+04  d E =-.121779E-01
 BRION: g(F)=  0.155E-01 g(S)=  0.000E+00 retain N=  2 mean eig= 2.47
 eig:   0.141  4.802
 bond charge predicted
       N       E                     dE             d eps       ncg     rms          rms(c)
DAV:   1    -0.333157527208E+04   -0.58296E-02   -0.73647E-01  3584   0.668E-01    0.134E-01
DAV:   2    -0.333157684643E+04   -0.15743E-02   -0.18006E-02  3776   0.875E-02    0.942E-02
DAV:   3    -0.333157683101E+04    0.15414E-04   -0.23429E-04  4384   0.148E-02    0.745E-02
DAV:   4    -0.333157689583E+04   -0.64814E-04   -0.23978E-04  3808   0.173E-02    0.189E-02
DAV:   5    -0.333157691476E+04   -0.18939E-04   -0.70761E-05  3872   0.740E-03    0.141E-02
DAV:   6    -0.333157691387E+04    0.89640E-06   -0.12065E-05  3872   0.408E-03    0.669E-03
DAV:   7    -0.333157691415E+04   -0.28196E-06   -0.27825E-06  3424   0.181E-03
  38 F= -.33458390E+04 E0= -.33458390E+04  d E =-.684341E-02
 BRION: g(F)=  0.147E-01 g(S)=  0.000E+00 retain N=  2 mean eig= 0.46
 eig:   0.107  0.812
 bond charge predicted
       N       E                     dE             d eps       ncg     rms          rms(c)
DAV:   1    -0.333158459538E+04   -0.76815E-02   -0.23772E+00  3584   0.113E+00    0.241E-01
DAV:   2    -0.333158970000E+04   -0.51046E-02   -0.57756E-02  3744   0.146E-01    0.167E-01
DAV:   3    -0.333158967056E+04    0.29440E-04   -0.65372E-04  4352   0.236E-02    0.132E-01
DAV:   4    -0.333158988802E+04   -0.21746E-03   -0.81866E-04  3776   0.290E-02    0.295E-02
DAV:   5    -0.333158992700E+04   -0.38980E-04   -0.20876E-04  3872   0.120E-02    0.249E-02
DAV:   6    -0.333158992293E+04    0.40702E-05   -0.33040E-05  3936   0.648E-03    0.123E-02
DAV:   7    -0.333158992367E+04   -0.73982E-06   -0.93337E-06  4000   0.298E-03
  39 F= -.33458508E+04 E0= -.33458508E+04  d E =-.118528E-01
 BRION: g(F)=  0.170E-01 g(S)=  0.000E+00 retain N=  2 mean eig= 0.16
 eig:   0.158  0.158
 bond charge predicted
       N       E                     dE             d eps       ncg     rms          rms(c)
DAV:   1    -0.333159083507E+04   -0.91214E-03   -0.77178E-02  3648   0.191E-01    0.753E-02
DAV:   2    -0.333159109524E+04   -0.26017E-03   -0.36041E-03  3744   0.324E-02    0.691E-02
DAV:   3    -0.333159105761E+04    0.37631E-04   -0.73019E-05  4192   0.606E-03    0.537E-02
DAV:   4    -0.333159103242E+04    0.25196E-04   -0.77099E-05  3648   0.684E-03    0.182E-02
DAV:   5    -0.333159104125E+04   -0.88379E-05   -0.34845E-05  3872   0.383E-03    0.644E-03
DAV:   6    -0.333159104087E+04    0.38894E-06   -0.48708E-06  3072   0.199E-03
  40 F= -.33458519E+04 E0= -.33458519E+04  d E =-.103860E-02
 BRION: g(F)=  0.159E-01 g(S)=  0.000E+00 retain N=  2 mean eig= 2.65
 eig:   0.149  5.146
 bond charge predicted
       N       E                     dE             d eps       ncg     rms          rms(c)
DAV:   1    -0.333159805137E+04   -0.70101E-02   -0.15781E+00  3584   0.913E-01    0.197E-01
DAV:   2    -0.333160143568E+04   -0.33843E-02   -0.38467E-02  3744   0.117E-01    0.139E-01
DAV:   3    -0.333160140189E+04    0.33791E-04   -0.45718E-04  4384   0.192E-02    0.110E-01
DAV:   4    -0.333160153743E+04   -0.13554E-03   -0.52907E-04  3776   0.227E-02    0.250E-02
DAV:   5    -0.333160156952E+04   -0.32084E-04   -0.14032E-04  3840   0.957E-03    0.202E-02
DAV:   6    -0.333160156712E+04    0.24005E-05   -0.19876E-05  3936   0.499E-03    0.103E-02
DAV:   7    -0.333160156762E+04   -0.49884E-06   -0.63504E-06  3872   0.244E-03
  41 F= -.33458614E+04 E0= -.33458614E+04  d E =-.956533E-02
 BRION: g(F)=  0.130E-01 g(S)=  0.000E+00 retain N=  2 mean eig= 3.26
 eig:   0.142  6.373
 bond charge predicted
       N       E                     dE             d eps       ncg     rms          rms(c)
DAV:   1    -0.333160651615E+04   -0.49490E-02   -0.61461E-01  3584   0.596E-01    0.123E-01
DAV:   2    -0.333160783717E+04   -0.13210E-02   -0.14997E-02  3776   0.781E-02    0.866E-02
DAV:   3    -0.333160781858E+04    0.18584E-04   -0.18286E-04  4352   0.128E-02    0.683E-02
DAV:   4    -0.333160787199E+04   -0.53411E-04   -0.22040E-04  3776   0.162E-02    0.160E-02
DAV:   5    -0.333160788434E+04   -0.12342E-04   -0.58846E-05  3808   0.675E-03    0.128E-02
DAV:   6    -0.333160788350E+04    0.83726E-06   -0.95480E-06  3744   0.356E-03
  42 F= -.33458672E+04 E0= -.33458672E+04  d E =-.572572E-02
 BRION: g(F)=  0.117E-01 g(S)=  0.000E+00 retain N=  2 mean eig= 0.63
 eig:   0.124  1.134
 bond charge predicted
       N       E                     dE             d eps       ncg     rms          rms(c)
DAV:   1    -0.333161433546E+04   -0.64511E-02   -0.18818E+00  3584   0.989E-01    0.212E-01
DAV:   2    -0.333161835994E+04   -0.40245E-02   -0.45394E-02  3776   0.128E-01    0.147E-01
DAV:   3    -0.333161833297E+04    0.26967E-04   -0.51880E-04  4352   0.206E-02    0.116E-01
DAV:   4    -0.333161849852E+04   -0.16554E-03   -0.62289E-04  3776   0.253E-02    0.260E-02
DAV:   5    -0.333161853043E+04   -0.31914E-04   -0.16452E-04  3776   0.105E-02    0.223E-02
DAV:   6    -0.333161852583E+04    0.46000E-05   -0.26814E-05  3904   0.580E-03    0.110E-02
DAV:   7    -0.333161852646E+04   -0.62794E-06   -0.91278E-06  4032   0.281E-03
  43 F= -.33458767E+04 E0= -.33458767E+04  d E =-.958056E-02
 BRION: g(F)=  0.127E-01 g(S)=  0.000E+00 retain N=  2 mean eig= 0.15
 eig:   0.149  0.149
 bond charge predicted
       N       E                     dE             d eps       ncg     rms          rms(c)
DAV:   1    -0.333162024420E+04   -0.17184E-02   -0.11068E-01  3584   0.260E-01    0.714E-02
DAV:   2    -0.333162055940E+04   -0.31520E-03   -0.39881E-03  3776   0.389E-02    0.629E-02
DAV:   3    -0.333162053064E+04    0.28761E-04   -0.67733E-05  4320   0.673E-03    0.500E-02
DAV:   4    -0.333162052069E+04    0.99463E-05   -0.85914E-05  3712   0.856E-03    0.138E-02
DAV:   5    -0.333162052939E+04   -0.86996E-05   -0.26314E-05  4000   0.398E-03    0.669E-03
DAV:   6    -0.333162052938E+04    0.16182E-07   -0.33546E-06  3168   0.185E-03
  44 F= -.33458785E+04 E0= -.33458785E+04  d E =-.178676E-02
 BRION: g(F)=  0.134E-01 g(S)=  0.000E+00 retain N=  2 mean eig= 1.50
 eig:   0.143  2.867
 bond charge predicted
       N       E                     dE             d eps       ncg     rms          rms(c)
DAV:   1    -0.333162603462E+04   -0.55052E-02   -0.11767E+00  3584   0.762E-01    0.171E-01
DAV:   2    -0.333162862358E+04   -0.25890E-02   -0.29342E-02  3808   0.992E-02    0.123E-01
DAV:   3    -0.333162858498E+04    0.38601E-04   -0.33194E-04  4416   0.158E-02    0.967E-02
DAV:   4    -0.333162866667E+04   -0.81693E-04   -0.40530E-04  3712   0.192E-02    0.218E-02
DAV:   5    -0.333162869438E+04   -0.27705E-04   -0.11336E-04  3936   0.808E-03    0.176E-02
DAV:   6    -0.333162869218E+04    0.21952E-05   -0.13846E-05  3712   0.416E-03    0.948E-03
DAV:   7    -0.333162869258E+04   -0.40198E-06   -0.69071E-06  3872   0.235E-03
  45 F= -.33458859E+04 E0= -.33458859E+04  d E =-.733009E-02
 BRION: g(F)=  0.117E-01 g(S)=  0.000E+00 retain N=  2 mean eig= 2.04
 eig:   0.139  3.935
 bond charge predicted
       N       E                     dE             d eps       ncg     rms          rms(c)
DAV:   1    -0.333163243270E+04   -0.37405E-02   -0.37016E-01  3584   0.462E-01    0.979E-02
DAV:   2    -0.333163324434E+04   -0.81164E-03   -0.93161E-03  3744   0.618E-02    0.719E-02
DAV:   3    -0.333163322505E+04    0.19294E-04   -0.12284E-04  4416   0.103E-02    0.568E-02
DAV:   4    -0.333163325175E+04   -0.26697E-04   -0.14890E-04  3744   0.133E-02    0.134E-02
DAV:   5    -0.333163326042E+04   -0.86701E-05   -0.39551E-05  3840   0.554E-03    0.100E-02
DAV:   6    -0.333163326040E+04    0.15250E-07   -0.50619E-06  3584   0.263E-03
  46 F= -.33458899E+04 E0= -.33458899E+04  d E =-.408881E-02
 BRION: g(F)=  0.948E-02 g(S)=  0.000E+00 retain N=  2 mean eig= 1.42
 eig:   0.137  2.708
 bond charge predicted
       N       E                     dE             d eps       ncg     rms          rms(c)
DAV:   1    -0.333163857182E+04   -0.53114E-02   -0.14141E+00  3584   0.845E-01    0.185E-01
DAV:   2    -0.333164162422E+04   -0.30524E-02   -0.34352E-02  3744   0.109E-01    0.128E-01
DAV:   3    -0.333164159678E+04    0.27441E-04   -0.38154E-04  4416   0.177E-02    0.101E-01
DAV:   4    -0.333164172885E+04   -0.13207E-03   -0.49198E-04  3776   0.221E-02    0.221E-02
DAV:   5    -0.333164174800E+04   -0.19150E-04   -0.12445E-04  3776   0.909E-03    0.193E-02
DAV:   6    -0.333164174498E+04    0.30223E-05   -0.19965E-05  3744   0.490E-03    0.962E-03
DAV:   7    -0.333164174536E+04   -0.38499E-06   -0.61187E-06  3840   0.233E-03
  47 F= -.33458975E+04 E0= -.33458975E+04  d E =-.753114E-02
 BRION: g(F)=  0.104E-01 g(S)=  0.000E+00 retain N=  2 mean eig= 0.25
 eig:   0.144  0.346
 bond charge predicted
       N       E                     dE             d eps       ncg     rms          rms(c)
DAV:   1    -0.333164423987E+04   -0.24949E-02   -0.19984E-01  3584   0.349E-01    0.773E-02
DAV:   2    -0.333164471500E+04   -0.47514E-03   -0.55495E-03  3840   0.483E-02    0.613E-02
DAV:   3    -0.333164469474E+04    0.20269E-04   -0.82544E-05  4416   0.819E-03    0.482E-02
DAV:   4    -0.333164469483E+04   -0.93831E-07   -0.90402E-05  3712   0.101E-02    0.133E-02
DAV:   5    -0.333164470344E+04   -0.86067E-05   -0.28840E-05  3936   0.452E-03    0.788E-03
DAV:   6    -0.333164470331E+04    0.12119E-06   -0.40377E-06  3392   0.223E-03
  48 F= -.33459001E+04 E0= -.33459001E+04  d E =-.263203E-02
 BRION: g(F)=  0.989E-02 g(S)=  0.000E+00 retain N=  2 mean eig= 0.74
 eig:   0.138  1.334
 bond charge predicted
       N       E                     dE             d eps       ncg     rms          rms(c)
DAV:   1    -0.333164914868E+04   -0.44452E-02   -0.88930E-01  3584   0.665E-01    0.151E-01
DAV:   2    -0.333165110552E+04   -0.19568E-02   -0.22265E-02  3776   0.869E-02    0.109E-01
DAV:   3    -0.333165106862E+04    0.36894E-04   -0.26172E-04  4448   0.141E-02    0.861E-02
DAV:   4    -0.333165114373E+04   -0.75109E-04   -0.33396E-04  3712   0.176E-02    0.190E-02
DAV:   5    -0.333165116078E+04   -0.17044E-04   -0.84167E-05  3872   0.729E-03    0.153E-02
DAV:   6    -0.333165116012E+04    0.66089E-06   -0.98036E-06  3552   0.353E-03
  49 F= -.33459058E+04 E0= -.33459058E+04  d E =-.568637E-02
 BRION: g(F)=  0.104E-01 g(S)=  0.000E+00 retain N=  2 mean eig= 0.78
 eig:   0.135  1.421
 bond charge predicted
       N       E                     dE             d eps       ncg     rms          rms(c)
DAV:   1    -0.333165399833E+04   -0.28376E-02   -0.24914E-01  3584   0.371E-01    0.832E-02
DAV:   2    -0.333165457029E+04   -0.57196E-03   -0.65979E-03  3808   0.499E-02    0.625E-02
DAV:   3    -0.333165455239E+04    0.17900E-04   -0.87490E-05  4416   0.828E-03    0.489E-02
DAV:   4    -0.333165456659E+04   -0.14196E-04   -0.93917E-05  3680   0.989E-03    0.125E-02
DAV:   5    -0.333165457573E+04   -0.91454E-05   -0.29279E-05  3936   0.432E-03    0.841E-03
DAV:   6    -0.333165457554E+04    0.18778E-06   -0.36978E-06  3264   0.216E-03
  50 F= -.33459088E+04 E0= -.33459088E+04  d E =-.303561E-02
 BRION: g(F)=  0.790E-02 g(S)=  0.000E+00 retain N=  1 mean eig= 0.16
 eig:   0.158
 bond charge predicted
       N       E                     dE             d eps       ncg     rms          rms(c)
DAV:   1    -0.333165906589E+04   -0.44902E-02   -0.11811E+00  3584   0.772E-01    0.170E-01
DAV:   2    -0.333166160675E+04   -0.25409E-02   -0.28736E-02  3744   0.100E-01    0.119E-01
DAV:   3    -0.333166157798E+04    0.28773E-04   -0.31273E-04  4480   0.159E-02    0.942E-02
DAV:   4    -0.333166169189E+04   -0.11391E-03   -0.44942E-04  3744   0.211E-02    0.203E-02
DAV:   5    -0.333166170579E+04   -0.13897E-04   -0.10889E-04  3776   0.862E-03    0.177E-02
DAV:   6    -0.333166170380E+04    0.19942E-05   -0.17027E-05  3712   0.451E-03    0.881E-03
DAV:   7    -0.333166170426E+04   -0.46275E-06   -0.48495E-06  3552   0.211E-03
  51 F= -.33459151E+04 E0= -.33459151E+04  d E =-.623496E-02
 BRION: g(F)=  0.904E-02 g(S)=  0.000E+00 retain N=  2 mean eig= 0.41
 eig:   0.121  0.701
 bond charge predicted
       N       E                     dE             d eps       ncg     rms          rms(c)
DAV:   1    -0.333166363486E+04   -0.19311E-02   -0.12451E-01  3584   0.280E-01    0.625E-02
DAV:   2    -0.333166393732E+04   -0.30246E-03   -0.35398E-03  3872   0.392E-02    0.505E-02
DAV:   3    -0.333166392324E+04    0.14080E-04   -0.56848E-05  4384   0.687E-03    0.398E-02
DAV:   4    -0.333166391939E+04    0.38546E-05   -0.57409E-05  3680   0.810E-03    0.113E-02
DAV:   5    -0.333166392486E+04   -0.54725E-05   -0.19156E-05  3968   0.373E-03    0.639E-03
DAV:   6    -0.333166392463E+04    0.22852E-06   -0.26255E-06  3104   0.179E-03
  52 F= -.33459170E+04 E0= -.33459170E+04  d E =-.195280E-02
 BRION: g(F)=  0.759E-02 g(S)=  0.000E+00 retain N=  2 mean eig= 0.80
 eig:   0.174  1.432
 bond charge predicted
       N       E                     dE             d eps       ncg     rms          rms(c)
DAV:   1    -0.333166797610E+04   -0.40512E-02   -0.10250E+00  3584   0.703E-01    0.159E-01
DAV:   2    -0.333167018767E+04   -0.22116E-02   -0.25089E-02  3712   0.907E-02    0.112E-01
DAV:   3    -0.333167015857E+04    0.29103E-04   -0.28094E-04  4416   0.145E-02    0.885E-02
DAV:   4    -0.333167024884E+04   -0.90267E-04   -0.34425E-04  3712   0.178E-02    0.196E-02
DAV:   5    -0.333167027094E+04   -0.22103E-04   -0.94768E-05  3840   0.749E-03    0.165E-02
DAV:   6    -0.333167026866E+04    0.22781E-05   -0.12619E-05  3552   0.394E-03    0.877E-03
DAV:   7    -0.333167026874E+04   -0.72410E-07   -0.57539E-06  3648   0.217E-03
  53 F= -.33459225E+04 E0= -.33459225E+04  d E =-.551650E-02
 BRION: g(F)=  0.885E-02 g(S)=  0.000E+00 retain N=  2 mean eig= 0.16
 eig:   0.108  0.211
 bond charge predicted
       N       E                     dE             d eps       ncg     rms          rms(c)
DAV:   1    -0.333167210120E+04   -0.18325E-02   -0.10766E-01  3584   0.246E-01    0.602E-02
DAV:   2    -0.333167236252E+04   -0.26132E-03   -0.31227E-03  3840   0.345E-02    0.486E-02
DAV:   3    -0.333167234880E+04    0.13721E-04   -0.45050E-05  4416   0.581E-03    0.382E-02
DAV:   4    -0.333167235064E+04   -0.18375E-05   -0.58195E-05  3680   0.748E-03    0.938E-03
DAV:   5    -0.333167235532E+04   -0.46808E-05   -0.15249E-05  3904   0.318E-03    0.582E-03
DAV:   6    -0.333167235539E+04   -0.67172E-07   -0.16126E-06  3008   0.141E-03
  54 F= -.33459244E+04 E0= -.33459244E+04  d E =-.182662E-02
 BRION: g(F)=  0.652E-02 g(S)=  0.000E+00 retain N=  1 mean eig= 0.15
 eig:   0.151
 bond charge predicted
       N       E                     dE             d eps       ncg     rms          rms(c)
DAV:   1    -0.333167632539E+04   -0.39701E-02   -0.10809E+00  3584   0.722E-01    0.161E-01
DAV:   2    -0.333167862999E+04   -0.23046E-02   -0.26057E-02  3744   0.929E-02    0.112E-01
DAV:   3    -0.333167860305E+04    0.26937E-04   -0.28477E-04  4416   0.149E-02    0.887E-02
DAV:   4    -0.333167870836E+04   -0.10530E-03   -0.36868E-04  3744   0.188E-02    0.193E-02
DAV:   5    -0.333167872699E+04   -0.18631E-04   -0.97194E-05  3776   0.772E-03    0.170E-02
DAV:   6    -0.333167872426E+04    0.27332E-05   -0.14496E-05  3520   0.419E-03    0.885E-03
DAV:   7    -0.333167872428E+04   -0.19441E-07   -0.57501E-06  3680   0.218E-03
  55 F= -.33459299E+04 E0= -.33459299E+04  d E =-.550229E-02
 BRION: g(F)=  0.711E-02 g(S)=  0.000E+00 retain N=  2 mean eig= 1.10
 eig:   0.138  2.071
 bond charge predicted
       N       E                     dE             d eps       ncg     rms          rms(c)
DAV:   1    -0.333168035925E+04   -0.16350E-02   -0.10509E-01  3584   0.234E-01    0.586E-02
DAV:   2    -0.333168061500E+04   -0.25575E-03   -0.30210E-03  3840   0.324E-02    0.467E-02
DAV:   3    -0.333168060397E+04    0.11036E-04   -0.41362E-05  4384   0.540E-03    0.366E-02
DAV:   4    -0.333168060707E+04   -0.31075E-05   -0.51274E-05  3648   0.669E-03    0.896E-03
DAV:   5    -0.333168061125E+04   -0.41717E-05   -0.14038E-05  3904   0.291E-03    0.567E-03
DAV:   6    -0.333168061109E+04    0.15297E-06   -0.14386E-06  2944   0.133E-03
  56 F= -.33459315E+04 E0= -.33459315E+04  d E =-.163159E-02
 BRION: g(F)=  0.646E-02 g(S)=  0.000E+00 retain N=  2 mean eig= 2.28
 eig:   0.103  4.466
 bond charge predicted
       N       E                     dE             d eps       ncg     rms          rms(c)
DAV:   1    -0.333168417034E+04   -0.35591E-02   -0.88335E-01  3584   0.648E-01    0.149E-01
DAV:   2    -0.333168607417E+04   -0.19038E-02   -0.21606E-02  3744   0.840E-02    0.105E-01
DAV:   3    -0.333168604427E+04    0.29901E-04   -0.23871E-04  4384   0.135E-02    0.830E-02
DAV:   4    -0.333168613106E+04   -0.86789E-04   -0.32245E-04  3744   0.172E-02    0.180E-02
DAV:   5    -0.333168614617E+04   -0.15119E-04   -0.80768E-05  3776   0.703E-03    0.154E-02
DAV:   6    -0.333168614474E+04    0.14320E-05   -0.10949E-05  3520   0.359E-03    0.817E-03
DAV:   7    -0.333168614468E+04    0.63796E-07   -0.36865E-06  3264   0.181E-03
  57 F= -.33459362E+04 E0= -.33459362E+04  d E =-.473814E-02
 BRION: g(F)=  0.741E-02 g(S)=  0.000E+00 retain N=  2 mean eig= 0.10
 eig:   0.106  0.093
 bond charge predicted
       N       E                     dE             d eps       ncg     rms          rms(c)
DAV:   1    -0.333168753963E+04   -0.13949E-02   -0.78280E-02  3584   0.205E-01    0.521E-02
DAV:   2    -0.333168773653E+04   -0.19690E-03   -0.23722E-03  3744   0.289E-02    0.429E-02
DAV:   3    -0.333168772372E+04    0.12814E-04   -0.36275E-05  4416   0.495E-03    0.336E-02
DAV:   4    -0.333168772464E+04   -0.92119E-06   -0.37560E-05  3648   0.579E-03    0.967E-03
DAV:   5    -0.333168772932E+04   -0.46811E-05   -0.13752E-05  3904   0.279E-03    0.511E-03
DAV:   6    -0.333168772906E+04    0.25367E-06   -0.18347E-06  2944   0.143E-03
  58 F= -.33459376E+04 E0= -.33459376E+04  d E =-.137984E-02
 BRION: g(F)=  0.565E-02 g(S)=  0.000E+00 retain N=  2 mean eig= 1.69
 eig:   0.127  3.256
 bond charge predicted
       N       E                     dE             d eps       ncg     rms          rms(c)
DAV:   1    -0.333169108440E+04   -0.33551E-02   -0.76663E-01  3584   0.602E-01    0.138E-01
DAV:   2    -0.333169271511E+04   -0.16307E-02   -0.18575E-02  3712   0.776E-02    0.969E-02
DAV:   3    -0.333169269137E+04    0.23744E-04   -0.19378E-04  4416   0.123E-02    0.766E-02
DAV:   4    -0.333169278703E+04   -0.95659E-04   -0.30101E-04  3776   0.164E-02    0.162E-02
DAV:   5    -0.333169279383E+04   -0.68062E-05   -0.69401E-05  3776   0.667E-03    0.140E-02
DAV:   6    -0.333169279315E+04    0.68336E-06   -0.91950E-06  3456   0.328E-03
  59 F= -.33459419E+04 E0= -.33459419E+04  d E =-.431182E-02
 BRION: g(F)=  0.619E-02 g(S)=  0.000E+00 retain N=  2 mean eig= 1.39
 eig:   0.137  2.642
 bond charge predicted
       N       E                     dE             d eps       ncg     rms          rms(c)
DAV:   1    -0.333169447696E+04   -0.16831E-02   -0.12230E-01  3584   0.241E-01    0.599E-02
DAV:   2    -0.333169475930E+04   -0.28234E-03   -0.32927E-03  3776   0.324E-02    0.450E-02
DAV:   3    -0.333169474913E+04    0.10167E-04   -0.41149E-05  4384   0.533E-03    0.349E-02
DAV:   4    -0.333169476088E+04   -0.11748E-04   -0.46088E-05  3616   0.622E-03    0.855E-03
DAV:   5    -0.333169476550E+04   -0.46191E-05   -0.13583E-05  3904   0.269E-03    0.582E-03
DAV:   6    -0.333169476519E+04    0.30454E-06   -0.15648E-06  3040   0.137E-03
  60 F= -.33459436E+04 E0= -.33459436E+04  d E =-.169087E-02
 BRION: g(F)=  0.518E-02 g(S)=  0.000E+00 retain N=  1 mean eig= 0.14
 eig:   0.145
 bond charge predicted
       N       E                     dE             d eps       ncg     rms          rms(c)
DAV:   1    -0.333169798906E+04   -0.32236E-02   -0.79011E-01  3584   0.614E-01    0.138E-01
DAV:   2    -0.333169965667E+04   -0.16676E-02   -0.18971E-02  3712   0.790E-02    0.962E-02
DAV:   3    -0.333169963750E+04    0.19171E-04   -0.20120E-04  4416   0.126E-02    0.760E-02
DAV:   4    -0.333169973448E+04   -0.96982E-04   -0.28878E-04  3744   0.165E-02    0.163E-02
DAV:   5    -0.333169974460E+04   -0.10118E-04   -0.71104E-05  3776   0.671E-03    0.145E-02
DAV:   6    -0.333169974262E+04    0.19746E-05   -0.10964E-05  3424   0.359E-03    0.730E-03
DAV:   7    -0.333169974270E+04   -0.71828E-07   -0.34460E-06  3296   0.175E-03
  61 F= -.33459478E+04 E0= -.33459478E+04  d E =-.421492E-02
 BRION: g(F)=  0.546E-02 g(S)=  0.000E+00 retain N=  2 mean eig= 0.14
 eig:   0.143  0.143
 bond charge predicted
       N       E                     dE             d eps       ncg     rms          rms(c)
DAV:   1    -0.333170116466E+04   -0.14220E-02   -0.93816E-02  3584   0.221E-01    0.536E-02
DAV:   2    -0.333170138409E+04   -0.21943E-03   -0.25706E-03  3840   0.302E-02    0.416E-02
DAV:   3    -0.333170137510E+04    0.89902E-05   -0.33829E-05  4384   0.500E-03    0.326E-02
DAV:   4    -0.333170138181E+04   -0.67066E-05   -0.43793E-05  3648   0.637E-03    0.762E-03
DAV:   5    -0.333170138471E+04   -0.29055E-05   -0.11049E-05  3904   0.267E-03    0.522E-03
DAV:   6    -0.333170138464E+04    0.69500E-07   -0.11120E-06  2880   0.121E-03
  62 F= -.33459492E+04 E0= -.33459492E+04  d E =-.138694E-02
 BRION: g(F)=  0.519E-02 g(S)=  0.000E+00 retain N=  2 mean eig= 0.50
 eig:   0.156  0.841
 bond charge predicted
       N       E                     dE             d eps       ncg     rms          rms(c)
DAV:   1    -0.333170416811E+04   -0.27834E-02   -0.55536E-01  3584   0.506E-01    0.116E-01
DAV:   2    -0.333170534736E+04   -0.11792E-02   -0.13477E-02  3712   0.653E-02    0.824E-02
DAV:   3    -0.333170532622E+04    0.21142E-04   -0.14626E-04  4416   0.103E-02    0.648E-02
DAV:   4    -0.333170539345E+04   -0.67235E-04   -0.19078E-04  3776   0.131E-02    0.141E-02
DAV:   5    -0.333170540562E+04   -0.12175E-04   -0.51233E-05  3840   0.538E-03    0.121E-02
DAV:   6    -0.333170540398E+04    0.16411E-05   -0.66468E-06  3424   0.284E-03    0.654E-03
DAV:   7    -0.333170540392E+04    0.60070E-07   -0.33000E-06  3328   0.165E-03
  63 F= -.33459526E+04 E0= -.33459526E+04  d E =-.338699E-02
 BRION: g(F)=  0.540E-02 g(S)=  0.000E+00 retain N=  2 mean eig= 1.53
 eig:   0.137  2.920
 bond charge predicted
       N       E                     dE             d eps       ncg     rms          rms(c)
DAV:   1    -0.333170699603E+04   -0.15920E-02   -0.11550E-01  3584   0.237E-01    0.573E-02
DAV:   2    -0.333170725306E+04   -0.25703E-03   -0.30094E-03  3744   0.316E-02    0.433E-02
DAV:   3    -0.333170724431E+04    0.87493E-05   -0.38699E-05  4448   0.522E-03    0.340E-02
DAV:   4    -0.333170725649E+04   -0.12173E-04   -0.47686E-05  3616   0.651E-03    0.784E-03
DAV:   5    -0.333170725982E+04   -0.33365E-05   -0.12180E-05  3904   0.275E-03    0.567E-03
DAV:   6    -0.333170725972E+04    0.98371E-07   -0.12110E-06  2880   0.127E-03
  64 F= -.33459542E+04 E0= -.33459542E+04  d E =-.156372E-02
 BRION: g(F)=  0.444E-02 g(S)=  0.000E+00 retain N=  1 mean eig= 0.16
 eig:   0.156
 bond charge predicted
       N       E                     dE             d eps       ncg     rms          rms(c)
DAV:   1    -0.333171010311E+04   -0.28433E-02   -0.69513E-01  3584   0.567E-01    0.130E-01
DAV:   2    -0.333171156100E+04   -0.14579E-02   -0.16678E-02  3744   0.730E-02    0.905E-02
DAV:   3    -0.333171154328E+04    0.17717E-04   -0.17697E-04  4384   0.116E-02    0.714E-02
DAV:   4    -0.333171163921E+04   -0.95926E-04   -0.25351E-04  3808   0.152E-02    0.154E-02
DAV:   5    -0.333171164826E+04   -0.90509E-05   -0.61937E-05  3808   0.616E-03    0.138E-02
DAV:   6    -0.333171164644E+04    0.18189E-05   -0.98761E-06  3488   0.333E-03    0.710E-03
DAV:   7    -0.333171164637E+04    0.74855E-07   -0.30813E-06  3296   0.163E-03
  65 F= -.33459578E+04 E0= -.33459578E+04  d E =-.366201E-02
 BRION: g(F)=  0.490E-02 g(S)=  0.000E+00 retain N=  2 mean eig= 0.14
 eig:   0.139  0.143
 bond charge predicted
       N       E                     dE             d eps       ncg     rms          rms(c)
DAV:   1    -0.333171282156E+04   -0.11751E-02   -0.75536E-02  3648   0.187E-01    0.492E-02
DAV:   2    -0.333171300438E+04   -0.18283E-03   -0.21656E-03  3776   0.256E-02    0.392E-02
DAV:   3    -0.333171299531E+04    0.90768E-05   -0.29069E-05  4256   0.425E-03    0.306E-02
DAV:   4    -0.333171299955E+04   -0.42462E-05   -0.33704E-05  3520   0.508E-03    0.785E-03
DAV:   5    -0.333171300286E+04   -0.33109E-05   -0.10384E-05  3808   0.227E-03    0.477E-03
DAV:   6    -0.333171300264E+04    0.22422E-06   -0.11689E-06  2912   0.116E-03
  66 F= -.33459590E+04 E0= -.33459590E+04  d E =-.113792E-02
 BRION: g(F)=  0.452E-02 g(S)=  0.000E+00 retain N=  2 mean eig= 0.43
 eig:   0.065  0.798
 bond charge predicted
       N       E                     dE             d eps       ncg     rms          rms(c)
DAV:   1    -0.333171543340E+04   -0.24305E-02   -0.44076E-01  3584   0.451E-01    0.106E-01
DAV:   2    -0.333171636372E+04   -0.93033E-03   -0.10758E-02  3712   0.582E-02    0.754E-02
DAV:   3    -0.333171634797E+04    0.15748E-04   -0.11671E-04  4448   0.931E-03    0.594E-02
DAV:   4    -0.333171641510E+04   -0.67122E-04   -0.17692E-04  3776   0.124E-02    0.127E-02
DAV:   5    -0.333171642009E+04   -0.49908E-05   -0.40444E-05  3840   0.502E-03    0.106E-02
DAV:   6    -0.333171641985E+04    0.23295E-06   -0.48186E-06  3264   0.239E-03
  67 F= -.33459618E+04 E0= -.33459618E+04  d E =-.283093E-02
 BRION: g(F)=  0.473E-02 g(S)=  0.000E+00 retain N=  2 mean eig= 1.13
 eig:   0.137  2.132
 bond charge predicted
       N       E                     dE             d eps       ncg     rms          rms(c)
DAV:   1    -0.333171792317E+04   -0.15031E-02   -0.12319E-01  3648   0.242E-01    0.580E-02
DAV:   2    -0.333171819715E+04   -0.27398E-03   -0.31890E-03  3776   0.319E-02    0.423E-02
DAV:   3    -0.333171818900E+04    0.81531E-05   -0.37652E-05  4416   0.514E-03    0.330E-02
DAV:   4    -0.333171820710E+04   -0.18107E-04   -0.43848E-05  3584   0.622E-03    0.773E-03
DAV:   5    -0.333171821107E+04   -0.39684E-05   -0.12503E-05  3904   0.263E-03    0.577E-03
DAV:   6    -0.333171821076E+04    0.31281E-06   -0.14824E-06  2976   0.136E-03
  68 F= -.33459633E+04 E0= -.33459633E+04  d E =-.149825E-02
 BRION: g(F)=  0.387E-02 g(S)=  0.000E+00 retain N=  1 mean eig= 0.15
 eig:   0.147
 bond charge predicted
       N       E                     dE             d eps       ncg     rms          rms(c)
DAV:   1    -0.333172070682E+04   -0.24958E-02   -0.60129E-01  3648   0.525E-01    0.121E-01
DAV:   2    -0.333172196807E+04   -0.12613E-02   -0.14522E-02  3680   0.673E-02    0.852E-02
DAV:   3    -0.333172195361E+04    0.14461E-04   -0.15386E-04  4448   0.106E-02    0.672E-02
DAV:   4    -0.333172205339E+04   -0.99774E-04   -0.22694E-04  3808   0.142E-02    0.143E-02
DAV:   5    -0.333172206170E+04   -0.83135E-05   -0.53959E-05  3808   0.572E-03    0.127E-02
DAV:   6    -0.333172206046E+04    0.12435E-05   -0.79454E-06  3360   0.301E-03    0.653E-03
DAV:   7    -0.333172206046E+04   -0.46566E-09   -0.26236E-06  3296   0.150E-03
  69 F= -.33459665E+04 E0= -.33459665E+04  d E =-.316864E-02
 BRION: g(F)=  0.468E-02 g(S)=  0.000E+00 retain N=  2 mean eig= 0.12
 eig:   0.122  0.122
 bond charge predicted
       N       E                     dE             d eps       ncg     rms          rms(c)
DAV:   1    -0.333172294687E+04   -0.88642E-03   -0.40409E-02  3648   0.135E-01    0.383E-02
DAV:   2    -0.333172304998E+04   -0.10311E-03   -0.12344E-03  3808   0.189E-02    0.315E-02
DAV:   3    -0.333172304474E+04    0.52400E-05   -0.17588E-05  4032   0.325E-03    0.246E-02
DAV:   4    -0.333172304559E+04   -0.84203E-06   -0.21026E-05  3424   0.377E-03    0.624E-03
DAV:   5    -0.333172304745E+04   -0.18599E-05   -0.59228E-06  3360   0.167E-03    0.364E-03
DAV:   6    -0.333172304736E+04    0.87079E-07   -0.63615E-07  2784   0.842E-04
  70 F= -.33459673E+04 E0= -.33459673E+04  d E =-.822480E-03
 BRION: g(F)=  0.369E-02 g(S)=  0.000E+00 retain N=  2 mean eig= 1.04
 eig:   0.182  1.904
 bond charge predicted
       N       E                     dE             d eps       ncg     rms          rms(c)
DAV:   1    -0.333172541016E+04   -0.23627E-02   -0.52084E-01  3648   0.485E-01    0.112E-01
DAV:   2    -0.333172649105E+04   -0.10809E-02   -0.12455E-02  3680   0.620E-02    0.778E-02
DAV:   3    -0.333172647932E+04    0.11734E-04   -0.13268E-04  4448   0.978E-03    0.613E-02
DAV:   4    -0.333172656859E+04   -0.89273E-04   -0.18139E-04  3776   0.127E-02    0.132E-02
DAV:   5    -0.333172657849E+04   -0.98972E-05   -0.46519E-05  3808   0.516E-03    0.119E-02
DAV:   6    -0.333172657704E+04    0.14525E-05   -0.69570E-06  3392   0.283E-03    0.628E-03
DAV:   7    -0.333172657701E+04    0.25844E-07   -0.31350E-06  3296   0.159E-03
  71 F= -.33459702E+04 E0= -.33459702E+04  d E =-.289843E-02
 BRION: g(F)=  0.408E-02 g(S)=  0.000E+00 retain N=  2 mean eig= 0.44
 eig:   0.137  0.745
 bond charge predicted
       N       E                     dE             d eps       ncg     rms          rms(c)
DAV:   1    -0.333172776359E+04   -0.11866E-02   -0.74150E-02  3648   0.183E-01    0.460E-02
DAV:   2    -0.333172792437E+04   -0.16078E-03   -0.19161E-03  3712   0.241E-02    0.343E-02
DAV:   3    -0.333172792071E+04    0.36658E-05   -0.22814E-05  4224   0.387E-03    0.268E-02
DAV:   4    -0.333172793338E+04   -0.12674E-04   -0.31147E-05  3488   0.496E-03    0.582E-03
DAV:   5    -0.333172793534E+04   -0.19561E-05   -0.72189E-06  3584   0.204E-03    0.443E-03
DAV:   6    -0.333172793535E+04   -0.72177E-08   -0.64930E-07  2848   0.957E-04
  72 F= -.33459713E+04 E0= -.33459713E+04  d E =-.111695E-02
 BRION: g(F)=  0.343E-02 g(S)=  0.000E+00 retain N=  1 mean eig= 0.15
 eig:   0.151
 bond charge predicted
       N       E                     dE             d eps       ncg     rms          rms(c)
DAV:   1    -0.333173032455E+04   -0.23892E-02   -0.58843E-01  3648   0.513E-01    0.119E-01
DAV:   2    -0.333173153761E+04   -0.12131E-02   -0.14006E-02  3712   0.657E-02    0.821E-02
DAV:   3    -0.333173152831E+04    0.93004E-05   -0.14519E-04  4416   0.104E-02    0.648E-02
DAV:   4    -0.333173163349E+04   -0.10518E-03   -0.21373E-04  3776   0.138E-02    0.140E-02
DAV:   5    -0.333173164100E+04   -0.75101E-05   -0.51842E-05  3808   0.552E-03    0.128E-02
DAV:   6    -0.333173163947E+04    0.15311E-05   -0.88364E-06  3360   0.308E-03    0.650E-03
DAV:   7    -0.333173163944E+04    0.29337E-07   -0.28632E-06  3232   0.153E-03
  73 F= -.33459743E+04 E0= -.33459743E+04  d E =-.302128E-02
 BRION: g(F)=  0.366E-02 g(S)=  0.000E+00 retain N=  2 mean eig= 0.66
 eig:   0.139  1.190
 bond charge predicted
       N       E                     dE             d eps       ncg     rms          rms(c)
DAV:   1    -0.333173269770E+04   -0.10582E-02   -0.69880E-02  3648   0.179E-01    0.448E-02
DAV:   2    -0.333173285430E+04   -0.15660E-03   -0.18539E-03  3776   0.239E-02    0.338E-02
DAV:   3    -0.333173285060E+04    0.37013E-05   -0.22293E-05  4160   0.387E-03    0.264E-02
DAV:   4    -0.333173285945E+04   -0.88494E-05   -0.27952E-05  3488   0.480E-03    0.612E-03
DAV:   5    -0.333173286185E+04   -0.24036E-05   -0.75360E-06  3616   0.203E-03    0.439E-03
DAV:   6    -0.333173286175E+04    0.10454E-06   -0.81342E-07  2848   0.103E-03
  74 F= -.33459753E+04 E0= -.33459753E+04  d E =-.998330E-03
 BRION: g(F)=  0.355E-02 g(S)=  0.000E+00 retain N=  2 mean eig= 0.19
 eig:   0.195  0.195
 bond charge predicted
       N       E                     dE             d eps       ncg     rms          rms(c)
DAV:   1    -0.333173479517E+04   -0.19333E-02   -0.31217E-01  3648   0.371E-01    0.892E-02
DAV:   2    -0.333173544558E+04   -0.65040E-03   -0.76277E-03  3712   0.480E-02    0.635E-02
DAV:   3    -0.333173543594E+04    0.96349E-05   -0.80820E-05  4320   0.758E-03    0.500E-02
DAV:   4    -0.333173549550E+04   -0.59558E-04   -0.12594E-04  3680   0.102E-02    0.107E-02
DAV:   5    -0.333173549930E+04   -0.37933E-05   -0.28407E-05  3840   0.411E-03    0.898E-03
DAV:   6    -0.333173549931E+04   -0.18161E-07   -0.34121E-06  3104   0.198E-03
  75 F= -.33459775E+04 E0= -.33459775E+04  d E =-.213338E-02
 BRION: g(F)=  0.385E-02 g(S)=  0.000E+00 retain N=  2 mean eig= 0.42
 eig:   0.141  0.706
 bond charge predicted
       N       E                     dE             d eps       ncg     rms          rms(c)
DAV:   1    -0.333173677421E+04   -0.12749E-02   -0.10281E-01  3648   0.211E-01    0.526E-02
DAV:   2    -0.333173699855E+04   -0.22434E-03   -0.26337E-03  3776   0.278E-02    0.380E-02
DAV:   3    -0.333173699334E+04    0.52046E-05   -0.29666E-05  4192   0.440E-03    0.296E-02
DAV:   4    -0.333173701126E+04   -0.17916E-04   -0.35049E-05  3488   0.531E-03    0.689E-03
DAV:   5    -0.333173701474E+04   -0.34852E-05   -0.10130E-05  3808   0.223E-03    0.525E-03
DAV:   6    -0.333173701451E+04    0.23178E-06   -0.11673E-06  2944   0.119E-03
  76 F= -.33459787E+04 E0= -.33459787E+04  d E =-.124012E-02
 BRION: g(F)=  0.313E-02 g(S)=  0.000E+00 retain N=  1 mean eig= 0.14
 eig:   0.144
 bond charge predicted
       N       E                     dE             d eps       ncg     rms          rms(c)
DAV:   1    -0.333173916731E+04   -0.21526E-02   -0.51380E-01  3584   0.475E-01    0.112E-01
DAV:   2    -0.333174023810E+04   -0.10708E-02   -0.12333E-02  3712   0.611E-02    0.778E-02
DAV:   3    -0.333174022671E+04    0.11386E-04   -0.12497E-04  4288   0.954E-03    0.614E-02
DAV:   4    -0.333174032495E+04   -0.98239E-04   -0.19590E-04  3744   0.130E-02    0.131E-02
DAV:   5    -0.333174033076E+04   -0.58122E-05   -0.46117E-05  3808   0.524E-03    0.119E-02
DAV:   6    -0.333174032999E+04    0.77626E-06   -0.74072E-06  3296   0.282E-03
  77 F= -.33459814E+04 E0= -.33459814E+04  d E =-.267084E-02
 BRION: g(F)=  0.372E-02 g(S)=  0.000E+00 retain N=  2 mean eig= 0.14
 eig:   0.088  0.202
 bond charge predicted
       N       E                     dE             d eps       ncg     rms          rms(c)
DAV:   1    -0.333174101372E+04   -0.68295E-03   -0.26167E-02  3648   0.107E-01    0.310E-02
DAV:   2    -0.333174107767E+04   -0.63955E-04   -0.77794E-04  3808   0.150E-02    0.242E-02
DAV:   3    -0.333174107580E+04    0.18720E-05   -0.10450E-05  3744   0.255E-03    0.186E-02
DAV:   4    -0.333174107864E+04   -0.28454E-05   -0.11628E-05  3328   0.286E-03    0.479E-03
DAV:   5    -0.333174107995E+04   -0.13097E-05   -0.31690E-06  3104   0.127E-03    0.281E-03
DAV:   6    -0.333174107992E+04    0.33411E-07   -0.33955E-07  2592   0.661E-04
  78 F= -.33459820E+04 E0= -.33459820E+04  d E =-.613178E-03
 BRION: g(F)=  0.299E-02 g(S)=  0.000E+00 retain N=  2 mean eig= 1.12
 eig:   0.194  2.048
 bond charge predicted
       N       E                     dE             d eps       ncg     rms          rms(c)
DAV:   1    -0.333174310752E+04   -0.20276E-02   -0.41501E-01  3584   0.425E-01    0.993E-02
DAV:   2    -0.333174396542E+04   -0.85790E-03   -0.98721E-03  3776   0.544E-02    0.686E-02
DAV:   3    -0.333174395591E+04    0.95047E-05   -0.10022E-04  4352   0.849E-03    0.542E-02
DAV:   4    -0.333174403597E+04   -0.80055E-04   -0.14672E-04  3712   0.114E-02    0.117E-02
DAV:   5    -0.333174404266E+04   -0.66918E-05   -0.37184E-05  3872   0.457E-03    0.107E-02
DAV:   6    -0.333174404162E+04    0.10401E-05   -0.58700E-06  3360   0.254E-03    0.553E-03
DAV:   7    -0.333174404165E+04   -0.27823E-07   -0.24024E-06  3168   0.138E-03
  79 F= -.33459844E+04 E0= -.33459844E+04  d E =-.238328E-02
 BRION: g(F)=  0.323E-02 g(S)=  0.000E+00 retain N=  2 mean eig= 0.21
 eig:   0.134  0.288
 bond charge predicted
       N       E                     dE             d eps       ncg     rms          rms(c)
DAV:   1    -0.333174520874E+04   -0.11671E-02   -0.84324E-02  3648   0.192E-01    0.466E-02
DAV:   2    -0.333174538410E+04   -0.17536E-03   -0.20563E-03  3744   0.250E-02    0.327E-02
DAV:   3    -0.333174538315E+04    0.94203E-06   -0.20852E-05  4192   0.391E-03    0.258E-02
DAV:   4    -0.333174540080E+04   -0.17644E-04   -0.34138E-05  3584   0.534E-03    0.548E-03
DAV:   5    -0.333174540158E+04   -0.78406E-06   -0.76901E-06  3552   0.216E-03
  80 F= -.33459855E+04 E0= -.33459855E+04  d E =-.109476E-02
 BRION: g(F)=  0.288E-02 g(S)=  0.000E+00 retain N=  1 mean eig= 0.16
 eig:   0.157
 bond charge predicted
       N       E                     dE             d eps       ncg     rms          rms(c)
DAV:   1    -0.333174748698E+04   -0.20862E-02   -0.52741E-01  3584   0.475E-01    0.114E-01
DAV:   2    -0.333174858687E+04   -0.10999E-02   -0.12663E-02  3744   0.611E-02    0.780E-02
DAV:   3    -0.333174857559E+04    0.11280E-04   -0.12729E-04  4320   0.954E-03    0.615E-02
DAV:   4    -0.333174867525E+04   -0.99653E-04   -0.18673E-04  3744   0.127E-02    0.133E-02
DAV:   5    -0.333174868201E+04   -0.67633E-05   -0.45764E-05  3840   0.509E-03    0.121E-02
DAV:   6    -0.333174868072E+04    0.12871E-05   -0.78873E-06  3360   0.286E-03    0.617E-03
[...]
DAV:   1    -0.333175700604E+04   -0.66458E-03   -0.28511E-02  3584   0.112E-01    0.312E-02
DAV:   2    -0.333175707499E+04   -0.68952E-04   -0.81769E-04  3808   0.155E-02    0.238E-02
DAV:   3    -0.333175707310E+04    0.18964E-05   -0.10443E-05  3712   0.260E-03    0.184E-02
DAV:   4    -0.333175707560E+04   -0.25085E-05   -0.11888E-05  3360   0.298E-03    0.460E-03
DAV:   5    -0.333175707670E+04   -0.10985E-05   -0.31294E-06  3040   0.129E-03    0.286E-03
DAV:   6    -0.333175707667E+04    0.31665E-07   -0.34219E-07  2656   0.680E-04
  86 F= -.33459948E+04 E0= -.33459948E+04  d E =-.590392E-03
 BRION: g(F)=  0.261E-02 g(S)=  0.000E+00 retain N=  2 mean eig= 2.12
 eig:   0.187  4.051
 bond charge predicted
       N       E                     dE             d eps       ncg     rms          rms(c)
DAV:   1    -0.333175893693E+04   -0.18602E-02   -0.45571E-01  3584   0.435E-01    0.105E-01
DAV:   2    -0.333175988888E+04   -0.95194E-03   -0.10943E-02  3744   0.558E-02    0.727E-02
DAV:   3    -0.333175987538E+04    0.13498E-04   -0.11155E-04  4288   0.869E-03    0.573E-02
DAV:   4    -0.333175994826E+04   -0.72878E-04   -0.15416E-04  3680   0.113E-02    0.124E-02
DAV:   5    -0.333175995646E+04   -0.82075E-05   -0.40495E-05  3840   0.462E-03    0.111E-02
DAV:   6    -0.333175995510E+04    0.13645E-05   -0.60510E-06  3360   0.255E-03    0.583E-03
DAV:   7    -0.333175995505E+04    0.48080E-07   -0.26925E-06  3104   0.144E-03
  87 F= -.33459970E+04 E0= -.33459970E+04  d E =-.226318E-02
 BRION: g(F)=  0.330E-02 g(S)=  0.000E+00 retain N=  2 mean eig= 0.14
 eig:   0.142  0.142
 bond charge predicted
       N       E                     dE             d eps       ncg     rms          rms(c)
DAV:   1    -0.333176063849E+04   -0.68339E-03   -0.29697E-02  3584   0.109E-01    0.329E-02
DAV:   2    -0.333176071130E+04   -0.72808E-04   -0.88057E-04  3744   0.151E-02    0.264E-02
DAV:   3    -0.333176070739E+04    0.39067E-05   -0.11600E-05  3520   0.246E-03    0.206E-02
DAV:   4    -0.333176070960E+04   -0.22098E-05   -0.15282E-05  3328   0.303E-03    0.487E-03
DAV:   5    -0.333176071085E+04   -0.12453E-05   -0.37233E-06  3104   0.129E-03    0.303E-03
DAV:   6    -0.333176071082E+04    0.31665E-07   -0.35629E-07  2752   0.656E-04
  88 F= -.33459976E+04 E0= -.33459976E+04  d E =-.601704E-03
 BRION: g(F)=  0.250E-02 g(S)=  0.000E+00 retain N=  1 mean eig= 0.14
 eig:   0.144
 bond charge predicted
       N       E                     dE             d eps       ncg     rms          rms(c)
DAV:   1    -0.333176251975E+04   -0.18089E-02   -0.45895E-01  3584   0.435E-01    0.106E-01
DAV:   2    -0.333176348612E+04   -0.96638E-03   -0.11051E-02  3744   0.560E-02    0.735E-02
DAV:   3    -0.333176347278E+04    0.13340E-04   -0.11291E-04  4288   0.880E-03    0.579E-02
DAV:   4    -0.333176353963E+04   -0.66847E-04   -0.15846E-04  3712   0.114E-02    0.126E-02
DAV:   5    -0.333176354684E+04   -0.72140E-05   -0.40314E-05  3808   0.464E-03    0.113E-02
DAV:   6    -0.333176354563E+04    0.12108E-05   -0.66437E-06  3296   0.261E-03    0.588E-03
DAV:   7    -0.333176354554E+04    0.90105E-07   -0.22199E-06  3040   0.132E-03
  89 F= -.33459998E+04 E0= -.33459998E+04  d E =-.221102E-02
 BRION: g(F)=  0.324E-02 g(S)=  0.000E+00 retain N=  2 mean eig= 0.52
 eig:   0.146  0.894
 bond charge predicted
       N       E                     dE             d eps       ncg     rms          rms(c)
DAV:   1    -0.333176411745E+04   -0.57181E-03   -0.23416E-02  3584   0.960E-02    0.307E-02
DAV:   2    -0.333176418038E+04   -0.62930E-04   -0.75541E-04  3744   0.138E-02    0.256E-02
DAV:   3    -0.333176417686E+04    0.35154E-05   -0.11238E-05  3520   0.239E-03    0.199E-02
DAV:   4    -0.333176417544E+04    0.14204E-05   -0.12152E-05  3232   0.268E-03    0.566E-03
DAV:   5    -0.333176417661E+04   -0.11710E-05   -0.39845E-06  3072   0.130E-03    0.282E-03
DAV:   6    -0.333176417653E+04    0.85100E-07   -0.47725E-07  2752   0.698E-04
  90 F= -.33460003E+04 E0= -.33460003E+04  d E =-.506482E-03
 BRION: g(F)=  0.238E-02 g(S)=  0.000E+00 retain N=  2 mean eig= 2.32
 eig:   0.064  4.579
 bond charge predicted
       N       E                     dE             d eps       ncg     rms          rms(c)
DAV:   1    -0.333176593642E+04   -0.17598E-02   -0.42209E-01  3584   0.419E-01    0.103E-01
DAV:   2    -0.333176682544E+04   -0.88902E-03   -0.10145E-02  3744   0.538E-02    0.711E-02
DAV:   3    -0.333176681180E+04    0.13637E-04   -0.99544E-05  4320   0.838E-03    0.561E-02
DAV:   4    -0.333176687574E+04   -0.63937E-04   -0.16560E-04  3712   0.116E-02    0.123E-02
DAV:   5    -0.333176687823E+04   -0.24942E-05   -0.37391E-05  3776   0.465E-03    0.107E-02
DAV:   6    -0.333176687764E+04    0.59057E-06   -0.62584E-06  3232   0.246E-03
  91 F= -.33460024E+04 E0= -.33460024E+04  d E =-.209243E-02
 BRION: g(F)=  0.295E-02 g(S)=  0.000E+00 retain N=  2 mean eig= 0.14
 eig:   0.144  0.134
 bond charge predicted
       N       E                     dE             d eps       ncg     rms          rms(c)
DAV:   1    -0.333176742193E+04   -0.54369E-03   -0.22265E-02  3584   0.947E-02    0.285E-02
DAV:   2    -0.333176747857E+04   -0.56646E-04   -0.67947E-04  3744   0.132E-02    0.225E-02
DAV:   3    -0.333176747569E+04    0.28788E-05   -0.89367E-06  3616   0.217E-03    0.174E-02
DAV:   4    -0.333176747730E+04   -0.16099E-05   -0.97647E-06  3072   0.245E-03    0.463E-03
DAV:   5    -0.333176747844E+04   -0.11350E-05   -0.30314E-06  3008   0.113E-03    0.258E-03
DAV:   6    -0.333176747839E+04    0.54017E-07   -0.29803E-07  2656   0.601E-04
  92 F= -.33460029E+04 E0= -.33460029E+04  d E =-.480828E-03
 BRION: g(F)=  0.222E-02 g(S)=  0.000E+00 retain N=  1 mean eig= 0.15
 eig:   0.145
 bond charge predicted
       N       E                     dE             d eps       ncg     rms          rms(c)
DAV:   1    -0.333176920821E+04   -0.17298E-02   -0.41968E-01  3584   0.417E-01    0.101E-01
DAV:   2    -0.333177008655E+04   -0.87834E-03   -0.99999E-03  3744   0.533E-02    0.698E-02
DAV:   3    -0.333177007500E+04    0.11551E-04   -0.96129E-05  4320   0.826E-03    0.551E-02
DAV:   4    -0.333177013779E+04   -0.62788E-04   -0.16087E-04  3648   0.115E-02    0.119E-02
DAV:   5    -0.333177014010E+04   -0.23155E-05   -0.36991E-05  3744   0.461E-03    0.107E-02
DAV:   6    -0.333177013910E+04    0.10076E-05   -0.64889E-06  3264   0.254E-03    0.526E-03
DAV:   7    -0.333177013912E+04   -0.19791E-07   -0.15907E-06  3040   0.117E-03
  93 F= -.33460050E+04 E0= -.33460050E+04  d E =-.205417E-02
 BRION: g(F)=  0.248E-02 g(S)=  0.000E+00 retain N=  2 mean eig= 0.94
 eig:   0.125  1.757
 bond charge predicted
       N       E                     dE             d eps       ncg     rms          rms(c)
DAV:   1    -0.333177076533E+04   -0.62623E-03   -0.32381E-02  3584   0.115E-01    0.323E-02
DAV:   2    -0.333177084426E+04   -0.78936E-04   -0.91537E-04  3744   0.158E-02    0.253E-02
DAV:   3    -0.333177084102E+04    0.32414E-05   -0.12118E-05  3584   0.267E-03    0.197E-02
DAV:   4    -0.333177084173E+04   -0.71467E-06   -0.12977E-05  3328   0.301E-03    0.528E-03
DAV:   5    -0.333177084301E+04   -0.12801E-05   -0.39806E-06  3136   0.137E-03    0.313E-03
DAV:   6    -0.333177084294E+04    0.73574E-07   -0.52015E-07  2880   0.760E-04
  94 F= -.33460055E+04 E0= -.33460055E+04  d E =-.546499E-03
 BRION: g(F)=  0.228E-02 g(S)=  0.000E+00 retain N=  2 mean eig= 1.71
 eig:   0.213  3.200
 bond charge predicted
       N       E                     dE             d eps       ncg     rms          rms(c)
DAV:   1    -0.333177230375E+04   -0.14607E-02   -0.27533E-01  3584   0.338E-01    0.823E-02
DAV:   2    -0.333177288854E+04   -0.58479E-03   -0.66526E-03  3744   0.432E-02    0.575E-02
DAV:   3    -0.333177287816E+04    0.10380E-04   -0.69291E-05  4256   0.678E-03    0.452E-02
DAV:   4    -0.333177291304E+04   -0.34887E-04   -0.90979E-05  3616   0.864E-03    0.992E-03
DAV:   5    -0.333177291856E+04   -0.55169E-05   -0.24658E-05  3840   0.358E-03    0.860E-03
DAV:   6    -0.333177291774E+04    0.81933E-06   -0.34846E-06  3040   0.196E-03
  95 F= -.33460071E+04 E0= -.33460071E+04  d E =-.159325E-02
 BRION: g(F)=  0.264E-02 g(S)=  0.000E+00 retain N=  2 mean eig= 0.15
 eig:   0.148  0.148
 bond charge predicted
       N       E                     dE             d eps       ncg     rms          rms(c)
DAV:   1    -0.333177364189E+04   -0.72333E-03   -0.39525E-02  3584   0.125E-01    0.361E-02
DAV:   2    -0.333177373480E+04   -0.92909E-04   -0.10899E-03  3744   0.170E-02    0.275E-02
DAV:   3    -0.333177373090E+04    0.39056E-05   -0.13266E-05  3648   0.275E-03    0.212E-02
DAV:   4    -0.333177373455E+04   -0.36508E-05   -0.16311E-05  3360   0.323E-03    0.516E-03
DAV:   5    -0.333177373597E+04   -0.14168E-05   -0.39934E-06  3136   0.139E-03    0.332E-03
DAV:   6    -0.333177373594E+04    0.21420E-07   -0.42752E-07  2848   0.728E-04
  96 F= -.33460077E+04 E0= -.33460077E+04  d E =-.634185E-03
 BRION: g(F)=  0.202E-02 g(S)=  0.000E+00 retain N=  1 mean eig= 0.14
 eig:   0.144
 bond charge predicted
       N       E                     dE             d eps       ncg     rms          rms(c)
DAV:   1    -0.333177531552E+04   -0.15796E-02   -0.35888E-01  3584   0.383E-01    0.931E-02
DAV:   2    -0.333177606767E+04   -0.75215E-03   -0.85092E-03  3744   0.491E-02    0.636E-02
DAV:   3    -0.333177605654E+04    0.11134E-04   -0.83428E-05  4320   0.764E-03    0.501E-02
DAV:   4    -0.333177610582E+04   -0.49281E-04   -0.12742E-04  3680   0.103E-02    0.109E-02
DAV:   5    -0.333177610943E+04   -0.36155E-05   -0.30841E-05  3840   0.412E-03    0.101E-02
DAV:   6    -0.333177610825E+04    0.11876E-05   -0.56377E-06  3072   0.236E-03    0.510E-03
DAV:   7    -0.333177610819E+04    0.53784E-07   -0.19880E-06  3008   0.125E-03
  97 F= -.33460096E+04 E0= -.33460096E+04  d E =-.181290E-02
 BRION: g(F)=  0.207E-02 g(S)=  0.000E+00 retain N=  2 mean eig= 1.85
 eig:   0.141  3.564
 bond charge predicted
       N       E                     dE             d eps       ncg     rms          rms(c)
DAV:   1    -0.333177681128E+04   -0.70303E-03   -0.45084E-02  3584   0.135E-01    0.360E-02
DAV:   2    -0.333177691316E+04   -0.10189E-03   -0.11732E-03  3744   0.179E-02    0.266E-02
DAV:   3    -0.333177691054E+04    0.26260E-05   -0.13359E-05  3712   0.287E-03    0.207E-02
DAV:   4    -0.333177691430E+04   -0.37585E-05   -0.16930E-05  3360   0.352E-03    0.477E-03
DAV:   5    -0.333177691558E+04   -0.12843E-05   -0.43256E-06  3200   0.149E-03    0.350E-03
DAV:   6    -0.333177691550E+04    0.78813E-07   -0.49713E-07  2848   0.804E-04
  98 F= -.33460102E+04 E0= -.33460102E+04  d E =-.613849E-03
 BRION: g(F)=  0.210E-02 g(S)=  0.000E+00 retain N=  2 mean eig= 0.74
 eig:   0.056  1.419
 bond charge predicted
       N       E                     dE             d eps       ncg     rms          rms(c)
DAV:   1    -0.333177835718E+04   -0.14416E-02   -0.29766E-01  3584   0.346E-01    0.868E-02
DAV:   2    -0.333177899074E+04   -0.63357E-03   -0.71831E-03  3744   0.448E-02    0.606E-02
DAV:   3    -0.333177897857E+04    0.12169E-04   -0.71813E-05  4256   0.702E-03    0.477E-02
DAV:   4    -0.333177901758E+04   -0.39004E-04   -0.11485E-04  3648   0.947E-03    0.104E-02
DAV:   5    -0.333177902005E+04   -0.24665E-05   -0.26033E-05  3776   0.383E-03    0.894E-03
DAV:   6    -0.333177901967E+04    0.37998E-06   -0.39573E-06  2976   0.197E-03
  99 F= -.33460118E+04 E0= -.33460118E+04  d E =-.158940E-02
 BRION: g(F)=  0.239E-02 g(S)=  0.000E+00 retain N=  2 mean eig= 0.11
 eig:   0.177  0.044
 bond charge predicted
       N       E                     dE             d eps       ncg     rms          rms(c)
DAV:   1    -0.333177938629E+04   -0.36624E-03   -0.13465E-02  3584   0.697E-02    0.243E-02
DAV:   2    -0.333177942357E+04   -0.37287E-04   -0.46039E-04  3744   0.102E-02    0.201E-02
DAV:   3    -0.333177942085E+04    0.27205E-05   -0.65573E-06  3200   0.171E-03    0.155E-02
DAV:   4    -0.333177942084E+04    0.11874E-07   -0.76264E-06  3008   0.195E-03
 100 F= -.33460121E+04 E0= -.33460121E+04  d E =-.315095E-03
 BRION: g(F)=  0.185E-02 g(S)=  0.000E+00 retain N=  2 mean eig= 3.83
 eig:   0.132  7.524
 bond charge predicted
       N       E                     dE             d eps       ncg     rms          rms(c)
DAV:   1    -0.333178080510E+04   -0.13843E-02   -0.25995E-01  3584   0.324E-01    0.806E-02
DAV:   2    -0.333178134927E+04   -0.54417E-03   -0.61763E-03  3776   0.417E-02    0.552E-02
DAV:   3    -0.333178134202E+04    0.72492E-05   -0.59754E-05  4288   0.649E-03    0.435E-02
DAV:   4    -0.333178138010E+04   -0.38078E-04   -0.98880E-05  3648   0.896E-03    0.951E-03
DAV:   5    -0.333178138117E+04   -0.10649E-05   -0.22387E-05  3776   0.360E-03    0.852E-03
DAV:   6    -0.333178138051E+04    0.65472E-06   -0.40354E-06  2976   0.197E-03
 101 F= -.33460136E+04 E0= -.33460136E+04  d E =-.147762E-02
 BRION: g(F)=  0.189E-02 g(S)=  0.000E+00 retain N=  2 mean eig= 1.47
 eig:   0.138  2.799
 bond charge predicted
       N       E                     dE             d eps       ncg     rms          rms(c)
DAV:   1    -0.333178221553E+04   -0.83436E-03   -0.69775E-02  3584   0.167E-01    0.432E-02
DAV:   2    -0.333178236663E+04   -0.15110E-03   -0.17204E-03  3712   0.218E-02    0.299E-02
DAV:   3    -0.333178236432E+04    0.23042E-05   -0.18259E-05  4032   0.348E-03    0.233E-02
DAV:   4    -0.333178237333E+04   -0.90015E-05   -0.22748E-05  3456   0.422E-03    0.521E-03
DAV:   5    -0.333178237466E+04   -0.13326E-05   -0.57178E-06  3392   0.175E-03    0.432E-03
DAV:   6    -0.333178237452E+04    0.14179E-06   -0.86398E-07  2976   0.997E-04
 102 F= -.33460143E+04 E0= -.33460143E+04  d E =-.748548E-03
 BRION: g(F)=  0.178E-02 g(S)=  0.000E+00 retain N=  2 mean eig= 1.48
 eig:   0.181  2.778
 bond charge predicted
       N       E                     dE             d eps       ncg     rms          rms(c)
DAV:   1    -0.333178373087E+04   -0.13562E-02   -0.31065E-01  3584   0.353E-01    0.871E-02
DAV:   2    -0.333178438628E+04   -0.65541E-03   -0.74247E-03  3744   0.456E-02    0.602E-02
DAV:   3    -0.333178437679E+04    0.94906E-05   -0.74667E-05  4288   0.712E-03    0.474E-02
DAV:   4    -0.333178441533E+04   -0.38539E-04   -0.10870E-04  3616   0.950E-03    0.101E-02
DAV:   5    -0.333178441950E+04   -0.41708E-05   -0.27222E-05  3872   0.385E-03    0.922E-03
DAV:   6    -0.333178441853E+04    0.96788E-06   -0.42932E-06  3072   0.212E-03
 103 F= -.33460158E+04 E0= -.33460158E+04  d E =-.152492E-02
 BRION: g(F)=  0.212E-02 g(S)=  0.000E+00 retain N=  2 mean eig= 0.17
 eig:   0.173  0.173
 bond charge predicted
       N       E                     dE             d eps       ncg     rms          rms(c)
DAV:   1    -0.333178472379E+04   -0.30429E-03   -0.10477E-02  3584   0.629E-02    0.244E-02
DAV:   2    -0.333178475499E+04   -0.31198E-04   -0.39750E-04  3744   0.965E-03    0.209E-02
DAV:   3    -0.333178475172E+04    0.32691E-05   -0.65498E-06  3264   0.172E-03    0.159E-02
DAV:   4    -0.333178475092E+04    0.79873E-06   -0.71936E-06  2976   0.192E-03
 104 F= -.33460161E+04 E0= -.33460161E+04  d E =-.250472E-03
 BRION: g(F)=  0.176E-02 g(S)=  0.000E+00 retain N=  2 mean eig= 4.01
 eig:   0.141  7.870
 bond charge predicted
       N       E                     dE             d eps       ncg     rms          rms(c)
DAV:   1    -0.333178586133E+04   -0.11096E-02   -0.16276E-01  3584   0.256E-01    0.641E-02
DAV:   2    -0.333178620589E+04   -0.34456E-03   -0.39151E-03  3712   0.330E-02    0.445E-02
DAV:   3    -0.333178620043E+04    0.54586E-05   -0.41651E-05  4224   0.527E-03    0.349E-02
DAV:   4    -0.333178621945E+04   -0.19019E-04   -0.53041E-05  3488   0.659E-03    0.779E-03
DAV:   5    -0.333178622258E+04   -0.31301E-05   -0.14168E-05  3840   0.272E-03    0.673E-03
DAV:   6    -0.333178622209E+04    0.48790E-06   -0.22625E-06  3008   0.153E-03
 105 F= -.33460172E+04 E0= -.33460172E+04  d E =-.109716E-02
 BRION: g(F)=  0.179E-02 g(S)=  0.000E+00 retain N=  2 mean eig= 1.59
 eig:   0.149  3.022
 bond charge predicted
       N       E                     dE             d eps       ncg     rms          rms(c)
DAV:   1    -0.333178711297E+04   -0.89039E-03   -0.87768E-02  3584   0.188E-01    0.479E-02
DAV:   2    -0.333178730076E+04   -0.18779E-03   -0.21434E-03  3712   0.246E-02    0.334E-02
DAV:   3    -0.333178729790E+04    0.28539E-05   -0.22033E-05  4096   0.388E-03    0.262E-02
DAV:   4    -0.333178730921E+04   -0.11310E-04   -0.32037E-05  3488   0.510E-03    0.561E-03
DAV:   5    -0.333178731039E+04   -0.11756E-05   -0.75473E-06  3488   0.208E-03    0.483E-03
DAV:   6    -0.333178731023E+04    0.15658E-06   -0.10867E-06  3040   0.111E-03
 106 F= -.33460180E+04 E0= -.33460180E+04  d E =-.810366E-03
 BRION: g(F)=  0.155E-02 g(S)=  0.000E+00 retain N=  2 mean eig= 1.38
 eig:   0.060  2.706
 bond charge predicted
       N       E                     dE             d eps       ncg     rms          rms(c)
DAV:   1    -0.333178857975E+04   -0.12694E-02   -0.27840E-01  3584   0.336E-01    0.834E-02
DAV:   2    -0.333178916509E+04   -0.58533E-03   -0.66281E-03  3744   0.433E-02    0.573E-02
DAV:   3    -0.333178915645E+04    0.86405E-05   -0.64320E-05  4256   0.677E-03    0.451E-02
DAV:   4    -0.333178919444E+04   -0.37989E-04   -0.10802E-04  3648   0.936E-03    0.994E-03
DAV:   5    -0.333178919556E+04   -0.11250E-05   -0.24091E-05  3808   0.376E-03    0.872E-03
DAV:   6    -0.333178919502E+04    0.54203E-06   -0.41580E-06  2976   0.201E-03
 107 F= -.33460194E+04 E0= -.33460194E+04  d E =-.138427E-02
 BRION: g(F)=  0.178E-02 g(S)=  0.000E+00 retain N=  2 mean eig= 0.17
 eig:   0.201  0.135
 bond charge predicted
       N       E                     dE             d eps       ncg     rms          rms(c)
DAV:   1    -0.333178952252E+04   -0.32695E-03   -0.13513E-02  3584   0.705E-02    0.233E-02
DAV:   2    -0.333178955840E+04   -0.35885E-04   -0.43845E-04  3744   0.101E-02    0.190E-02
DAV:   3    -0.333178955605E+04    0.23535E-05   -0.59733E-06  3200   0.167E-03    0.147E-02
DAV:   4    -0.333178955658E+04   -0.53551E-06   -0.69906E-06  2912   0.192E-03
 108 F= -.33460196E+04 E0= -.33460196E+04  d E =-.271637E-03
 BRION: g(F)=  0.158E-02 g(S)=  0.000E+00 retain N=  1 mean eig= 0.15
 eig:   0.149
 bond charge predicted
       N       E                     dE             d eps       ncg     rms          rms(c)
DAV:   1    -0.333179069649E+04   -0.11404E-02   -0.25696E-01  3584   0.324E-01    0.822E-02
DAV:   2    -0.333179124758E+04   -0.55109E-03   -0.62934E-03  3744   0.421E-02    0.585E-02
DAV:   3    -0.333179123763E+04    0.99491E-05   -0.67311E-05  4224   0.669E-03    0.460E-02
DAV:   4    -0.333179126780E+04   -0.30169E-04   -0.96717E-05  3584   0.877E-03    0.982E-03
DAV:   5    -0.333179127149E+04   -0.36956E-05   -0.22707E-05  3936   0.361E-03    0.829E-03
DAV:   6    -0.333179127115E+04    0.34447E-06   -0.30022E-06  3040   0.178E-03
 109 F= -.33460209E+04 E0= -.33460209E+04  d E =-.123739E-02
 BRION: g(F)=  0.251E-02 g(S)=  0.000E+00 retain N=  2 mean eig= 0.74
 eig:   0.134  1.351
 bond charge predicted
       N       E                     dE             d eps       ncg     rms          rms(c)
DAV:   1    -0.333179162940E+04   -0.35790E-03   -0.13538E-02  3584   0.703E-02    0.270E-02
DAV:   2    -0.333179167052E+04   -0.41120E-04   -0.50733E-04  3744   0.107E-02    0.231E-02
DAV:   3    -0.333179166691E+04    0.36113E-05   -0.84492E-06  3296   0.201E-03    0.177E-02
DAV:   4    -0.333179166425E+04    0.26585E-05   -0.90821E-06  3072   0.212E-03    0.524E-03
DAV:   5    -0.333179166493E+04   -0.68289E-06   -0.31104E-06  3008   0.105E-03
 soft stop encountered!  aborting job ...
 110 F= -.33460212E+04 E0= -.33460212E+04  d E =-.309629E-03
 BRION: g(F)=  0.137E-02 g(S)=  0.000E+00 retain N=  2 mean eig= 3.74
 eig:   0.176  7.300
 deleting file STOPCAR
 PROFILE, used timers:     325
