 running  256 mpi-ranks, with    1 threads/rank, on    7 nodes
 distrk:  each k-point on  128 cores,    2 groups
 distr:  one band on    4 cores,   32 groups
 vasp.6.4.1 05Apr23 (build May 18 2023 13:19:41) complex                         
 POSCAR found type information on POSCAR C S O 
 POSCAR found :  3 types and     368 ions
 Reading from existing POTCAR
 scaLAPACK will be used
 Reading from existing POTCAR
 -----------------------------------------------------------------------------
|                                                                             |
|               ----> ADVICE to this user running VASP <----                  |
|                                                                             |
|     You have a (more or less) 'large supercell' and for larger cells it     |
|     might be more efficient to use real-space projection operators.         |
|     Therefore, try LREAL= Auto in the INCAR file.                           |
|     Mind: If you want to do very accurate calculations, keep the            |
|     reciprocal projection scheme (i.e. LREAL=.FALSE.).                      |
|                                                                             |
 -----------------------------------------------------------------------------

 LDA part: xc-table for Pade appr. of Perdew
 POSCAR, INCAR and KPOINTS ok, starting setup
 FFT: planning ... GRIDC
 FFT: planning ... GRID_SOFT
 FFT: planning ... GRID
 WAVECAR not read
 charge-density read from file: 01_AOPT                                 
 WARNING: random wavefunctions but no delay for mixing, default for NELMDL
 entering main loop
       N       E                     dE             d eps       ncg     rms          rms(c)
DAV:   1     0.114246954689E+05    0.11425E+05   -0.41929E+05  4288   0.942E+02
DAV:   2     0.437793710371E+03   -0.10987E+05   -0.10247E+05  5568   0.214E+02
DAV:   3    -0.301683429402E+04   -0.34546E+04   -0.33109E+04  4608   0.116E+02
DAV:   4    -0.331860102101E+04   -0.30177E+03   -0.29475E+03  4416   0.391E+01
DAV:   5    -0.333154037550E+04   -0.12939E+02   -0.12619E+02  5152   0.698E+00    0.118E-01
DAV:   6    -0.333183482139E+04   -0.29445E+00   -0.28971E+00  4768   0.107E+00    0.333E-02
DAV:   7    -0.333184833095E+04   -0.13510E-01   -0.13419E-01  5024   0.208E-01    0.291E-02
DAV:   8    -0.333184863746E+04   -0.30651E-03   -0.32528E-03  4864   0.386E-02    0.243E-02
DAV:   9    -0.333184863425E+04    0.32091E-05   -0.17612E-04  4544   0.879E-03    0.180E-02
DAV:  10    -0.333184862083E+04    0.13417E-04   -0.13485E-05  4416   0.394E-03    0.113E-02
DAV:  11    -0.333184861062E+04    0.10208E-04   -0.40435E-06  3520   0.243E-03    0.603E-03
DAV:  12    -0.333184860063E+04    0.99960E-05   -0.16312E-06  3040   0.173E-03    0.168E-03
DAV:  13    -0.333184859774E+04    0.28808E-05   -0.52584E-07  2592   0.896E-04    0.875E-04
DAV:  14    -0.333184859730E+04    0.44634E-06   -0.37821E-08  2560   0.457E-04
   1 F= -.33460502E+04 E0= -.33460502E+04  d E =-.334605E+04
 BRION: g(F)=  0.489E-02 g(S)=  0.000E+00
 bond charge predicted
       N       E                     dE             d eps       ncg     rms          rms(c)
DAV:   1    -0.333184765537E+04    0.94238E-03   -0.58871E-01  4000   0.888E-01    0.142E-01
DAV:   2    -0.333184831209E+04   -0.65672E-03   -0.10647E-02  4256   0.113E-01    0.137E-01
DAV:   3    -0.333184809216E+04    0.21993E-03   -0.55768E-04  4480   0.266E-02    0.104E-01
DAV:   4    -0.333184792213E+04    0.17003E-03   -0.60914E-04  4096   0.296E-02    0.389E-02
DAV:   5    -0.333184792424E+04   -0.21076E-05   -0.15293E-04  3968   0.138E-02    0.125E-02
DAV:   6    -0.333184792747E+04   -0.32348E-05   -0.19062E-05  4416   0.446E-03    0.638E-03
DAV:   7    -0.333184792692E+04    0.55006E-06   -0.18217E-06  3232   0.188E-03
   2 F= -.33460497E+04 E0= -.33460497E+04  d E =0.478062E-03
 BRION: g(F)=  0.233E-01 g(S)=  0.000E+00 retain N=  1 mean eig= 0.24
 eig:   0.236
 bond charge predicted
       N       E                     dE             d eps       ncg     rms          rms(c)
DAV:   1    -0.333185041537E+04   -0.24879E-02   -0.22385E-01  3840   0.555E-01    0.966E-02
DAV:   2    -0.333185067529E+04   -0.25992E-03   -0.50340E-03  4160   0.804E-02    0.939E-02
DAV:   3    -0.333185056176E+04    0.11353E-03   -0.29759E-04  4448   0.184E-02    0.705E-02
DAV:   4    -0.333185047532E+04    0.86441E-04   -0.15167E-04  4064   0.151E-02    0.370E-02
DAV:   5    -0.333185046023E+04    0.15097E-04   -0.84933E-05  3968   0.110E-02    0.753E-03
DAV:   6    -0.333185046164E+04   -0.14151E-05   -0.12876E-05  4128   0.380E-03    0.335E-03
DAV:   7    -0.333185046164E+04   -0.19791E-08   -0.80015E-07  2304   0.116E-03
   3 F= -.33460523E+04 E0= -.33460523E+04  d E =-.252838E-02
 BRION: g(F)=  0.326E-02 g(S)=  0.000E+00 retain N=  1 mean eig= 0.21
 eig:   0.214
 bond charge predicted
       N       E                     dE             d eps       ncg     rms          rms(c)
DAV:   1    -0.333185073899E+04   -0.27735E-03   -0.18129E-01  3712   0.497E-01    0.776E-02
DAV:   2    -0.333185098177E+04   -0.24278E-03   -0.36957E-03  4192   0.656E-02    0.758E-02
DAV:   3    -0.333185093073E+04    0.51038E-04   -0.15578E-04  4544   0.137E-02    0.612E-02
DAV:   4    -0.333185087370E+04    0.57032E-04   -0.17397E-04  4000   0.166E-02    0.249E-02
DAV:   5    -0.333185087647E+04   -0.27656E-05   -0.54943E-05  3904   0.844E-03    0.894E-03
DAV:   6    -0.333185087680E+04   -0.33202E-06   -0.76290E-06  3968   0.312E-03
   4 F= -.33460527E+04 E0= -.33460527E+04  d E =-.421707E-03
 BRION: g(F)=  0.653E-02 g(S)=  0.000E+00 retain N=  2 mean eig= 0.05
 eig:   0.084  0.018
 bond charge predicted
       N       E                     dE             d eps       ncg     rms          rms(c)
DAV:   1    -0.333185157997E+04   -0.70350E-03   -0.55617E-02  3680   0.271E-01    0.526E-02
DAV:   2    -0.333185167996E+04   -0.99991E-04   -0.15811E-03  4224   0.403E-02    0.507E-02
DAV:   3    -0.333185165392E+04    0.26040E-04   -0.65934E-05  4384   0.860E-03    0.396E-02
DAV:   4    -0.333185162582E+04    0.28098E-04   -0.61347E-05  4032   0.958E-03    0.178E-02
DAV:   5    -0.333185162448E+04    0.13418E-05   -0.25280E-05  3776   0.548E-03    0.499E-03
DAV:   6    -0.333185162445E+04    0.28987E-07   -0.29444E-06  3296   0.191E-03
   5 F= -.33460535E+04 E0= -.33460535E+04  d E =-.770878E-03
 BRION: g(F)=  0.143E-02 g(S)=  0.000E+00 retain N=  2 mean eig= 2.26
 eig:   0.233  4.281
 bond charge predicted
       N       E                     dE             d eps       ncg     rms          rms(c)
DAV:   1    -0.333185183591E+04   -0.21143E-03   -0.62995E-02  3712   0.271E-01    0.524E-02
DAV:   2    -0.333185195836E+04   -0.12245E-03   -0.16598E-03  3936   0.362E-02    0.496E-02
DAV:   3    -0.333185193853E+04    0.19830E-04   -0.52002E-05  4288   0.776E-03    0.392E-02
DAV:   4    -0.333185191766E+04    0.20875E-04   -0.64253E-05  3968   0.962E-03    0.135E-02
DAV:   5    -0.333185191945E+04   -0.17978E-05   -0.21199E-05  3904   0.458E-03    0.549E-03
DAV:   6    -0.333185191875E+04    0.70501E-06   -0.31270E-06  3712   0.229E-03
   6 F= -.33460538E+04 E0= -.33460538E+04  d E =-.325377E-03
 BRION: g(F)=  0.305E-02 g(S)=  0.000E+00 retain N=  3 mean eig= 1.76
 eig:   0.242  0.242  4.792
 bond charge predicted
       N       E                     dE             d eps       ncg     rms          rms(c)
DAV:   1    -0.333185226702E+04   -0.34757E-03   -0.22165E-02  3744   0.152E-01    0.367E-02
DAV:   2    -0.333185231937E+04   -0.52350E-04   -0.75087E-04  4192   0.223E-02    0.342E-02
DAV:   3    -0.333185230867E+04    0.10701E-04   -0.24822E-05  4288   0.497E-03    0.261E-02
DAV:   4    -0.333185229824E+04    0.10431E-04   -0.25861E-05  3840   0.578E-03    0.101E-02
DAV:   5    -0.333185229853E+04   -0.29698E-06   -0.93081E-06  3808   0.287E-03
   7 F= -.33460542E+04 E0= -.33460542E+04  d E =-.385109E-03
 BRION: g(F)=  0.819E-03 g(S)=  0.000E+00 retain N=  2 mean eig= 3.56
 eig:   0.168  6.957
 bond charge predicted
       N       E                     dE             d eps       ncg     rms          rms(c)
DAV:   1    -0.333185270637E+04   -0.40813E-03   -0.51554E-02  3744   0.256E-01    0.381E-02
DAV:   2    -0.333185277064E+04   -0.64267E-04   -0.89729E-04  4064   0.310E-02    0.364E-02
DAV:   3    -0.333185275925E+04    0.11383E-04   -0.30827E-05  4320   0.659E-03    0.288E-02
DAV:   4    -0.333185275148E+04    0.77693E-05   -0.48445E-05  3872   0.869E-03    0.784E-03
DAV:   5    -0.333185275250E+04   -0.10177E-05   -0.11565E-05  3936   0.370E-03    0.421E-03
DAV:   6    -0.333185275222E+04    0.28207E-06   -0.15203E-06  2880   0.160E-03
   8 F= -.33460546E+04 E0= -.33460546E+04  d E =-.469985E-03
 BRION: g(F)=  0.933E-03 g(S)=  0.000E+00 retain N=  2 mean eig= 0.11
 eig:   0.110  0.110
 bond charge predicted
       N       E                     dE             d eps       ncg     rms          rms(c)
DAV:   1    -0.333185302968E+04   -0.27718E-03   -0.25221E-02  3712   0.179E-01    0.281E-02
DAV:   2    -0.333185306594E+04   -0.36253E-04   -0.50401E-04  4064   0.228E-02    0.273E-02
DAV:   3    -0.333185306025E+04    0.56850E-05   -0.17475E-05  4384   0.466E-03    0.224E-02
DAV:   4    -0.333185305424E+04    0.60081E-05   -0.27938E-05  3872   0.656E-03    0.696E-03
DAV:   5    -0.333185305493E+04   -0.68988E-06   -0.66970E-06  3936   0.287E-03
   9 F= -.33460550E+04 E0= -.33460550E+04  d E =-.317150E-03
 BRION: g(F)=  0.829E-03 g(S)=  0.000E+00 retain N=  3 mean eig= 1.04
 eig:   0.294  0.294  2.541
 bond charge predicted
       N       E                     dE             d eps       ncg     rms          rms(c)
DAV:   1    -0.333185327511E+04   -0.22086E-03   -0.14213E-02  3648   0.135E-01    0.213E-02
DAV:   2    -0.333185329522E+04   -0.20113E-04   -0.28329E-04  4224   0.173E-02    0.206E-02
DAV:   3    -0.333185329188E+04    0.33383E-05   -0.10349E-05  4384   0.362E-03    0.167E-02
DAV:   4    -0.333185328873E+04    0.31483E-05   -0.13896E-05  3776   0.468E-03    0.575E-03
DAV:   5    -0.333185328916E+04   -0.42573E-06   -0.36808E-06  3424   0.212E-03
  10 F= -.33460552E+04 E0= -.33460552E+04  d E =-.242197E-03
 BRION: g(F)=  0.636E-03 g(S)=  0.000E+00 retain N=  2 mean eig= 1.31
 eig:   0.195  2.421
 bond charge predicted
       N       E                     dE             d eps       ncg     rms          rms(c)
DAV:   1    -0.333185365667E+04   -0.36794E-03   -0.42873E-02  3648   0.233E-01    0.338E-02
DAV:   2    -0.333185370868E+04   -0.52016E-04   -0.71628E-04  4032   0.277E-02    0.322E-02
DAV:   3    -0.333185370018E+04    0.85069E-05   -0.23181E-05  4224   0.585E-03    0.255E-02
DAV:   4    -0.333185369585E+04    0.43313E-05   -0.41124E-05  3872   0.786E-03    0.595E-03
DAV:   5    -0.333185369630E+04   -0.45332E-06   -0.87884E-06  3872   0.331E-03
  11 F= -.33460556E+04 E0= -.33460556E+04  d E =-.422687E-03
 BRION: g(F)=  0.607E-03 g(S)=  0.000E+00 retain N=  3 mean eig= 2.55
 eig:   7.318  0.233  0.094
 bond charge predicted
       N       E                     dE             d eps       ncg     rms          rms(c)
DAV:   1    -0.333185398698E+04   -0.29113E-03   -0.34001E-02  3648   0.206E-01    0.316E-02
DAV:   2    -0.333185403513E+04   -0.48150E-04   -0.64123E-04  3968   0.252E-02    0.302E-02
DAV:   3    -0.333185402847E+04    0.66558E-05   -0.19732E-05  4256   0.515E-03    0.243E-02
DAV:   4    -0.333185402368E+04    0.47936E-05   -0.31385E-05  3776   0.691E-03    0.638E-03
DAV:   5    -0.333185402452E+04   -0.83854E-06   -0.72623E-06  3840   0.288E-03
  12 F= -.33460560E+04 E0= -.33460560E+04  d E =-.338410E-03
 BRION: g(F)=  0.791E-03 g(S)=  0.000E+00 retain N=  3 mean eig= 1.53
 eig:   4.104  0.240  0.240
 bond charge predicted
       N       E                     dE             d eps       ncg     rms          rms(c)
DAV:   1    -0.333185420886E+04   -0.18519E-03   -0.14773E-02  3648   0.133E-01    0.238E-02
DAV:   2    -0.333185423583E+04   -0.26962E-04   -0.35645E-04  4032   0.173E-02    0.226E-02
DAV:   3    -0.333185423232E+04    0.35056E-05   -0.10565E-05  4096   0.353E-03    0.182E-02
DAV:   4    -0.333185422878E+04    0.35375E-05   -0.12849E-05  3616   0.435E-03    0.615E-03
DAV:   5    -0.333185422931E+04   -0.53039E-06   -0.41030E-06  3424   0.206E-03
  13 F= -.33460562E+04 E0= -.33460562E+04  d E =-.211662E-03
 BRION: g(F)=  0.730E-03 g(S)=  0.000E+00 retain N=  3 mean eig= 2.25
 eig:   6.515  0.115  0.105
 bond charge predicted
       N       E                     dE             d eps       ncg     rms          rms(c)
DAV:   1    -0.333185452882E+04   -0.30004E-03   -0.34823E-02  3648   0.210E-01    0.316E-02
DAV:   2    -0.333185457714E+04   -0.48319E-04   -0.64868E-04  4000   0.256E-02    0.302E-02
DAV:   3    -0.333185457019E+04    0.69534E-05   -0.19940E-05  4288   0.522E-03    0.243E-02
DAV:   4    -0.333185456488E+04    0.53059E-05   -0.31766E-05  3776   0.700E-03    0.649E-03
DAV:   5    -0.333185456575E+04   -0.86718E-06   -0.76148E-06  3712   0.291E-03
  14 F= -.33460565E+04 E0= -.33460565E+04  d E =-.344614E-03
 BRION: g(F)=  0.662E-03 g(S)=  0.000E+00 retain N=  3 mean eig= 1.98
 eig:   5.667  0.141  0.141
 bond charge predicted
       N       E                     dE             d eps       ncg     rms          rms(c)
DAV:   1    -0.333185460591E+04   -0.41028E-04   -0.27821E-03  3712   0.604E-02    0.120E-02
DAV:   2    -0.333185461160E+04   -0.56901E-05   -0.85994E-05  4224   0.922E-03    0.117E-02
DAV:   3    -0.333185461041E+04    0.11933E-05   -0.31351E-06  3456   0.189E-03    0.940E-03
DAV:   4    -0.333185460885E+04    0.15582E-05   -0.40857E-06  3648   0.241E-03    0.417E-03
DAV:   5    -0.333185460880E+04    0.45984E-07   -0.11463E-06  2688   0.125E-03
  15 F= -.33460566E+04 E0= -.33460566E+04  d E =-.434099E-04
 BRION: g(F)=  0.531E-03 g(S)=  0.000E+00 retain N=  3 mean eig= 2.28
 eig:   0.256  0.256  6.343
 bond charge predicted
       N       E                     dE             d eps       ncg     rms          rms(c)
DAV:   1    -0.333185491186E+04   -0.30301E-03   -0.32763E-02  3712   0.203E-01    0.292E-02
DAV:   2    -0.333185495200E+04   -0.40134E-04   -0.54925E-04  4032   0.241E-02    0.277E-02
DAV:   3    -0.333185494554E+04    0.64600E-05   -0.16558E-05  4224   0.500E-03    0.220E-02
DAV:   4    -0.333185494226E+04    0.32748E-05   -0.31646E-05  3872   0.687E-03    0.497E-03
DAV:   5    -0.333185494259E+04   -0.33376E-06   -0.66846E-06  3680   0.284E-03
  16 F= -.33460569E+04 E0= -.33460569E+04  d E =-.340269E-03
 BRION: g(F)=  0.443E-03 g(S)=  0.000E+00 retain N=  3 mean eig= 2.15
 eig:   5.913  0.341  0.198
 bond charge predicted
       N       E                     dE             d eps       ncg     rms          rms(c)
DAV:   1    -0.333185524649E+04   -0.30423E-03   -0.42530E-02  3712   0.231E-01    0.339E-02
DAV:   2    -0.333185530302E+04   -0.56537E-04   -0.75056E-04  4000   0.278E-02    0.322E-02
DAV:   3    -0.333185529548E+04    0.75457E-05   -0.21989E-05  4288   0.564E-03    0.259E-02
DAV:   4    -0.333185529177E+04    0.37089E-05   -0.40980E-05  3840   0.789E-03    0.572E-03
DAV:   5    -0.333185529229E+04   -0.52422E-06   -0.88190E-06  3808   0.328E-03
  17 F= -.33460573E+04 E0= -.33460573E+04  d E =-.355129E-03
 BRION: g(F)=  0.595E-03 g(S)=  0.000E+00 retain N=  3 mean eig= 1.43
 eig:   3.879  0.203  0.203
 bond charge predicted
       N       E                     dE             d eps       ncg     rms          rms(c)
DAV:   1    -0.333185551061E+04   -0.21884E-03   -0.24713E-02  3712   0.174E-01    0.280E-02
DAV:   2    -0.333185555047E+04   -0.39854E-04   -0.51731E-04  3936   0.217E-02    0.266E-02
DAV:   3    -0.333185554559E+04    0.48738E-05   -0.14553E-05  4288   0.432E-03    0.216E-02
DAV:   4    -0.333185554173E+04    0.38653E-05   -0.21637E-05  3680   0.568E-03    0.618E-03
DAV:   5    -0.333185554254E+04   -0.81409E-06   -0.55824E-06  3680   0.245E-03
  18 F= -.33460575E+04 E0= -.33460575E+04  d E =-.251284E-03
 BRION: g(F)=  0.669E-03 g(S)=  0.000E+00 retain N=  3 mean eig= 2.04
 eig:   5.677  0.218  0.218
 bond charge predicted
       N       E                     dE             d eps       ncg     rms          rms(c)
DAV:   1    -0.333185591373E+04   -0.37200E-03   -0.74443E-02  3712   0.306E-01    0.450E-02
DAV:   2    -0.333185601508E+04   -0.10135E-03   -0.13419E-03  4000   0.369E-02    0.428E-02
DAV:   3    -0.333185600170E+04    0.13378E-04   -0.39108E-05  4320   0.742E-03    0.346E-02
DAV:   4    -0.333185599350E+04    0.81999E-05   -0.70312E-05  3872   0.103E-02    0.803E-03
DAV:   5    -0.333185599479E+04   -0.12860E-05   -0.15263E-05  3936   0.428E-03    0.495E-03
DAV:   6    -0.333185599437E+04    0.41816E-06   -0.20672E-06  3072   0.172E-03
  19 F= -.33460580E+04 E0= -.33460580E+04  d E =-.456001E-03
 BRION: g(F)=  0.670E-03 g(S)=  0.000E+00 retain N=  3 mean eig= 1.84
 eig:   5.156  0.235  0.137
 bond charge predicted
       N       E                     dE             d eps       ncg     rms          rms(c)
DAV:   1    -0.333185560522E+04    0.38957E-03   -0.48506E-02  3712   0.248E-01    0.362E-02
DAV:   2    -0.333185566820E+04   -0.62985E-04   -0.85855E-04  4032   0.300E-02    0.347E-02
DAV:   3    -0.333185565840E+04    0.98012E-05   -0.26576E-05  4288   0.606E-03    0.280E-02
DAV:   4    -0.333185565111E+04    0.72870E-05   -0.49647E-05  3872   0.865E-03    0.700E-03
DAV:   5    -0.333185565196E+04   -0.85204E-06   -0.10618E-05  3936   0.364E-03    0.414E-03
DAV:   6    -0.333185565178E+04    0.18626E-06   -0.14571E-06  2752   0.146E-03
  20 F= -.33460576E+04 E0= -.33460576E+04  d E =0.347302E-03
 BRION: g(F)=  0.496E-03 g(S)=  0.000E+00 retain N=  3 mean eig= 2.03
 eig:   0.295  0.295  5.512
 bond charge predicted
       N       E                     dE             d eps       ncg     rms          rms(c)
DAV:   1    -0.333185599615E+04   -0.34418E-03   -0.50433E-02  3712   0.251E-01    0.358E-02
DAV:   2    -0.333185605823E+04   -0.62078E-04   -0.84244E-04  4000   0.297E-02    0.339E-02
DAV:   3    -0.333185604853E+04    0.96993E-05   -0.24380E-05  4256   0.608E-03    0.270E-02
DAV:   4    -0.333185604356E+04    0.49672E-05   -0.51282E-05  3904   0.869E-03    0.569E-03
DAV:   5    -0.333185604382E+04   -0.25565E-06   -0.10511E-05  3808   0.364E-03    0.384E-03
DAV:   6    -0.333185604365E+04    0.17032E-06   -0.12283E-06  2688   0.135E-03
  21 F= -.33460580E+04 E0= -.33460580E+04  d E =-.392669E-03
 BRION: g(F)=  0.371E-03 g(S)=  0.000E+00 retain N=  3 mean eig= 1.97
 eig:   5.262  0.166  0.474
 bond charge predicted
       N       E                     dE             d eps       ncg     rms          rms(c)
DAV:   1    -0.333185636954E+04   -0.32573E-03   -0.55761E-02  3648   0.264E-01    0.377E-02
DAV:   2    -0.333185644239E+04   -0.72851E-04   -0.96786E-04  3968   0.315E-02    0.355E-02
DAV:   3    -0.333185643243E+04    0.99617E-05   -0.27160E-05  4288   0.636E-03    0.285E-02
DAV:   4    -0.333185642777E+04    0.46631E-05   -0.55441E-05  3904   0.910E-03    0.612E-03
DAV:   5    -0.333185642822E+04   -0.44773E-06   -0.11424E-05  3840   0.376E-03    0.415E-03
DAV:   6    -0.333185642796E+04    0.26019E-06   -0.14640E-06  2976   0.145E-03
  22 F= -.33460584E+04 E0= -.33460584E+04  d E =-.380013E-03
 BRION: g(F)=  0.460E-03 g(S)=  0.000E+00 retain N=  3 mean eig= 1.64
 eig:   4.236  0.340  0.340
 bond charge predicted
       N       E                     dE             d eps       ncg     rms          rms(c)
DAV:   1    -0.333185676644E+04   -0.33822E-03   -0.70347E-02  3648   0.296E-01    0.434E-02
DAV:   2    -0.333185686247E+04   -0.96031E-04   -0.12750E-03  4032   0.357E-02    0.408E-02
DAV:   3    -0.333185684956E+04    0.12908E-04   -0.34922E-05  4288   0.717E-03    0.328E-02
DAV:   4    -0.333185684294E+04    0.66201E-05   -0.69818E-05  3872   0.102E-02    0.722E-03
DAV:   5    -0.333185684375E+04   -0.81223E-06   -0.14640E-05  3936   0.422E-03    0.470E-03
DAV:   6    -0.333185684341E+04    0.34773E-06   -0.19308E-06  3136   0.166E-03
  23 F= -.33460588E+04 E0= -.33460588E+04  d E =-.407040E-03
 BRION: g(F)=  0.562E-03 g(S)=  0.000E+00 retain N=  3 mean eig= 1.30
 eig:   2.993  0.437  0.457
 bond charge predicted
       N       E                     dE             d eps       ncg     rms          rms(c)
DAV:   1    -0.333185719456E+04   -0.35081E-03   -0.84217E-02  3584   0.323E-01    0.474E-02
DAV:   2    -0.333185731192E+04   -0.11737E-03   -0.15435E-03  3936   0.391E-02    0.446E-02
DAV:   3    -0.333185729660E+04    0.15324E-04   -0.42641E-05  4256   0.783E-03    0.359E-02
DAV:   4    -0.333185728795E+04    0.86515E-05   -0.79993E-05  3904   0.110E-02    0.817E-03
DAV:   5    -0.333185728928E+04   -0.13340E-05   -0.17126E-05  3904   0.448E-03    0.523E-03
DAV:   6    -0.333185728878E+04    0.50268E-06   -0.23034E-06  3200   0.182E-03
  24 F= -.33460592E+04 E0= -.33460592E+04  d E =-.434147E-03
 BRION: g(F)=  0.619E-03 g(S)=  0.000E+00 retain N=  3 mean eig= 1.97
 eig:   5.460  0.253  0.209
 bond charge predicted
       N       E                     dE             d eps       ncg     rms          rms(c)
DAV:   1    -0.333185656656E+04    0.72272E-03   -0.13983E-01  3584   0.418E-01    0.604E-02
DAV:   2    -0.333185675009E+04   -0.18353E-03   -0.24536E-03  4032   0.501E-02    0.570E-02
DAV:   3    -0.333185672329E+04    0.26792E-04   -0.69067E-05  4224   0.101E-02    0.457E-02
DAV:   4    -0.333185670784E+04    0.15458E-04   -0.13656E-04  4064   0.143E-02    0.104E-02
DAV:   5    -0.333185670951E+04   -0.16788E-05   -0.28872E-05  3840   0.593E-03    0.660E-03
DAV:   6    -0.333185670895E+04    0.56881E-06   -0.40833E-06  3680   0.234E-03
  25 F= -.33460587E+04 E0= -.33460587E+04  d E =0.568100E-03
 BRION: g(F)=  0.574E-03 g(S)=  0.000E+00 retain N=  3 mean eig= 1.61
 eig:   4.132  0.348  0.348
 bond charge predicted
       N       E                     dE             d eps       ncg     rms          rms(c)
DAV:   1    -0.333185710566E+04   -0.39614E-03   -0.81563E-02  3584   0.319E-01    0.456E-02
DAV:   2    -0.333185720990E+04   -0.10424E-03   -0.13977E-03  4032   0.378E-02    0.429E-02
DAV:   3    -0.333185719435E+04    0.15548E-04   -0.38377E-05  4288   0.765E-03    0.343E-02
DAV:   4    -0.333185718626E+04    0.80906E-05   -0.81076E-05  3936   0.110E-02    0.733E-03
DAV:   5    -0.333185718686E+04   -0.59418E-06   -0.16815E-05  3872   0.457E-03    0.489E-03
DAV:   6    -0.333185718654E+04    0.31933E-06   -0.21774E-06  3136   0.173E-03
  26 F= -.33460591E+04 E0= -.33460591E+04  d E =-.465260E-03
 BRION: g(F)=  0.330E-03 g(S)=  0.000E+00 retain N=  3 mean eig= 2.38
 eig:   6.656  0.070  0.401
 bond charge predicted
       N       E                     dE             d eps       ncg     rms          rms(c)
DAV:   1    -0.333185741205E+04   -0.22519E-03   -0.27424E-02  3648   0.184E-01    0.266E-02
DAV:   2    -0.333185744978E+04   -0.37731E-04   -0.49460E-04  4000   0.222E-02    0.249E-02
DAV:   3    -0.333185744506E+04    0.47159E-05   -0.12992E-05  4256   0.442E-03    0.201E-02
DAV:   4    -0.333185744323E+04    0.18359E-05   -0.26914E-05  3744   0.636E-03    0.427E-03
DAV:   5    -0.333185744346E+04   -0.22876E-06   -0.55408E-06  3488   0.263E-03
  27 F= -.33460594E+04 E0= -.33460594E+04  d E =-.247717E-03
 BRION: g(F)=  0.334E-03 g(S)=  0.000E+00 retain N=  3 mean eig= 2.09
 eig:   5.518  0.378  0.378
 bond charge predicted
       N       E                     dE             d eps       ncg     rms          rms(c)
DAV:   1    -0.333185769971E+04   -0.25648E-03   -0.41315E-02  3648   0.225E-01    0.334E-02
DAV:   2    -0.333185775929E+04   -0.59575E-04   -0.76760E-04  3968   0.273E-02    0.313E-02
DAV:   3    -0.333185775233E+04    0.69580E-05   -0.19830E-05  4256   0.537E-03    0.253E-02
DAV:   4    -0.333185774953E+04    0.28021E-05   -0.39219E-05  3744   0.767E-03    0.546E-03
DAV:   5    -0.333185775004E+04   -0.51351E-06   -0.82391E-06  3744   0.319E-03
  28 F= -.33460597E+04 E0= -.33460597E+04  d E =-.289531E-03
 BRION: g(F)=  0.414E-03 g(S)=  0.000E+00 retain N=  3 mean eig= 1.58
 eig:   4.363  0.250  0.137
 bond charge predicted
       N       E                     dE             d eps       ncg     rms          rms(c)
DAV:   1    -0.333185804965E+04   -0.30012E-03   -0.67024E-02  3584   0.287E-01    0.421E-02
DAV:   2    -0.333185814557E+04   -0.95921E-04   -0.12361E-03  3968   0.347E-02    0.394E-02
DAV:   3    -0.333185813451E+04    0.11057E-04   -0.32049E-05  4288   0.685E-03    0.318E-02
DAV:   4    -0.333185813021E+04    0.42993E-05   -0.61238E-05  3840   0.963E-03    0.698E-03
DAV:   5    -0.333185813118E+04   -0.97160E-06   -0.13129E-05  3840   0.396E-03    0.464E-03
DAV:   6    -0.333185813076E+04    0.41944E-06   -0.18278E-06  3040   0.162E-03
  29 F= -.33460600E+04 E0= -.33460600E+04  d E =-.362950E-03
 BRION: g(F)=  0.453E-03 g(S)=  0.000E+00 retain N=  2 mean eig= 2.35
 eig:   0.130  4.572
 bond charge predicted
       N       E                     dE             d eps       ncg     rms          rms(c)
DAV:   1    -0.333185791649E+04    0.21470E-03   -0.18642E-02  3648   0.154E-01    0.232E-02
DAV:   2    -0.333185794442E+04   -0.27937E-04   -0.37633E-04  4160   0.196E-02    0.226E-02
DAV:   3    -0.333185794062E+04    0.38076E-05   -0.11692E-05  4320   0.378E-03    0.188E-02
DAV:   4    -0.333185793609E+04    0.45302E-05   -0.18880E-05  3776   0.543E-03    0.615E-03
DAV:   5    -0.333185793667E+04   -0.58231E-06   -0.49735E-06  3648   0.250E-03
  30 F= -.33460598E+04 E0= -.33460598E+04  d E =0.188102E-03
 BRION: g(F)=  0.585E-03 g(S)=  0.000E+00 retain N=  2 mean eig= 0.36
 eig:   0.198  0.525
 bond charge predicted
       N       E                     dE             d eps       ncg     rms          rms(c)
DAV:   1    -0.333185814411E+04   -0.20802E-03   -0.37571E-02  3648   0.212E-01    0.341E-02
DAV:   2    -0.333185820590E+04   -0.61796E-04   -0.81329E-04  3968   0.265E-02    0.321E-02
DAV:   3    -0.333185819794E+04    0.79639E-05   -0.21314E-05  4224   0.519E-03    0.260E-02
DAV:   4    -0.333185819039E+04    0.75424E-05   -0.34191E-05  3744   0.706E-03    0.726E-03
DAV:   5    -0.333185819155E+04   -0.11509E-05   -0.87789E-06  3776   0.301E-03    0.376E-03
DAV:   6    -0.333185819126E+04    0.28743E-06   -0.11140E-06  2688   0.132E-03
  31 F= -.33460601E+04 E0= -.33460601E+04  d E =-.238880E-03
 BRION: g(F)=  0.874E-03 g(S)=  0.000E+00 retain N=  3 mean eig= 0.44
 eig:   0.235  0.337  0.751
 bond charge predicted
       N       E                     dE             d eps       ncg     rms          rms(c)
DAV:   1    -0.333185827577E+04   -0.84226E-04   -0.34823E-03  3712   0.564E-02    0.153E-02
DAV:   2    -0.333185828656E+04   -0.10785E-04   -0.14180E-04  3936   0.858E-03    0.143E-02
DAV:   3    -0.333185828499E+04    0.15652E-05   -0.34165E-06  3232   0.172E-03    0.112E-02
DAV:   4    -0.333185828298E+04    0.20104E-05   -0.39343E-06  3072   0.211E-03    0.424E-03
DAV:   5    -0.333185828303E+04   -0.50059E-07   -0.15974E-06  2752   0.116E-03
  32 F= -.33460602E+04 E0= -.33460602E+04  d E =-.877864E-04
 BRION: g(F)=  0.268E-03 g(S)=  0.000E+00 retain N=  2 mean eig= 2.23
 eig:   0.155  4.313
 bond charge predicted
       N       E                     dE             d eps       ncg     rms          rms(c)
DAV:   1    -0.333185853715E+04   -0.25417E-03   -0.44350E-02  3648   0.233E-01    0.338E-02
DAV:   2    -0.333185859811E+04   -0.60958E-04   -0.79588E-04  3936   0.281E-02    0.315E-02
DAV:   3    -0.333185859058E+04    0.75344E-05   -0.21245E-05  4320   0.563E-03    0.254E-02
DAV:   4    -0.333185858740E+04    0.31744E-05   -0.44375E-05  3840   0.818E-03    0.534E-03
DAV:   5    -0.333185858766E+04   -0.25227E-06   -0.91585E-06  3840   0.348E-03
  33 F= -.33460604E+04 E0= -.33460604E+04  d E =-.282377E-03
 BRION: g(F)=  0.338E-03 g(S)=  0.000E+00 retain N=  3 mean eig= 1.64
 eig:   4.478  0.125  0.330
 bond charge predicted
       N       E                     dE             d eps       ncg     rms          rms(c)
DAV:   1    -0.333185867366E+04   -0.86257E-04   -0.47216E-03  3648   0.754E-02    0.128E-02
DAV:   2    -0.333185868269E+04   -0.90294E-05   -0.11352E-04  4032   0.988E-03    0.120E-02
DAV:   3    -0.333185868178E+04    0.90757E-06   -0.28342E-06  3232   0.194E-03
  34 F= -.33460605E+04 E0= -.33460605E+04  d E =-.878063E-04
 BRION: g(F)=  0.292E-03 g(S)=  0.000E+00 retain N=  1 mean eig= 0.15
 eig:   0.146
 bond charge predicted
       N       E                     dE             d eps       ncg     rms          rms(c)
DAV:   1    -0.333185887265E+04   -0.18996E-03   -0.25952E-02  3648   0.179E-01    0.277E-02
DAV:   2    -0.333185890704E+04   -0.34384E-04   -0.46214E-04  3968   0.216E-02    0.258E-02
DAV:   3    -0.333185890223E+04    0.48092E-05   -0.13794E-05  4288   0.452E-03    0.203E-02
DAV:   4    -0.333185890129E+04    0.93994E-06   -0.26495E-05  3776   0.632E-03    0.462E-03
DAV:   5    -0.333185890141E+04   -0.11933E-06   -0.57683E-06  3616   0.282E-03
  35 F= -.33460607E+04 E0= -.33460607E+04  d E =-.200602E-03
 BRION: g(F)=  0.388E-03 g(S)=  0.000E+00 retain N=  2 mean eig= 0.20
 eig:   0.204  0.204
 bond charge predicted
       N       E                     dE             d eps       ncg     rms          rms(c)
DAV:   1    -0.333185896921E+04   -0.67922E-04   -0.31666E-03  3648   0.649E-02    0.104E-02
DAV:   2    -0.333185897485E+04   -0.56446E-05   -0.77283E-05  4256   0.897E-03    0.102E-02
DAV:   3    -0.333185897410E+04    0.75100E-06   -0.24616E-06  3296   0.176E-03
  36 F= -.33460608E+04 E0= -.33460608E+04  d E =-.675240E-04
 BRION: g(F)=  0.284E-03 g(S)=  0.000E+00 retain N=  1 mean eig= 0.19
 eig:   0.191
 bond charge predicted
       N       E                     dE             d eps       ncg     rms          rms(c)
DAV:   1    -0.333185913177E+04   -0.15692E-03   -0.30692E-02  3648   0.191E-01    0.324E-02
DAV:   2    -0.333185918143E+04   -0.49664E-04   -0.65743E-04  3968   0.237E-02    0.302E-02
DAV:   3    -0.333185917493E+04    0.65059E-05   -0.17012E-05  4192   0.475E-03    0.241E-02
DAV:   4    -0.333185917135E+04    0.35735E-05   -0.29883E-05  3680   0.661E-03    0.568E-03
DAV:   5    -0.333185917213E+04   -0.77963E-06   -0.68547E-06  3648   0.278E-03
  37 F= -.33460610E+04 E0= -.33460610E+04  d E =-.173970E-03
 BRION: g(F)=  0.832E-03 g(S)=  0.000E+00 retain N=  2 mean eig= 0.14
 eig:   0.142  0.142
 bond charge predicted
       N       E                     dE             d eps       ncg     rms          rms(c)
DAV:   1    -0.333185924926E+04   -0.77906E-04   -0.39382E-03  3680   0.568E-02    0.167E-02
DAV:   2    -0.333185926177E+04   -0.12510E-04   -0.16709E-04  3904   0.869E-03    0.155E-02
DAV:   3    -0.333185925989E+04    0.18857E-05   -0.39679E-06  3136   0.176E-03    0.120E-02
DAV:   4    -0.333185925790E+04    0.19877E-05   -0.44741E-06  3104   0.213E-03    0.465E-03
DAV:   5    -0.333185925801E+04   -0.11700E-06   -0.18088E-06  2784   0.116E-03
  38 F= -.33460611E+04 E0= -.33460611E+04  d E =-.840897E-04
 BRION: g(F)=  0.255E-03 g(S)=  0.000E+00 retain N=  1 mean eig= 0.15
 eig:   0.145
 bond charge predicted
       N       E                     dE             d eps       ncg     rms          rms(c)
DAV:   1    -0.333185944105E+04   -0.18316E-03   -0.30237E-02  3648   0.192E-01    0.287E-02
DAV:   2    -0.333185948629E+04   -0.45238E-04   -0.58651E-04  3936   0.238E-02    0.270E-02
DAV:   3    -0.333185948082E+04    0.54737E-05   -0.15425E-05  4256   0.464E-03    0.220E-02
DAV:   4    -0.333185947744E+04    0.33756E-05   -0.29922E-05  3680   0.674E-03    0.540E-03
DAV:   5    -0.333185947801E+04   -0.57125E-06   -0.65152E-06  3680   0.288E-03
  39 F= -.33460613E+04 E0= -.33460613E+04  d E =-.194401E-03
 BRION: g(F)=  0.479E-03 g(S)=  0.000E+00 retain N=  2 mean eig= 0.18
 eig:   0.100  0.266
 bond charge predicted
       N       E                     dE             d eps       ncg     rms          rms(c)
DAV:   1    -0.333185954752E+04   -0.70079E-04   -0.28618E-03  3648   0.609E-02    0.109E-02
DAV:   2    -0.333185955328E+04   -0.57552E-05   -0.79123E-05  4288   0.863E-03    0.105E-02
DAV:   3    -0.333185955238E+04    0.89500E-06   -0.24223E-06  3232   0.175E-03
  40 F= -.33460613E+04 E0= -.33460613E+04  d E =-.697888E-04
 BRION: g(F)=  0.225E-03 g(S)=  0.000E+00 retain N=  1 mean eig= 0.18
 eig:   0.181
 bond charge predicted
       N       E                     dE             d eps       ncg     rms          rms(c)
DAV:   1    -0.333185975720E+04   -0.20392E-03   -0.28895E-02  3648   0.187E-01    0.288E-02
DAV:   2    -0.333185979541E+04   -0.38215E-04   -0.51042E-04  3840   0.223E-02    0.264E-02
DAV:   3    -0.333185979022E+04    0.51890E-05   -0.13514E-05  4224   0.468E-03    0.206E-02
DAV:   4    -0.333185978962E+04    0.60454E-06   -0.28831E-05  3744   0.655E-03    0.418E-03
DAV:   5    -0.333185978960E+04    0.20140E-07   -0.62292E-06  3648   0.285E-03
  41 F= -.33460615E+04 E0= -.33460615E+04  d E =-.210806E-03
 BRION: g(F)=  0.221E-03 g(S)=  0.000E+00 retain N=  2 mean eig= 0.40
 eig:   0.123  0.674
 bond charge predicted
       N       E                     dE             d eps       ncg     rms          rms(c)
DAV:   1    -0.333185991456E+04   -0.12494E-03   -0.13364E-02  3648   0.128E-01    0.191E-02
DAV:   2    -0.333185993580E+04   -0.21239E-04   -0.26944E-04  4064   0.161E-02    0.180E-02
DAV:   3    -0.333185993361E+04    0.21864E-05   -0.70514E-06  3936   0.314E-03    0.148E-02
DAV:   4    -0.333185993256E+04    0.10533E-05   -0.13067E-05  3584   0.452E-03    0.390E-03
DAV:   5    -0.333185993286E+04   -0.29500E-06   -0.28243E-06  3072   0.196E-03
  42 F= -.33460617E+04 E0= -.33460617E+04  d E =-.125746E-03
 BRION: g(F)=  0.340E-03 g(S)=  0.000E+00 retain N=  2 mean eig= 1.71
 eig:   0.217  3.195
 bond charge predicted
       N       E                     dE             d eps       ncg     rms          rms(c)
DAV:   1    -0.333186015979E+04   -0.22723E-03   -0.66053E-02  3648   0.281E-01    0.433E-02
DAV:   2    -0.333186026371E+04   -0.10392E-03   -0.13280E-03  3904   0.347E-02    0.402E-02
DAV:   3    -0.333186025215E+04    0.11568E-04   -0.32447E-05  4352   0.675E-03    0.325E-02
DAV:   4    -0.333186024618E+04    0.59673E-05   -0.62222E-05  3744   0.961E-03    0.733E-03
DAV:   5    -0.333186024734E+04   -0.11617E-05   -0.13565E-05  3968   0.405E-03    0.467E-03
DAV:   6    -0.333186024698E+04    0.36112E-06   -0.18959E-06  2976   0.162E-03
  43 F= -.33460619E+04 E0= -.33460619E+04  d E =-.266773E-03
 BRION: g(F)=  0.783E-03 g(S)=  0.000E+00 retain N=  2 mean eig= 0.53
 eig:   0.129  0.935
 bond charge predicted
       N       E                     dE             d eps       ncg     rms          rms(c)
DAV:   1    -0.333186009257E+04    0.15477E-03   -0.18959E-02  3648   0.151E-01    0.247E-02
DAV:   2    -0.333186012430E+04   -0.31731E-04   -0.41605E-04  3936   0.190E-02    0.232E-02
DAV:   3    -0.333186012013E+04    0.41716E-05   -0.10853E-05  4128   0.372E-03    0.188E-02
DAV:   4    -0.333186011658E+04    0.35464E-05   -0.17935E-05  3648   0.514E-03    0.526E-03
DAV:   5    -0.333186011716E+04   -0.57707E-06   -0.44145E-06  3520   0.225E-03
  44 F= -.33460618E+04 E0= -.33460618E+04  d E =0.105812E-03
 BRION: g(F)=  0.214E-03 g(S)=  0.000E+00 retain N=  1 mean eig= 0.17
 eig:   0.167
 bond charge predicted
       N       E                     dE             d eps       ncg     rms          rms(c)
DAV:   1    -0.333186031894E+04   -0.20236E-03   -0.31724E-02  3648   0.195E-01    0.280E-02
DAV:   2    -0.333186036330E+04   -0.44358E-04   -0.57712E-04  3808   0.235E-02    0.260E-02
DAV:   3    -0.333186035779E+04    0.55037E-05   -0.14575E-05  4256   0.467E-03    0.210E-02
DAV:   4    -0.333186035496E+04    0.28377E-05   -0.32196E-05  3680   0.698E-03    0.439E-03
DAV:   5    -0.333186035512E+04   -0.16007E-06   -0.67094E-06  3616   0.299E-03
  45 F= -.33460620E+04 E0= -.33460620E+04  d E =-.204192E-03
 BRION: g(F)=  0.269E-03 g(S)=  0.000E+00 retain N=  2 mean eig= 0.14
 eig:   0.249  0.022
 bond charge predicted
       N       E                     dE             d eps       ncg     rms          rms(c)
DAV:   1    -0.333186041629E+04   -0.61332E-04   -0.30486E-03  3648   0.617E-02    0.104E-02
DAV:   2    -0.333186042222E+04   -0.59352E-05   -0.75379E-05  4064   0.830E-03    0.978E-03
DAV:   3    -0.333186042158E+04    0.64424E-06   -0.19239E-06  3040   0.162E-03
  46 F= -.33460621E+04 E0= -.33460621E+04  d E =-.586724E-04
 BRION: g(F)=  0.226E-03 g(S)=  0.000E+00 retain N=  1 mean eig= 0.16
 eig:   0.160
 bond charge predicted
       N       E                     dE             d eps       ncg     rms          rms(c)
DAV:   1    -0.333186059025E+04   -0.16803E-03   -0.20596E-02  3648   0.157E-01    0.248E-02
DAV:   2    -0.333186061924E+04   -0.28988E-04   -0.38049E-04  3840   0.188E-02    0.226E-02
DAV:   3    -0.333186061572E+04    0.35138E-05   -0.96075E-06  4128   0.387E-03    0.178E-02
DAV:   4    -0.333186061537E+04    0.35483E-06   -0.20326E-05  3648   0.549E-03    0.353E-03
DAV:   5    -0.333186061538E+04   -0.11409E-07   -0.42843E-06  3264   0.239E-03
  47 F= -.33460623E+04 E0= -.33460623E+04  d E =-.166576E-03
 BRION: g(F)=  0.233E-03 g(S)=  0.000E+00 retain N=  2 mean eig= 0.12
 eig:   0.125  0.125
 bond charge predicted
       N       E                     dE             d eps       ncg     rms          rms(c)
DAV:   1    -0.333186067012E+04   -0.54748E-04   -0.28871E-03  3648   0.557E-02    0.110E-02
DAV:   2    -0.333186067663E+04   -0.65165E-05   -0.82453E-05  3904   0.751E-03    0.101E-02
DAV:   3    -0.333186067593E+04    0.70140E-06   -0.18264E-06  3072   0.148E-03
  48 F= -.33460623E+04 E0= -.33460623E+04  d E =-.518746E-04
 BRION: g(F)=  0.246E-03 g(S)=  0.000E+00 retain N=  1 mean eig= 0.15
 eig:   0.149
 bond charge predicted
       N       E                     dE             d eps       ncg     rms          rms(c)
DAV:   1    -0.333186082047E+04   -0.14384E-03   -0.18940E-02  3648   0.150E-01    0.241E-02
DAV:   2    -0.333186084934E+04   -0.28873E-04   -0.37475E-04  3872   0.184E-02    0.222E-02
DAV:   3    -0.333186084593E+04    0.34140E-05   -0.93793E-06  4192   0.369E-03    0.178E-02
DAV:   4    -0.333186084480E+04    0.11240E-05   -0.18521E-05  3584   0.531E-03    0.381E-03
DAV:   5    -0.333186084503E+04   -0.22422E-06   -0.40136E-06  3424   0.229E-03
  49 F= -.33460624E+04 E0= -.33460624E+04  d E =-.140281E-03
 BRION: g(F)=  0.373E-03 g(S)=  0.000E+00 retain N=  2 mean eig= 0.24
 eig:   0.099  0.378
 bond charge predicted
       N       E                     dE             d eps       ncg     rms          rms(c)
DAV:   1    -0.333186089778E+04   -0.52973E-04   -0.21774E-03  3648   0.525E-02    0.964E-03
DAV:   2    -0.333186090252E+04   -0.47468E-05   -0.63099E-05  4128   0.747E-03    0.922E-03
DAV:   3    -0.333186090187E+04    0.65600E-06   -0.17203E-06  3040   0.147E-03
  50 F= -.33460625E+04 E0= -.33460625E+04  d E =-.515088E-04
 BRION: g(F)=  0.201E-03 g(S)=  0.000E+00 retain N=  1 mean eig= 0.17
 eig:   0.170
 bond charge predicted
       N       E                     dE             d eps       ncg     rms          rms(c)
DAV:   1    -0.333186104684E+04   -0.14432E-03   -0.24820E-02  3584   0.170E-01    0.280E-02
DAV:   2    -0.333186108686E+04   -0.40012E-04   -0.51865E-04  3904   0.211E-02    0.258E-02
DAV:   3    -0.333186108211E+04    0.47425E-05   -0.12595E-05  4192   0.417E-03    0.206E-02
DAV:   4    -0.333186107994E+04    0.21703E-05   -0.23976E-05  3616   0.595E-03    0.457E-03
DAV:   5    -0.333186108041E+04   -0.46997E-06   -0.52846E-06  3488   0.250E-03
  51 F= -.33460626E+04 E0= -.33460626E+04  d E =-.146148E-03
 BRION: g(F)=  0.512E-03 g(S)=  0.000E+00 retain N=  2 mean eig= 0.07
 eig:   0.073  0.073
 bond charge predicted
       N       E                     dE             d eps       ncg     rms          rms(c)
DAV:   1    -0.333186113500E+04   -0.55057E-04   -0.25950E-03  3680   0.476E-02    0.132E-02
DAV:   2    -0.333186114281E+04   -0.78096E-05   -0.10441E-04  3808   0.717E-03    0.121E-02
DAV:   3    -0.333186114164E+04    0.11694E-05   -0.25001E-06  3040   0.147E-03    0.935E-03
DAV:   4    -0.333186114054E+04    0.11033E-05   -0.25891E-06  2784   0.172E-03    0.361E-03
DAV:   5    -0.333186114065E+04   -0.11409E-06   -0.11602E-06  2688   0.101E-03
  52 F= -.33460627E+04 E0= -.33460627E+04  d E =-.560265E-04
 BRION: g(F)=  0.193E-03 g(S)=  0.000E+00 retain N=  1 mean eig= 0.15
 eig:   0.145
 bond charge predicted
       N       E                     dE             d eps       ncg     rms          rms(c)
DAV:   1    -0.333186129695E+04   -0.15641E-03   -0.22800E-02  3584   0.165E-01    0.248E-02
DAV:   2    -0.333186133197E+04   -0.35024E-04   -0.44703E-04  3872   0.203E-02    0.230E-02
DAV:   3    -0.333186132807E+04    0.38982E-05   -0.10749E-05  4256   0.396E-03    0.186E-02
DAV:   4    -0.333186132617E+04    0.19022E-05   -0.21816E-05  3648   0.576E-03    0.423E-03
DAV:   5    -0.333186132651E+04   -0.33574E-06   -0.47304E-06  3424   0.247E-03
  53 F= -.33460629E+04 E0= -.33460629E+04  d E =-.151594E-03
 BRION: g(F)=  0.320E-03 g(S)=  0.000E+00 retain N=  2 mean eig= 0.30
 eig:   0.111  0.480
 bond charge predicted
       N       E                     dE             d eps       ncg     rms          rms(c)
DAV:   1    -0.333186137702E+04   -0.50846E-04   -0.19453E-03  3648   0.494E-02    0.896E-03
DAV:   2    -0.333186138110E+04   -0.40864E-05   -0.54249E-05  4128   0.694E-03    0.850E-03
DAV:   3    -0.333186138054E+04    0.56427E-06   -0.14649E-06  2912   0.140E-03
  54 F= -.33460629E+04 E0= -.33460629E+04  d E =-.481156E-04
 BRION: g(F)=  0.173E-03 g(S)=  0.000E+00 retain N=  1 mean eig= 0.17
 eig:   0.170
 bond charge predicted
       N       E                     dE             d eps       ncg     rms          rms(c)
DAV:   1    -0.333186154679E+04   -0.16569E-03   -0.22100E-02  3584   0.162E-01    0.250E-02
DAV:   2    -0.333186157736E+04   -0.30566E-04   -0.40049E-04  3840   0.194E-02    0.226E-02
DAV:   3    -0.333186157363E+04    0.37237E-05   -0.98083E-06  4192   0.398E-03    0.179E-02
DAV:   4    -0.333186157331E+04    0.32259E-06   -0.21743E-05  3648   0.569E-03    0.361E-03
DAV:   5    -0.333186157330E+04    0.12806E-07   -0.46054E-06  3360   0.247E-03
  55 F= -.33460631E+04 E0= -.33460631E+04  d E =-.160435E-03
 BRION: g(F)=  0.169E-03 g(S)=  0.000E+00 retain N=  2 mean eig= 0.45
 eig:   0.140  0.760
 bond charge predicted
       N       E                     dE             d eps       ncg     rms          rms(c)
DAV:   1    -0.333186168073E+04   -0.10742E-03   -0.11223E-02  3584   0.115E-01    0.177E-02
DAV:   2    -0.333186169988E+04   -0.19149E-04   -0.23794E-04  3968   0.145E-02    0.164E-02
DAV:   3    -0.333186169808E+04    0.17954E-05   -0.56421E-06  3680   0.283E-03    0.135E-02
DAV:   4    -0.333186169733E+04    0.74960E-06   -0.10741E-05  3552   0.407E-03    0.347E-03
DAV:   5    -0.333186169759E+04   -0.25204E-06   -0.23438E-06  3136   0.175E-03
  56 F= -.33460632E+04 E0= -.33460632E+04  d E =-.992130E-04
 BRION: g(F)=  0.289E-03 g(S)=  0.000E+00 retain N=  2 mean eig= 1.94
 eig:   0.273  3.599
 bond charge predicted
       N       E                     dE             d eps       ncg     rms          rms(c)
DAV:   1    -0.333186187369E+04   -0.17636E-03   -0.42483E-02  3584   0.221E-01    0.355E-02
DAV:   2    -0.333186194569E+04   -0.71995E-04   -0.90792E-04  3872   0.276E-02    0.327E-02
DAV:   3    -0.333186193835E+04    0.73392E-05   -0.20718E-05  4256   0.534E-03    0.265E-02
DAV:   4    -0.333186193438E+04    0.39705E-05   -0.37930E-05  3680   0.746E-03    0.608E-03
DAV:   5    -0.333186193533E+04   -0.94925E-06   -0.85830E-06  3840   0.317E-03
  57 F= -.33460633E+04 E0= -.33460633E+04  d E =-.185335E-03
 BRION: g(F)=  0.603E-03 g(S)=  0.000E+00 retain N=  2 mean eig= 0.69
 eig:   0.119  1.253
 bond charge predicted
       N       E                     dE             d eps       ncg     rms          rms(c)
DAV:   1    -0.333186183263E+04    0.10175E-03   -0.10953E-02  3584   0.113E-01    0.192E-02
DAV:   2    -0.333186185175E+04   -0.19119E-04   -0.25683E-04  3904   0.146E-02    0.181E-02
DAV:   3    -0.333186184892E+04    0.28241E-05   -0.65766E-06  3872   0.288E-03    0.146E-02
DAV:   4    -0.333186184590E+04    0.30213E-05   -0.11696E-05  3616   0.411E-03    0.437E-03
DAV:   5    -0.333186184621E+04   -0.31025E-06   -0.28857E-06  3264   0.180E-03
  58 F= -.33460633E+04 E0= -.33460633E+04  d E =0.627359E-04
 BRION: g(F)=  0.164E-03 g(S)=  0.000E+00 retain N=  1 mean eig= 0.17
 eig:   0.172
 bond charge predicted
       N       E                     dE             d eps       ncg     rms          rms(c)
DAV:   1    -0.333186201662E+04   -0.17072E-03   -0.24569E-02  3584   0.169E-01    0.244E-02
DAV:   2    -0.333186205200E+04   -0.35379E-04   -0.45173E-04  3808   0.205E-02    0.223E-02
DAV:   3    -0.333186204801E+04    0.39907E-05   -0.10546E-05  4256   0.403E-03    0.181E-02
DAV:   4    -0.333186204640E+04    0.16134E-05   -0.24816E-05  3680   0.611E-03    0.367E-03
DAV:   5    -0.333186204642E+04   -0.25495E-07   -0.51235E-06  3392   0.262E-03
  59 F= -.33460634E+04 E0= -.33460634E+04  d E =-.161735E-03
 BRION: g(F)=  0.170E-03 g(S)=  0.000E+00 retain N=  2 mean eig= 0.35
 eig:   0.145  0.561
 bond charge predicted
       N       E                     dE             d eps       ncg     rms          rms(c)
DAV:   1    -0.333186211990E+04   -0.73504E-04   -0.49632E-03  3584   0.777E-02    0.118E-02
DAV:   2    -0.333186212848E+04   -0.85796E-05   -0.10597E-04  4032   0.996E-03    0.111E-02
DAV:   3    -0.333186212772E+04    0.75949E-06   -0.24517E-06  3136   0.191E-03
  60 F= -.33460635E+04 E0= -.33460635E+04  d E =-.651432E-04
 BRION: g(F)=  0.213E-03 g(S)=  0.000E+00 retain N=  1 mean eig= 0.14
 eig:   0.139
 bond charge predicted
       N       E                     dE             d eps       ncg     rms          rms(c)
DAV:   1    -0.333186223889E+04   -0.11041E-03   -0.10401E-02  3584   0.109E-01    0.187E-02
DAV:   2    -0.333186225524E+04   -0.16350E-04   -0.21113E-04  3872   0.133E-02    0.169E-02
DAV:   3    -0.333186225347E+04    0.17766E-05   -0.49486E-06  3584   0.270E-03    0.134E-02
DAV:   4    -0.333186225332E+04    0.14447E-06   -0.99968E-06  3488   0.378E-03
  61 F= -.33460636E+04 E0= -.33460636E+04  d E =-.994931E-04
 BRION: g(F)=  0.249E-03 g(S)=  0.000E+00 retain N=  2 mean eig= 0.09
 eig:   0.008  0.180
 bond charge predicted
       N       E                     dE             d eps       ncg     rms          rms(c)
DAV:   1    -0.333186228849E+04   -0.35019E-04   -0.15681E-03  3744   0.374E-02    0.979E-03
DAV:   2    -0.333186229290E+04   -0.44106E-05   -0.57442E-05  3840   0.532E-03    0.891E-03
DAV:   3    -0.333186229231E+04    0.58720E-06   -0.12125E-06  2752   0.108E-03
  62 F= -.33460636E+04 E0= -.33460636E+04  d E =-.330229E-04
 BRION: g(F)=  0.178E-03 g(S)=  0.000E+00 retain N=  1 mean eig= 0.15
 eig:   0.154
 bond charge predicted
       N       E                     dE             d eps       ncg     rms          rms(c)
DAV:   1    -0.333186241462E+04   -0.12173E-03   -0.19397E-02  3584   0.152E-01    0.238E-02
DAV:   2    -0.333186244540E+04   -0.30781E-04   -0.39304E-04  3936   0.190E-02    0.219E-02
DAV:   3    -0.333186244200E+04    0.34068E-05   -0.96584E-06  4160   0.371E-03    0.177E-02
DAV:   4    -0.333186244038E+04    0.16144E-05   -0.18866E-05  3680   0.542E-03    0.395E-03
DAV:   5    -0.333186244065E+04   -0.26869E-06   -0.41540E-06  3296   0.233E-03
  63 F= -.33460638E+04 E0= -.33460638E+04  d E =-.112903E-03
 BRION: g(F)=  0.418E-03 g(S)=  0.000E+00 retain N=  2 mean eig= 0.08
 eig:   0.106  0.062
 bond charge predicted
       N       E                     dE             d eps       ncg     rms          rms(c)
DAV:   1    -0.333186249365E+04   -0.53264E-04   -0.21928E-03  3584   0.539E-02    0.962E-03
DAV:   2    -0.333186249837E+04   -0.47268E-05   -0.63532E-05  4096   0.777E-03    0.933E-03
DAV:   3    -0.333186249773E+04    0.64226E-06   -0.18289E-06  3040   0.152E-03
  64 F= -.33460638E+04 E0= -.33460638E+04  d E =-.512153E-04
 BRION: g(F)=  0.157E-03 g(S)=  0.000E+00 retain N=  1 mean eig= 0.17
 eig:   0.174
 bond charge predicted
       N       E                     dE             d eps       ncg     rms          rms(c)
DAV:   1    -0.333186262525E+04   -0.12688E-03   -0.20785E-02  3584   0.154E-01    0.255E-02
DAV:   2    -0.333186265936E+04   -0.34108E-04   -0.43838E-04  3872   0.191E-02    0.234E-02
DAV:   3    -0.333186265551E+04    0.38539E-05   -0.10100E-05  4128   0.377E-03    0.187E-02
DAV:   4    -0.333186265391E+04    0.15994E-05   -0.20286E-05  3584   0.548E-03    0.398E-03
DAV:   5    -0.333186265424E+04   -0.33551E-06   -0.43775E-06  3456   0.230E-03
  65 F= -.33460639E+04 E0= -.33460639E+04  d E =-.119110E-03
 BRION: g(F)=  0.409E-03 g(S)=  0.000E+00 retain N=  2 mean eig= 0.11
 eig:   0.108  0.108
 bond charge predicted
       N       E                     dE             d eps       ncg     rms          rms(c)
DAV:   1    -0.333186269755E+04   -0.43638E-04   -0.20469E-03  3680   0.399E-02    0.120E-02
DAV:   2    -0.333186270402E+04   -0.64687E-05   -0.86017E-05  3808   0.605E-03    0.110E-02
DAV:   3    -0.333186270306E+04    0.95309E-06   -0.18895E-06  2816   0.122E-03
  66 F= -.33460640E+04 E0= -.33460640E+04  d E =-.442030E-04
 BRION: g(F)=  0.149E-03 g(S)=  0.000E+00 retain N=  1 mean eig= 0.16
 eig:   0.156
 bond charge predicted
       N       E                     dE             d eps       ncg     rms          rms(c)
DAV:   1    -0.333186284051E+04   -0.13649E-03   -0.19178E-02  3584   0.150E-01    0.231E-02
DAV:   2    -0.333186286913E+04   -0.28626E-04   -0.36612E-04  3808   0.183E-02    0.210E-02
DAV:   3    -0.333186286600E+04    0.31323E-05   -0.89072E-06  4192   0.370E-03    0.168E-02
DAV:   4    -0.333186286527E+04    0.73086E-06   -0.18930E-05  3616   0.540E-03    0.349E-03
DAV:   5    -0.333186286533E+04   -0.61817E-07   -0.40655E-06  3264   0.237E-03
  67 F= -.33460641E+04 E0= -.33460641E+04  d E =-.125492E-03
 BRION: g(F)=  0.230E-03 g(S)=  0.000E+00 retain N=  2 mean eig= 0.18
 eig:   0.181  0.181
 bond charge predicted
       N       E                     dE             d eps       ncg     rms          rms(c)
DAV:   1    -0.333186290855E+04   -0.43282E-04   -0.17847E-03  3584   0.478E-02    0.810E-03
DAV:   2    -0.333186291218E+04   -0.36323E-05   -0.46972E-05  4096   0.664E-03    0.773E-03
DAV:   3    -0.333186291175E+04    0.42829E-06   -0.11823E-06  2816   0.131E-03
  68 F= -.33460641E+04 E0= -.33460641E+04  d E =-.384934E-04
 BRION: g(F)=  0.153E-03 g(S)=  0.000E+00 retain N=  1 mean eig= 0.17
 eig:   0.170
 bond charge predicted
       N       E                     dE             d eps       ncg     rms          rms(c)
DAV:   1    -0.333186303523E+04   -0.12305E-03   -0.17328E-02  3584   0.141E-01    0.232E-02
DAV:   2    -0.333186306321E+04   -0.27972E-04   -0.35902E-04  3872   0.173E-02    0.212E-02
DAV:   3    -0.333186306009E+04    0.31178E-05   -0.80775E-06  4032   0.343E-03    0.169E-02
DAV:   4    -0.333186305908E+04    0.10057E-05   -0.16937E-05  3488   0.499E-03    0.351E-03
DAV:   5    -0.333186305931E+04   -0.22515E-06   -0.35825E-06  3296   0.211E-03
  69 F= -.33460642E+04 E0= -.33460642E+04  d E =-.111567E-03
 BRION: g(F)=  0.312E-03 g(S)=  0.000E+00 retain N=  2 mean eig= 0.10
 eig:   0.104  0.104
 bond charge predicted
       N       E                     dE             d eps       ncg     rms          rms(c)
DAV:   1    -0.333186309669E+04   -0.37606E-04   -0.16695E-03  3616   0.368E-02    0.106E-02
DAV:   2    -0.333186310179E+04   -0.50977E-05   -0.67368E-05  3840   0.549E-03    0.963E-03
DAV:   3    -0.333186310106E+04    0.72527E-06   -0.14468E-06  2816   0.111E-03
  70 F= -.33460643E+04 E0= -.33460643E+04  d E =-.365158E-04
 BRION: g(F)=  0.145E-03 g(S)=  0.000E+00 retain N=  1 mean eig= 0.16
 eig:   0.155
 bond charge predicted
       N       E                     dE             d eps       ncg     rms          rms(c)
DAV:   1    -0.333186322900E+04   -0.12721E-03   -0.18042E-02  3584   0.146E-01    0.225E-02
DAV:   2    -0.333186325640E+04   -0.27400E-04   -0.35040E-04  3840   0.179E-02    0.206E-02
DAV:   3    -0.333186325339E+04    0.30074E-05   -0.86642E-06  4160   0.362E-03    0.165E-02
DAV:   4    -0.333186325250E+04    0.89523E-06   -0.18001E-05  3616   0.529E-03    0.353E-03
DAV:   5    -0.333186325260E+04   -0.10757E-06   -0.38805E-06  3264   0.233E-03
  71 F= -.33460644E+04 E0= -.33460644E+04  d E =-.114448E-03
 BRION: g(F)=  0.247E-03 g(S)=  0.000E+00 retain N=  2 mean eig= 0.16
 eig:   0.161  0.161
 bond charge predicted
       N       E                     dE             d eps       ncg     rms          rms(c)
DAV:   1    -0.333186329546E+04   -0.42965E-04   -0.17879E-03  3584   0.481E-02    0.831E-03
DAV:   2    -0.333186329910E+04   -0.36432E-05   -0.48202E-05  4192   0.677E-03    0.797E-03
DAV:   3    -0.333186329862E+04    0.48615E-06   -0.12630E-06  2752   0.134E-03
  72 F= -.33460644E+04 E0= -.33460644E+04  d E =-.384291E-04
 BRION: g(F)=  0.143E-03 g(S)=  0.000E+00 retain N=  1 mean eig= 0.18
 eig:   0.177
 bond charge predicted
       N       E                     dE             d eps       ncg     rms          rms(c)
DAV:   1    -0.333186341857E+04   -0.11946E-03   -0.17066E-02  3584   0.140E-01    0.230E-02
DAV:   2    -0.333186344601E+04   -0.27438E-04   -0.35279E-04  3872   0.172E-02    0.210E-02
DAV:   3    -0.333186344289E+04    0.31147E-05   -0.80080E-06  4032   0.343E-03    0.168E-02
DAV:   4    -0.333186344187E+04    0.10178E-05   -0.17183E-05  3552   0.504E-03    0.351E-03
DAV:   5    -0.333186344208E+04   -0.20722E-06   -0.36080E-06  3296   0.214E-03
  73 F= -.33460645E+04 E0= -.33460645E+04  d E =-.106938E-03
 BRION: g(F)=  0.291E-03 g(S)=  0.000E+00 retain N=  2 mean eig= 0.15
 eig:   0.147  0.147
 bond charge predicted
       N       E                     dE             d eps       ncg     rms          rms(c)
DAV:   1    -0.333186347940E+04   -0.37531E-04   -0.17198E-03  3680   0.380E-02    0.106E-02
DAV:   2    -0.333186348451E+04   -0.51046E-05   -0.67920E-05  3872   0.566E-03    0.969E-03
DAV:   3    -0.333186348376E+04    0.75309E-06   -0.14994E-06  2944   0.116E-03
  74 F= -.33460646E+04 E0= -.33460646E+04  d E =-.359235E-04
 BRION: g(F)=  0.140E-03 g(S)=  0.000E+00 retain N=  1 mean eig= 0.16
 eig:   0.158
 bond charge predicted
       N       E                     dE             d eps       ncg     rms          rms(c)
DAV:   1    -0.333186360774E+04   -0.12323E-03   -0.16966E-02  3584   0.141E-01    0.221E-02
DAV:   2    -0.333186363353E+04   -0.25784E-04   -0.33171E-04  3840   0.174E-02    0.201E-02
DAV:   3    -0.333186363059E+04    0.29400E-05   -0.82797E-06  4160   0.354E-03    0.161E-02
DAV:   4    -0.333186362971E+04    0.88010E-06   -0.17821E-05  3584   0.526E-03    0.345E-03
DAV:   5    -0.333186362979E+04   -0.84052E-07   -0.38013E-06  3232   0.231E-03
  75 F= -.33460647E+04 E0= -.33460647E+04  d E =-.108873E-03
 BRION: g(F)=  0.215E-03 g(S)=  0.000E+00 retain N=  2 mean eig= 0.18
 eig:   0.179  0.179
 bond charge predicted
       N       E                     dE             d eps       ncg     rms          rms(c)
DAV:   1    -0.333186367349E+04   -0.43786E-04   -0.19279E-03  3584   0.495E-02    0.870E-03
DAV:   2    -0.333186367720E+04   -0.37120E-05   -0.50501E-05  4192   0.695E-03    0.828E-03
DAV:   3    -0.333186367662E+04    0.58697E-06   -0.13888E-06  2848   0.143E-03
  76 F= -.33460647E+04 E0= -.33460647E+04  d E =-.383921E-04
 BRION: g(F)=  0.138E-03 g(S)=  0.000E+00 retain N=  1 mean eig= 0.19
 eig:   0.190
 bond charge predicted
       N       E                     dE             d eps       ncg     rms          rms(c)
DAV:   1    -0.333186379028E+04   -0.11308E-03   -0.15880E-02  3584   0.135E-01    0.223E-02
DAV:   2    -0.333186381560E+04   -0.25317E-04   -0.32723E-04  3872   0.167E-02    0.203E-02
DAV:   3    -0.333186381262E+04    0.29843E-05   -0.75596E-06  4032   0.334E-03    0.162E-02
DAV:   4    -0.333186381159E+04    0.10235E-05   -0.16654E-05  3520   0.498E-03    0.341E-03
DAV:   5    -0.333186381177E+04   -0.17998E-06   -0.34423E-06  3232   0.211E-03
  77 F= -.33460648E+04 E0= -.33460648E+04  d E =-.993151E-04
 BRION: g(F)=  0.264E-03 g(S)=  0.000E+00 retain N=  2 mean eig= 0.20
 eig:   0.197  0.197
 bond charge predicted
       N       E                     dE             d eps       ncg     rms          rms(c)
DAV:   1    -0.333186385063E+04   -0.39040E-04   -0.18614E-03  3616   0.414E-02    0.107E-02
DAV:   2    -0.333186385569E+04   -0.50556E-05   -0.68862E-05  4032   0.612E-03    0.984E-03
DAV:   3    -0.333186385485E+04    0.83609E-06   -0.16099E-06  2912   0.129E-03
  78 F= -.33460649E+04 E0= -.33460649E+04  d E =-.364370E-04
 BRION: g(F)=  0.137E-03 g(S)=  0.000E+00 retain N=  1 mean eig= 0.16
 eig:   0.164
 bond charge predicted
       N       E                     dE             d eps       ncg     rms          rms(c)
DAV:   1    -0.333186397110E+04   -0.11541E-03   -0.16166E-02  3584   0.138E-01    0.220E-02
DAV:   2    -0.333186399587E+04   -0.24766E-04   -0.32263E-04  3968   0.171E-02    0.201E-02
DAV:   3    -0.333186399274E+04    0.31259E-05   -0.78920E-06  4096   0.347E-03    0.161E-02
DAV:   4    -0.333186399159E+04    0.11530E-05   -0.18506E-05  3584   0.532E-03    0.342E-03
DAV:   5    -0.333186399168E+04   -0.93365E-07   -0.37901E-06  3168   0.227E-03
  79 F= -.33460650E+04 E0= -.33460650E+04  d E =-.998834E-04
 BRION: g(F)=  0.209E-03 g(S)=  0.000E+00 retain N=  2 mean eig= 0.20
 eig:   0.199  0.199
 bond charge predicted
       N       E                     dE             d eps       ncg     rms          rms(c)
DAV:   1    -0.333186403924E+04   -0.47650E-04   -0.22677E-03  3648   0.530E-02    0.996E-03
DAV:   2    -0.333186404316E+04   -0.39256E-05   -0.58123E-05  4288   0.743E-03    0.931E-03
DAV:   3    -0.333186404220E+04    0.96811E-06   -0.16433E-06  2912   0.161E-03
  80 F= -.33460650E+04 E0= -.33460650E+04  d E =-.414158E-04
 BRION: g(F)=  0.127E-03 g(S)=  0.000E+00 retain N=  1 mean eig= 0.22
 eig:   0.216
 bond charge predicted
       N       E                     dE             d eps       ncg     rms          rms(c)
DAV:   1    -0.333186415177E+04   -0.10860E-03   -0.15498E-02  3584   0.133E-01    0.219E-02
DAV:   2    -0.333186417640E+04   -0.24632E-04   -0.31710E-04  3872   0.164E-02    0.199E-02
DAV:   3    -0.333186417356E+04    0.28398E-05   -0.72804E-06  3968   0.329E-03    0.159E-02
DAV:   4    -0.333186417264E+04    0.92504E-06   -0.15980E-05  3520   0.487E-03    0.328E-03
DAV:   5    -0.333186417280E+04   -0.16741E-06   -0.32932E-06  3200   0.205E-03
  81 F= -.33460651E+04 E0= -.33460651E+04  d E =-.946613E-04
 BRION: g(F)=  0.252E-03 g(S)=  0.000E+00 retain N=  2 mean eig= 0.24
 eig:   0.237  0.237
 bond charge predicted
       N       E                     dE             d eps       ncg     rms          rms(c)
DAV:   1    -0.333186421203E+04   -0.39393E-04   -0.18284E-03  3648   0.420E-02    0.105E-02
DAV:   2    -0.333186421666E+04   -0.46361E-05   -0.64394E-05  4096   0.613E-03    0.961E-03
DAV:   3    -0.333186421581E+04    0.85088E-06   -0.15356E-06  2848   0.130E-03
  82 F= -.33460651E+04 E0= -.33460651E+04  d E =-.361309E-04
 BRION: g(F)=  0.126E-03 g(S)=  0.000E+00 retain N=  1 mean eig= 0.17
 eig:   0.168
 bond charge predicted
       N       E                     dE             d eps       ncg     rms          rms(c)
DAV:   1    -0.333186432918E+04   -0.11252E-03   -0.15418E-02  3584   0.134E-01    0.215E-02
DAV:   2    -0.333186435254E+04   -0.23354E-04   -0.30485E-04  3904   0.166E-02    0.196E-02
DAV:   3    -0.333186434957E+04    0.29645E-05   -0.73539E-06  4096   0.338E-03    0.156E-02
DAV:   4    -0.333186434859E+04    0.98487E-06   -0.17679E-05  3584   0.518E-03    0.320E-03
DAV:   5    -0.333186434865E+04   -0.61584E-07   -0.35735E-06  3168   0.219E-03
  83 F= -.33460652E+04 E0= -.33460652E+04  d E =-.962006E-04
 BRION: g(F)=  0.188E-03 g(S)=  0.000E+00 retain N=  2 mean eig= 0.22
 eig:   0.223  0.223
 bond charge predicted
       N       E                     dE             d eps       ncg     rms          rms(c)
DAV:   1    -0.333186439345E+04   -0.44862E-04   -0.21164E-03  3648   0.508E-02    0.974E-03
DAV:   2    -0.333186439709E+04   -0.36368E-05   -0.54417E-05  4288   0.709E-03    0.903E-03
DAV:   3    -0.333186439614E+04    0.94587E-06   -0.15033E-06  2880   0.155E-03
  84 F= -.33460653E+04 E0= -.33460653E+04  d E =-.382428E-04
 BRION: g(F)=  0.120E-03 g(S)=  0.000E+00 retain N=  1 mean eig= 0.21
 eig:   0.212
 bond charge predicted
       N       E                     dE             d eps       ncg     rms          rms(c)
DAV:   1    -0.333186450101E+04   -0.10393E-03   -0.14577E-02  3584   0.129E-01    0.212E-02
DAV:   2    -0.333186452433E+04   -0.23313E-04   -0.29983E-04  3872   0.159E-02    0.193E-02
DAV:   3    -0.333186452164E+04    0.26828E-05   -0.68162E-06  3936   0.318E-03    0.155E-02
DAV:   4    -0.333186452074E+04    0.89826E-06   -0.15140E-05  3520   0.474E-03    0.316E-03
DAV:   5    -0.333186452090E+04   -0.15635E-06   -0.30899E-06  3168   0.200E-03
  85 F= -.33460654E+04 E0= -.33460654E+04  d E =-.891479E-04
 BRION: g(F)=  0.242E-03 g(S)=  0.000E+00 retain N=  2 mean eig= 0.24
 eig:   0.236  0.236
 bond charge predicted
       N       E                     dE             d eps       ncg     rms          rms(c)
DAV:   1    -0.333186455884E+04   -0.38099E-04   -0.17514E-03  3648   0.412E-02    0.103E-02
DAV:   2    -0.333186456323E+04   -0.43829E-05   -0.61392E-05  4128   0.601E-03    0.943E-03
DAV:   3    -0.333186456238E+04    0.84483E-06   -0.14531E-06  2848   0.127E-03
  86 F= -.33460654E+04 E0= -.33460654E+04  d E =-.347050E-04
 BRION: g(F)=  0.119E-03 g(S)=  0.000E+00 retain N=  1 mean eig= 0.17
 eig:   0.168
 bond charge predicted
       N       E                     dE             d eps       ncg     rms          rms(c)
DAV:   1    -0.333186467091E+04   -0.10768E-03   -0.14769E-02  3584   0.131E-01    0.211E-02
DAV:   2    -0.333186469323E+04   -0.22317E-04   -0.29254E-04  3872   0.163E-02    0.192E-02
DAV:   3    -0.333186469034E+04    0.28835E-05   -0.71519E-06  4064   0.332E-03    0.153E-02
DAV:   4    -0.333186468934E+04    0.99686E-06   -0.17248E-05  3584   0.511E-03    0.310E-03
DAV:   5    -0.333186468940E+04   -0.59488E-07   -0.34306E-06  3136   0.214E-03
  87 F= -.33460655E+04 E0= -.33460655E+04  d E =-.908085E-04
 BRION: g(F)=  0.183E-03 g(S)=  0.000E+00 retain N=  2 mean eig= 0.23
 eig:   0.225  0.225
 bond charge predicted
       N       E                     dE             d eps       ncg     rms          rms(c)
DAV:   1    -0.333186473282E+04   -0.43479E-04   -0.20449E-03  3648   0.498E-02    0.973E-03
DAV:   2    -0.333186473626E+04   -0.34373E-05   -0.52733E-05  4288   0.698E-03    0.898E-03
DAV:   3    -0.333186473527E+04    0.98918E-06   -0.14895E-06  2912   0.155E-03
  88 F= -.33460655E+04 E0= -.33460655E+04  d E =-.367784E-04
 BRION: g(F)=  0.114E-03 g(S)=  0.000E+00 retain N=  1 mean eig= 0.21
 eig:   0.213
 bond charge predicted
       N       E                     dE             d eps       ncg     rms          rms(c)
DAV:   1    -0.333186483502E+04   -0.98763E-04   -0.14020E-02  3584   0.127E-01    0.209E-02
DAV:   2    -0.333186485759E+04   -0.22561E-04   -0.29032E-04  3872   0.156E-02    0.190E-02
DAV:   3    -0.333186485498E+04    0.26053E-05   -0.65677E-06  3904   0.313E-03    0.152E-02
DAV:   4    -0.333186485407E+04    0.91211E-06   -0.14742E-05  3520   0.467E-03    0.310E-03
DAV:   5    -0.333186485422E+04   -0.15553E-06   -0.29861E-06  3168   0.197E-03
  89 F= -.33460656E+04 E0= -.33460656E+04  d E =-.835990E-04
 BRION: g(F)=  0.240E-03 g(S)=  0.000E+00 retain N=  2 mean eig= 0.24
 eig:   0.236  0.236
 bond charge predicted
       N       E                     dE             d eps       ncg     rms          rms(c)
DAV:   1    -0.333186489091E+04   -0.36841E-04   -0.17002E-03  3648   0.404E-02    0.103E-02
DAV:   2    -0.333186489516E+04   -0.42559E-05   -0.60153E-05  4128   0.592E-03    0.938E-03
DAV:   3    -0.333186489431E+04    0.85228E-06   -0.14281E-06  2848   0.125E-03
  90 F= -.33460656E+04 E0= -.33460656E+04  d E =-.335768E-04
 BRION: g(F)=  0.112E-03 g(S)=  0.000E+00 retain N=  1 mean eig= 0.17
 eig:   0.168
 bond charge predicted
       N       E                     dE             d eps       ncg     rms          rms(c)
DAV:   1    -0.333186499839E+04   -0.10323E-03   -0.14181E-02  3584   0.129E-01    0.207E-02
DAV:   2    -0.333186501975E+04   -0.21361E-04   -0.28116E-04  3872   0.160E-02    0.189E-02
DAV:   3    -0.333186501694E+04    0.28166E-05   -0.68704E-06  4064   0.327E-03    0.150E-02
DAV:   4    -0.333186501594E+04    0.99547E-06   -0.16965E-05  3552   0.506E-03    0.302E-03
DAV:   5    -0.333186501599E+04   -0.45751E-07   -0.33169E-06  3040   0.210E-03
  91 F= -.33460657E+04 E0= -.33460657E+04  d E =-.860025E-04
 BRION: g(F)=  0.176E-03 g(S)=  0.000E+00 retain N=  2 mean eig= 0.23
 eig:   0.227  0.227
 bond charge predicted
       N       E                     dE             d eps       ncg     rms          rms(c)
DAV:   1    -0.333186505790E+04   -0.41956E-04   -0.19776E-03  3648   0.490E-02    0.965E-03
DAV:   2    -0.333186506114E+04   -0.32451E-05   -0.50818E-05  4288   0.687E-03    0.888E-03
DAV:   3    -0.333186506013E+04    0.10107E-05   -0.14728E-06  2848   0.155E-03    0.668E-03
DAV:   4    -0.333186505941E+04    0.72294E-06   -0.43306E-06  3456   0.248E-03
  92 F= -.33460658E+04 E0= -.33460658E+04  d E =-.344224E-04
 BRION: g(F)=  0.105E-03 g(S)=  0.000E+00 retain N=  1 mean eig= 0.20
 eig:   0.201
 bond charge predicted
       N       E                     dE             d eps       ncg     rms          rms(c)
DAV:   1    -0.333186515774E+04   -0.97603E-04   -0.12157E-02  3584   0.117E-01    0.190E-02
DAV:   2    -0.333186517831E+04   -0.20571E-04   -0.25796E-04  3872   0.145E-02    0.173E-02
DAV:   3    -0.333186517626E+04    0.20448E-05   -0.53791E-06  3616   0.283E-03    0.140E-02
DAV:   4    -0.333186517556E+04    0.70222E-06   -0.12238E-05  3456   0.421E-03    0.289E-03
DAV:   5    -0.333186517570E+04   -0.13923E-06   -0.24442E-06  3104   0.180E-03
  93 F= -.33460658E+04 E0= -.33460658E+04  d E =-.806814E-04
 BRION: g(F)=  0.194E-03 g(S)=  0.000E+00 retain N=  2 mean eig= 0.11
 eig:   0.053  0.175
 bond charge predicted
       N       E                     dE             d eps       ncg     rms          rms(c)
DAV:   1    -0.333186520729E+04   -0.31730E-04   -0.11970E-03  3648   0.336E-02    0.832E-03
DAV:   2    -0.333186521034E+04   -0.30454E-05   -0.41140E-05  3936   0.479E-03    0.756E-03
DAV:   3    -0.333186520984E+04    0.49942E-06   -0.87412E-07  2816   0.994E-04
  94 F= -.33460659E+04 E0= -.33460659E+04  d E =-.276955E-04
 BRION: g(F)=  0.968E-04 g(S)=  0.000E+00 retain N=  1 mean eig= 0.16
 eig:   0.161
 bond charge predicted
       N       E                     dE             d eps       ncg     rms          rms(c)
DAV:   1    -0.333186531903E+04   -0.10869E-03   -0.12975E-02  3584   0.122E-01    0.189E-02
DAV:   2    -0.333186533783E+04   -0.18802E-04   -0.24146E-04  3840   0.148E-02    0.170E-02
DAV:   3    -0.333186533578E+04    0.20502E-05   -0.53629E-06  3648   0.302E-03    0.135E-02
DAV:   4    -0.333186533578E+04    0.30268E-08   -0.13319E-05  3488   0.444E-03    0.271E-03
DAV:   5    -0.333186533573E+04    0.53435E-07   -0.27184E-06  3040   0.195E-03
  95 F= -.33460660E+04 E0= -.33460660E+04  d E =-.912683E-04
 BRION: g(F)=  0.947E-04 g(S)=  0.000E+00 retain N=  2 mean eig= 0.34
 eig:   0.416  0.261
 bond charge predicted
       N       E                     dE             d eps       ncg     rms          rms(c)
DAV:   1    -0.333186543227E+04   -0.96496E-04   -0.11730E-02  3584   0.117E-01    0.178E-02
DAV:   2    -0.333186545104E+04   -0.18761E-04   -0.23690E-04  3936   0.146E-02    0.162E-02
DAV:   3    -0.333186544908E+04    0.19560E-05   -0.53341E-06  3840   0.292E-03    0.131E-02
DAV:   4    -0.333186544851E+04    0.57009E-06   -0.13119E-05  3616   0.447E-03    0.281E-03
DAV:   5    -0.333186544859E+04   -0.76601E-07   -0.24876E-06  2944   0.185E-03
  96 F= -.33460660E+04 E0= -.33460660E+04  d E =-.788442E-04
 BRION: g(F)=  0.146E-03 g(S)=  0.000E+00 retain N=  2 mean eig= 0.43
 eig:   0.303  0.563
 bond charge predicted
       N       E                     dE             d eps       ncg     rms          rms(c)
DAV:   1    -0.333186545392E+04   -0.54148E-05   -0.15085E-03  3744   0.277E-02    0.116E-02
DAV:   2    -0.333186545937E+04   -0.54467E-05   -0.74487E-05  3776   0.454E-03    0.105E-02
DAV:   3    -0.333186545848E+04    0.89349E-06   -0.15486E-06  2752   0.952E-04
  97 F= -.33460660E+04 E0= -.33460660E+04  d E =-.399257E-05
 BRION: g(F)=  0.238E-03 g(S)=  0.000E+00 retain N=  2 mean eig= 0.34
 eig:   0.202  0.468
 bond charge predicted
       N       E                     dE             d eps       ncg     rms          rms(c)
DAV:   1    -0.333186550203E+04   -0.42655E-04   -0.16817E-03  3584   0.394E-02    0.799E-03
DAV:   2    -0.333186550679E+04   -0.47586E-05   -0.55082E-05  3840   0.528E-03    0.713E-03
DAV:   3    -0.333186550643E+04    0.35518E-06   -0.94140E-07  2944   0.103E-03
  98 F= -.33460661E+04 E0= -.33460661E+04  d E =-.387974E-04
 BRION: g(F)=  0.985E-04 g(S)=  0.000E+00 retain N=  1 mean eig= 0.18
 eig:   0.176
 bond charge predicted
       N       E                     dE             d eps       ncg     rms          rms(c)
DAV:   1    -0.333186561750E+04   -0.11071E-03   -0.14724E-02  3584   0.130E-01    0.204E-02
DAV:   2    -0.333186563852E+04   -0.21018E-04   -0.27177E-04  3808   0.157E-02    0.184E-02
DAV:   3    -0.333186563615E+04    0.23657E-05   -0.62920E-06  3904   0.323E-03    0.146E-02
DAV:   4    -0.333186563603E+04    0.12270E-06   -0.13788E-05  3488   0.455E-03    0.299E-03
DAV:   5    -0.333186563611E+04   -0.78930E-07   -0.29512E-06  3072   0.195E-03
  99 F= -.33460662E+04 E0= -.33460662E+04  d E =-.944192E-04
 BRION: g(F)=  0.962E-04 g(S)=  0.000E+00 retain N=  2 mean eig= 0.98
 eig:   0.239  1.731
 bond charge predicted
       N       E                     dE             d eps       ncg     rms          rms(c)
DAV:   1    -0.333186568962E+04   -0.53594E-04   -0.36990E-03  3584   0.669E-02    0.103E-02
DAV:   2    -0.333186569606E+04   -0.64404E-05   -0.79504E-05  4000   0.863E-03    0.949E-03
DAV:   3    -0.333186569550E+04    0.56135E-06   -0.18164E-06  3104   0.170E-03
 100 F= -.33460662E+04 E0= -.33460662E+04  d E =-.407250E-04
 BRION: g(F)=  0.138E-03 g(S)=  0.000E+00 retain N=  2 mean eig= 0.78
 eig:   0.429  1.125
 bond charge predicted
       N       E                     dE             d eps       ncg     rms          rms(c)
DAV:   1    -0.333186574167E+04   -0.45602E-04   -0.20669E-03  3584   0.487E-02    0.896E-03
DAV:   2    -0.333186574507E+04   -0.34051E-05   -0.44681E-05  3936   0.605E-03    0.815E-03
DAV:   3    -0.333186574469E+04    0.37928E-06   -0.10317E-06  2752   0.127E-03
 101 F= -.33460662E+04 E0= -.33460662E+04  d E =-.351953E-04
 BRION: g(F)=  0.125E-03 g(S)=  0.000E+00 retain N=  2 mean eig= 0.13
 eig:   0.159  0.101
 bond charge predicted
       N       E                     dE             d eps       ncg     rms          rms(c)
DAV:   1    -0.333186578721E+04   -0.42144E-04   -0.16374E-03  3584   0.427E-02    0.764E-03
DAV:   2    -0.333186578980E+04   -0.25833E-05   -0.33037E-05  3872   0.510E-03    0.675E-03
DAV:   3    -0.333186578955E+04    0.24354E-06   -0.66262E-07  2592   0.111E-03
 102 F= -.33460663E+04 E0= -.33460663E+04  d E =-.332398E-04
 BRION: g(F)=  0.982E-04 g(S)=  0.000E+00 retain N=  2 mean eig= 3.90
 eig:   0.149  7.645
 bond charge predicted
       N       E                     dE             d eps       ncg     rms          rms(c)
DAV:   1    -0.333186594568E+04   -0.15588E-03   -0.37058E-02  3584   0.207E-01    0.311E-02
DAV:   2    -0.333186600029E+04   -0.54611E-04   -0.69096E-04  3808   0.250E-02    0.281E-02
DAV:   3    -0.333186599475E+04    0.55375E-05   -0.15747E-05  4160   0.505E-03    0.226E-02
DAV:   4    -0.333186599415E+04    0.60664E-06   -0.35497E-05  3616   0.734E-03    0.455E-03
DAV:   5    -0.333186599422E+04   -0.69500E-07   -0.76219E-06  3648   0.319E-03
 103 F= -.33460664E+04 E0= -.33460664E+04  d E =-.146749E-03
 BRION: g(F)=  0.971E-04 g(S)=  0.000E+00 retain N=  3 mean eig= 2.84
 eig:   7.719  0.196  0.615
 bond charge predicted
       N       E                     dE             d eps       ncg     rms          rms(c)
DAV:   1    -0.333186605590E+04   -0.61754E-04   -0.47702E-03  3584   0.747E-02    0.124E-02
DAV:   2    -0.333186606420E+04   -0.82973E-05   -0.10580E-04  4096   0.970E-03    0.113E-02
DAV:   3    -0.333186606332E+04    0.87696E-06   -0.24076E-06  3168   0.196E-03
 104 F= -.33460665E+04 E0= -.33460665E+04  d E =-.489518E-04
 BRION: g(F)=  0.113E-03 g(S)=  0.000E+00 retain N=  2 mean eig= 2.31
 eig:   0.619  4.009
 bond charge predicted
       N       E                     dE             d eps       ncg     rms          rms(c)
DAV:   1    -0.333186610854E+04   -0.44343E-04   -0.34382E-03  3584   0.637E-02    0.113E-02
DAV:   2    -0.333186611440E+04   -0.58534E-05   -0.75199E-05  4000   0.795E-03    0.103E-02
DAV:   3    -0.333186611375E+04    0.64564E-06   -0.19073E-06  3104   0.166E-03
 105 F= -.33460665E+04 E0= -.33460665E+04  d E =-.336441E-04
 BRION: g(F)=  0.162E-03 g(S)=  0.000E+00 retain N=  3 mean eig= 2.93
 eig:   7.967  0.630  0.181
 bond charge predicted
       N       E                     dE             d eps       ncg     rms          rms(c)
DAV:   1    -0.333186623214E+04   -0.11774E-03   -0.16505E-02  3584   0.139E-01    0.217E-02
DAV:   2    -0.333186625647E+04   -0.24326E-04   -0.31238E-04  3808   0.169E-02    0.196E-02
DAV:   3    -0.333186625393E+04    0.25326E-05   -0.75609E-06  4064   0.348E-03    0.156E-02
DAV:   4    -0.333186625387E+04    0.61234E-07   -0.15688E-05  3584   0.489E-03    0.339E-03
DAV:   5    -0.333186625391E+04   -0.40280E-07   -0.33745E-06  3008   0.219E-03
 106 F= -.33460666E+04 E0= -.33460666E+04  d E =-.101269E-03
 BRION: g(F)=  0.108E-03 g(S)=  0.000E+00 retain N=  3 mean eig= 0.52
 eig:   1.119  0.117  0.314
 bond charge predicted
       N       E                     dE             d eps       ncg     rms          rms(c)
DAV:   1    -0.333186619226E+04    0.61616E-04   -0.33348E-03  3584   0.619E-02    0.106E-02
DAV:   2    -0.333186619833E+04   -0.60761E-05   -0.80888E-05  3904   0.801E-03    0.100E-02
DAV:   3    -0.333186619747E+04    0.86497E-06   -0.17480E-06  3072   0.155E-03
 107 F= -.33460666E+04 E0= -.33460666E+04  d E =0.402953E-04
 BRION: g(F)=  0.133E-03 g(S)=  0.000E+00 retain N=  2 mean eig= 0.13
 eig:   0.165  0.104
 bond charge predicted
       N       E                     dE             d eps       ncg     rms          rms(c)
DAV:   1    -0.333186629296E+04   -0.94630E-04   -0.19015E-02  3584   0.146E-01    0.227E-02
DAV:   2    -0.333186632854E+04   -0.35578E-04   -0.44131E-04  3840   0.189E-02    0.210E-02
DAV:   3    -0.333186632498E+04    0.35662E-05   -0.95709E-06  4128   0.357E-03    0.173E-02
DAV:   4    -0.333186632154E+04    0.34352E-05   -0.19272E-05  3520   0.536E-03    0.423E-03
DAV:   5    -0.333186632204E+04   -0.49698E-06   -0.43496E-06  3392   0.216E-03
 108 F= -.33460667E+04 E0= -.33460667E+04  d E =-.806927E-04
 BRION: g(F)=  0.301E-03 g(S)=  0.000E+00 retain N=  3 mean eig= 0.68
 eig:   1.617  0.299  0.137
 bond charge predicted
       N       E                     dE             d eps       ncg     rms          rms(c)
DAV:   1    -0.333186637533E+04   -0.53786E-04   -0.28289E-03  3648   0.554E-02    0.122E-02
DAV:   2    -0.333186638165E+04   -0.63209E-05   -0.87788E-05  4160   0.785E-03    0.113E-02
DAV:   3    -0.333186638051E+04    0.11369E-05   -0.21110E-06  2944   0.162E-03    0.889E-03
DAV:   4    -0.333186637929E+04    0.12243E-05   -0.45325E-06  3456   0.247E-03    0.257E-03
DAV:   5    -0.333186637940E+04   -0.11246E-06   -0.83106E-07  2560   0.977E-04
 109 F= -.33460667E+04 E0= -.33460667E+04  d E =-.453529E-04
 BRION: g(F)=  0.103E-03 g(S)=  0.000E+00 retain N=  2 mean eig= 1.80
 eig:   0.185  3.421
 bond charge predicted
       N       E                     dE             d eps       ncg     rms          rms(c)
DAV:   1    -0.333186638813E+04   -0.88469E-05   -0.25446E-03  3584   0.603E-02    0.905E-03
DAV:   2    -0.333186639282E+04   -0.46862E-05   -0.62728E-05  4224   0.846E-03    0.918E-03
DAV:   3    -0.333186639238E+04    0.43958E-06   -0.18132E-06  2816   0.156E-03
 110 F= -.33460667E+04 E0= -.33460667E+04  d E =-.404251E-05
 BRION: g(F)=  0.281E-03 g(S)=  0.000E+00 retain N=  3 mean eig= 1.30
 eig:   3.496  0.196  0.196
 bond charge predicted
       N       E                     dE             d eps       ncg     rms          rms(c)
DAV:   1    -0.333186642489E+04   -0.32067E-04   -0.12089E-03  3584   0.422E-02    0.578E-03
DAV:   2    -0.333186642772E+04   -0.28338E-05   -0.34734E-05  4224   0.639E-03    0.589E-03
DAV:   3    -0.333186642753E+04    0.18906E-06   -0.81170E-07  2208   0.113E-03
 111 F= -.33460667E+04 E0= -.33460667E+04  d E =-.312863E-04
 BRION: g(F)=  0.820E-04 g(S)=  0.000E+00 retain N=  1 mean eig= 0.21
 eig:   0.212
 bond charge predicted
       N       E                     dE             d eps       ncg     rms          rms(c)
DAV:   1    -0.333186651807E+04   -0.90355E-04   -0.11516E-02  3584   0.115E-01    0.183E-02
DAV:   2    -0.333186653499E+04   -0.16916E-04   -0.22040E-04  3872   0.140E-02    0.166E-02
DAV:   3    -0.333186653300E+04    0.19961E-05   -0.48756E-06  3488   0.287E-03    0.132E-02
DAV:   4    -0.333186653278E+04    0.21572E-06   -0.12071E-05  3456   0.421E-03    0.270E-03
DAV:   5    -0.333186653282E+04   -0.40629E-07   -0.24427E-06  3008   0.179E-03
 112 F= -.33460668E+04 E0= -.33460668E+04  d E =-.744850E-04
 BRION: g(F)=  0.103E-03 g(S)=  0.000E+00 retain N=  2 mean eig= 0.12
 eig:   0.234  0.005
 bond charge predicted
       N       E                     dE             d eps       ncg     rms          rms(c)
DAV:   1    -0.333186656127E+04   -0.28493E-04   -0.11185E-03  3616   0.342E-02    0.727E-03
DAV:   2    -0.333186656398E+04   -0.27068E-05   -0.34844E-05  3872   0.478E-03    0.677E-03
DAV:   3    -0.333186656365E+04    0.32410E-06   -0.68380E-07  2752   0.947E-04
 113 F= -.33460668E+04 E0= -.33460668E+04  d E =-.209466E-04
 BRION: g(F)=  0.895E-04 g(S)=  0.000E+00 retain N=  1 mean eig= 0.15
 eig:   0.155
 bond charge predicted
       N       E                     dE             d eps       ncg     rms          rms(c)
DAV:   1    -0.333186664385E+04   -0.79873E-04   -0.81484E-03  3584   0.971E-02    0.153E-02
DAV:   2    -0.333186665590E+04   -0.12050E-04   -0.15520E-04  3904   0.118E-02    0.138E-02
DAV:   3    -0.333186665456E+04    0.13416E-05   -0.33262E-06  3392   0.241E-03    0.110E-02
DAV:   4    -0.333186665454E+04    0.16997E-07   -0.87158E-06  3456   0.359E-03
 114 F= -.33460669E+04 E0= -.33460669E+04  d E =-.639506E-04
 BRION: g(F)=  0.833E-04 g(S)=  0.000E+00 retain N=  2 mean eig= 0.22
 eig:   0.222  0.222
 reached required accuracy - stopping structural energy minimisation
 PROFILE, used timers:     329
