 running  160 mpi-ranks, with    1 threads/rank, on   10 nodes
 distrk:  each k-point on   80 cores,    2 groups
 distr:  one band on    5 cores,   16 groups
 vasp.6.4.2 20Jul23 (build Oct 12 2023 10:31:02) complex                         
 POSCAR found type information on POSCAR GeSe
 POSCAR found :  2 types and       8 ions
 Reading from existing POTCAR
 scaLAPACK will be used
 Reading from existing POTCAR
 LDA part: xc-table for Pade appr. of Perdew
 POSCAR, INCAR and KPOINTS ok, starting setup
 FFT: planning ... GRIDC
 FFT: planning ... GRID_SOFT
 FFT: planning ... GRID
 WAVECAR not read
 entering main loop
       N       E                     dE             d eps       ncg     rms          rms(c)
DAV:   1     0.132696714833E+03    0.13270E+03   -0.12884E+04  2560   0.773E+02
DAV:   2    -0.249773197411E+02   -0.15767E+03   -0.15304E+03  3728   0.139E+02
DAV:   3    -0.339567115233E+02   -0.89794E+01   -0.89598E+01  3168   0.386E+01
DAV:   4    -0.340235205439E+02   -0.66809E-01   -0.66794E-01  3328   0.379E+00
DAV:   5    -0.340240112764E+02   -0.49073E-03   -0.49073E-03  3120   0.316E-01    0.650E+00
DAV:   6    -0.336119079826E+02    0.41210E+00   -0.82210E-01  3104   0.305E+00    0.407E+00
DAV:   7    -0.336058838058E+02    0.60242E-02   -0.25746E-01  3376   0.177E+00    0.131E+00
DAV:   8    -0.336050671073E+02    0.81670E-03   -0.30262E-02  2880   0.645E-01    0.172E-01
DAV:   9    -0.336055288796E+02   -0.46177E-03   -0.39984E-03  3184   0.277E-01    0.661E-02
DAV:  10    -0.336057659724E+02   -0.23709E-03   -0.42636E-04  3152   0.888E-02    0.234E-02
DAV:  11    -0.336058211451E+02   -0.55173E-04   -0.63261E-05  3200   0.345E-02    0.125E-02
DAV:  12    -0.336058255214E+02   -0.43764E-05   -0.11279E-05  3328   0.130E-02    0.249E-03
DAV:  13    -0.336058265390E+02   -0.10175E-05   -0.16737E-06  2512   0.540E-03    0.137E-03
DAV:  14    -0.336058266700E+02   -0.13109E-06   -0.26362E-07  1712   0.213E-03
   1 F= -.33605827E+02 E0= -.33605827E+02  d E =-.688880E-11
