 running  160 mpi-ranks, with    1 threads/rank, on   10 nodes
 distrk:  each k-point on   80 cores,    2 groups
 distr:  one band on    5 cores,   16 groups
 vasp.6.4.2 20Jul23 (build Oct 12 2023 10:31:02) complex                         
 POSCAR found type information on POSCAR GeSe
 POSCAR found :  2 types and       8 ions
 Reading from existing POTCAR
 scaLAPACK will be used
 Reading from existing POTCAR
 LDA part: xc-table for Pade appr. of Perdew
 POSCAR, INCAR and KPOINTS ok, starting setup
 FFT: planning ... GRIDC
 FFT: planning ... GRID_SOFT
 FFT: planning ... GRID
 WAVECAR not read
 entering main loop
       N       E                     dE             d eps       ncg     rms          rms(c)
DAV:   1     0.131360262588E+03    0.13136E+03   -0.12993E+04  2560   0.779E+02
DAV:   2    -0.250276383676E+02   -0.15639E+03   -0.15196E+03  3776   0.141E+02
DAV:   3    -0.333893179787E+02   -0.83617E+01   -0.83403E+01  3152   0.377E+01
DAV:   4    -0.334412824730E+02   -0.51964E-01   -0.51958E-01  3248   0.341E+00
DAV:   5    -0.334415838524E+02   -0.30138E-03   -0.30136E-03  3184   0.253E-01    0.692E+00
DAV:   6    -0.331024938448E+02    0.33909E+00   -0.69146E-01  3136   0.276E+00    0.435E+00
DAV:   7    -0.330852033459E+02    0.17290E-01   -0.20602E-01  2896   0.164E+00    0.124E+00
DAV:   8    -0.330838562037E+02    0.13471E-02   -0.18425E-02  3008   0.520E-01    0.166E-01
DAV:   9    -0.330840742936E+02   -0.21809E-03   -0.30173E-03  3088   0.239E-01    0.591E-02
DAV:  10    -0.330841666585E+02   -0.92365E-04   -0.24580E-04  3136   0.644E-02    0.221E-02
DAV:  11    -0.330841954571E+02   -0.28799E-04   -0.38260E-05  2752   0.274E-02    0.104E-02
DAV:  12    -0.330841963484E+02   -0.89129E-06   -0.60084E-06  3376   0.104E-02
   1 F= -.33084196E+02 E0= -.33083588E+02  d E =-.121615E-02
