 running  128 mpi-ranks, with    1 threads/rank, on    2 nodes
 distrk:  each k-point on   64 cores,    2 groups
 distr:  one band on    8 cores,    8 groups
 vasp.6.4.2 20Jul23 (build Oct 12 2023 10:31:02) complex                         
 POSCAR found type information on POSCAR GeSe
 POSCAR found :  2 types and      72 ions
 Reading from existing POTCAR
 -----------------------------------------------------------------------------
|                                                                             |
|           W    W    AA    RRRRR   N    N  II  N    N   GGGG   !!!           |
|           W    W   A  A   R    R  NN   N  II  NN   N  G    G  !!!           |
|           W    W  A    A  R    R  N N  N  II  N N  N  G       !!!           |
|           W WW W  AAAAAA  RRRRR   N  N N  II  N  N N  G  GGG   !            |
|           WW  WW  A    A  R   R   N   NN  II  N   NN  G    G                |
|           W    W  A    A  R    R  N    N  II  N    N   GGGG   !!!           |
|                                                                             |
|     You use a magnetic or noncollinear calculation, but did not specify     |
|     the initial magnetic moment with the MAGMOM tag. Note that a            |
|     default of 1 will be used for all atoms. This ferromagnetic setup       |
|     may break the symmetry of the crystal, in particular it may rule        |
|     out finding an antiferromagnetic solution. Thence, we recommend         |
|     setting the initial magnetic moment manually or verifying carefully     |
|     that this magnetic setup is desired.                                    |
|                                                                             |
 -----------------------------------------------------------------------------

 scaLAPACK will be used
 Reading from existing POTCAR
 -----------------------------------------------------------------------------
|                                                                             |
|               ----> ADVICE to this user running VASP <----                  |
|                                                                             |
|     You have a (more or less) 'large supercell' and for larger cells it     |
|     might be more efficient to use real-space projection operators.         |
|     Therefore, try LREAL= Auto in the INCAR file.                           |
|     Mind: For very accurate calculation, you might also keep the            |
|     reciprocal projection scheme (i.e. LREAL=.FALSE.).                      |
|                                                                             |
 -----------------------------------------------------------------------------

 LDA part: xc-table for Pade appr. of Perdew
 -----------------------------------------------------------------------------
|                                                                             |
|           W    W    AA    RRRRR   N    N  II  N    N   GGGG   !!!           |
|           W    W   A  A   R    R  NN   N  II  NN   N  G    G  !!!           |
|           W    W  A    A  R    R  N N  N  II  N N  N  G       !!!           |
|           W WW W  AAAAAA  RRRRR   N  N N  II  N  N N  G  GGG   !            |
|           WW  WW  A    A  R   R   N   NN  II  N   NN  G    G                |
|           W    W  A    A  R    R  N    N  II  N    N   GGGG   !!!           |
|                                                                             |
|     The number of bands has been changed from the values supplied in        |
|     the INCAR file. This is a result of running the parallel version.       |
|     The orbitals not found in the WAVECAR file will be initialized with     |
|     random numbers, which is usually adequate. For correlated               |
|     calculations, however, you should redo the groundstate calculation.     |
|     I found NBANDS = 220. Now, NBANDS = 224.                                |
|                                                                             |
 -----------------------------------------------------------------------------

 POSCAR, INCAR and KPOINTS ok, starting setup
 FFT: planning ... GRIDC
 FFT: planning ... GRID_SOFT
 FFT: planning ... GRID
 WAVECAR not read
 WARNING: random wavefunctions but no delay for mixing, default for NELMDL
 entering main loop
       N       E                     dE             d eps       ncg     rms          rms(c)
DAV:   1     0.181430752372E+04    0.18143E+04   -0.14190E+05  7168   0.135E+03
DAV:   2    -0.638043567977E+02   -0.18781E+04   -0.18038E+04  8456   0.204E+02
DAV:   3    -0.281504463550E+03   -0.21770E+03   -0.21163E+03  8616   0.690E+01
DAV:   4    -0.289438315536E+03   -0.79339E+01   -0.78451E+01  8768   0.130E+01
DAV:   5    -0.289730339913E+03   -0.29202E+00   -0.29121E+00  9128   0.212E+00    0.292E+01
DAV:   6    -0.289264456929E+03    0.46588E+00   -0.26669E+01  7920   0.765E+00    0.173E+01
DAV:   7    -0.296738141713E+03   -0.74737E+01   -0.86994E+00  8008   0.448E+00    0.910E+00
DAV:   8    -0.299932266552E+03   -0.31941E+01   -0.17258E+00  8168   0.226E+00    0.336E+00
DAV:   9    -0.300308365134E+03   -0.37610E+00   -0.42457E-01  9144   0.101E+00    0.148E+00
DAV:  10    -0.300417258046E+03   -0.10889E+00   -0.94713E-02  8176   0.465E-01    0.731E-01
DAV:  11    -0.300449586868E+03   -0.32329E-01   -0.37785E-02  8976   0.290E-01    0.290E-01
DAV:  12    -0.300452919989E+03   -0.33331E-02   -0.46621E-03  8560   0.120E-01    0.111E-01
DAV:  13    -0.300453041333E+03   -0.12134E-03   -0.68672E-04  9832   0.407E-02    0.460E-02
DAV:  14    -0.300453060588E+03   -0.19255E-04   -0.10692E-04  8312   0.197E-02    0.178E-02
DAV:  15    -0.300453064003E+03   -0.34148E-05   -0.18253E-05  8648   0.886E-03    0.823E-03
DAV:  16    -0.300453064684E+03   -0.68074E-06   -0.16340E-06  4896   0.285E-03
   1 F= -.30045306E+03 E0= -.30045306E+03  d E =-.145431E-10  mag=     0.0004
