 vasp.6.4.2 20Jul23 (build Oct 12 2023 10:31:02) complex                         
 executed on              LinuxNV date 2025.05.27  16:21:20
 running   32 mpi-ranks, with    1 threads/rank, on    2 nodes
 distrk:  each k-point on   16 cores,    2 groups
 distr:  one band on NCORE=   1 cores,   16 groups


--------------------------------------------------------------------------------------------------------


 INCAR:
   ENCUT = 520.000000
   SIGMA = 0.050000
   EDIFF = 1.00e-06
   ALGO = N
   GGA = PE
   PREC = Accurate
   SYSTEM = 02_SCF
   ICHARG = 0
   ISMEAR = 0
   ISPIN = 2
   ISTART = 1
   KPAR = 2
   LORBIT = 11
   NBANDS = 220
   NELM = 100
   NELMIN = 5
   LASPH = .TRUE.
   LCHARG = .TRUE.
   LWAVE = .TRUE.
   LREAL = .FALSE.

 POTCAR:    PAW_PBE Ge 05Jan2001                  
 POTCAR:    PAW_PBE Se 06Sep2000                  
 -----------------------------------------------------------------------------
|                                                                             |
|           W    W    AA    RRRRR   N    N  II  N    N   GGGG   !!!           |
|           W    W   A  A   R    R  NN   N  II  NN   N  G    G  !!!           |
|           W    W  A    A  R    R  N N  N  II  N N  N  G       !!!           |
|           W WW W  AAAAAA  RRRRR   N  N N  II  N  N N  G  GGG   !            |
|           WW  WW  A    A  R   R   N   NN  II  N   NN  G    G                |
|           W    W  A    A  R    R  N    N  II  N    N   GGGG   !!!           |
|                                                                             |
|     You use a magnetic or noncollinear calculation, but did not specify     |
|     the initial magnetic moment with the MAGMOM tag. Note that a            |
|     default of 1 will be used for all atoms. This ferromagnetic setup       |
|     may break the symmetry of the crystal, in particular it may rule        |
|     out finding an antiferromagnetic solution. Thence, we recommend         |
|     setting the initial magnetic moment manually or verifying carefully     |
|     that this magnetic setup is desired.                                    |
|                                                                             |
 -----------------------------------------------------------------------------

 POTCAR:    PAW_PBE Ge 05Jan2001                  
   VRHFIN =Ge: s2p2                                                                                 
   LEXCH  = PE                                                                                      
   EATOM  =   104.9960 eV,    7.7170 Ry                                                             
                                                                                                    
   TITEL  = PAW_PBE Ge 05Jan2001                                                                    
   LULTRA =        F    use ultrasoft PP ?                                                          
   IUNSCR =        1    unscreen: 0-lin 1-nonlin 2-no                                               
   RPACOR =    2.170    partial core radius                                                         
   POMASS =   72.610; ZVAL   =    4.000    mass and valenz                                          
   RCORE  =    2.300    outmost cutoff radius                                                       
   RWIGS  =    2.300; RWIGS  =    1.217    wigner-seitz radius (au A)                               
   ENMAX  =  173.807; ENMIN  =  130.355 eV                                                          
   ICORE  =        3    local potential                                                             
   LCOR   =        T    correct aug charges                                                         
   LPAW   =        T    paw PP                                                                      
   EAUG   =  385.843                                                                                
   DEXC   =    0.000                                                                                
   RMAX   =    2.342    core radius for proj-oper                                                   
   RAUG   =    1.300    factor for augmentation sphere                                              
   RDEP   =    2.318    radius for radial grids                                                     
   RDEPT  =    2.103    core radius for aug-charge                                                  
                                                                                                    
   Atomic configuration                                                                             
   10 entries                                                                                       
     n  l   j            E        occ.                                                              
     1  0  0.50    -10959.8463   2.0000                                                             
     2  0  0.50     -1371.6056   2.0000                                                             
     2  1  1.50     -1198.4791   6.0000                                                             
     3  0  0.50      -168.4733   2.0000                                                             
     3  1  1.50      -115.6019   6.0000                                                             
     3  2  2.50       -29.3106  10.0000                                                             
     4  0  0.50       -11.7309   2.0000                                                             
     4  1  0.50        -3.8952   2.0000                                                             
     4  2  1.50        -4.0817   0.0000                                                             
     4  3  2.50        -4.0817   0.0000                                                             
   Description                                                                                      
     l       E           TYP  RCUT    TYP  RCUT                                                     
     0    -11.7309493     23  2.300                                                                 
     0     -7.4578696     23  2.300                                                                 
     1     -3.8952261     23  2.300                                                                 
     1      6.1178114     23  2.300                                                                 
     2     -4.0817478     23  2.300                                                                 
     3     -1.3605826      7  2.300                                                                 
  local pseudopotential read in
  partial core-charges read in
  partial kinetic energy density read in
  atomic valenz-charges read in
  non local Contribution for L=            0  read in
    real space projection operators read in
  non local Contribution for L=            0  read in
    real space projection operators read in
  non local Contribution for L=            1  read in
    real space projection operators read in
  non local Contribution for L=            1  read in
    real space projection operators read in
  non local Contribution for L=            2  read in
    real space projection operators read in
    PAW grid and wavefunctions read in
 
   number of l-projection  operators is LMAX  =            5
   number of lm-projection operators is LMMAX =           13
 
 POTCAR:    PAW_PBE Se 06Sep2000                  
   VRHFIN =Se: s2p4                                                                                 
   LEXCH  = PE                                                                                      
   EATOM  =   257.1286 eV,   18.8984 Ry                                                             
                                                                                                    
   TITEL  = PAW_PBE Se 06Sep2000                                                                    
   LULTRA =        F    use ultrasoft PP ?                                                          
   IUNSCR =        1    unscreen: 0-lin 1-nonlin 2-no                                               
   RPACOR =    1.900    partial core radius                                                         
   POMASS =   78.960; ZVAL   =    6.000    mass and valenz                                          
   RCORE  =    2.100    outmost cutoff radius                                                       
   RWIGS  =    2.200; RWIGS  =    1.164    wigner-seitz radius (au A)                               
   ENMAX  =  211.555; ENMIN  =  158.666 eV                                                          
   ICORE  =        3    local potential                                                             
   LCOR   =        T    correct aug charges                                                         
   LPAW   =        T    paw PP                                                                      
   EAUG   =  446.842                                                                                
   DEXC   =    0.000                                                                                
   RMAX   =    2.147    core radius for proj-oper                                                   
   RAUG   =    1.300    factor for augmentation sphere                                              
   RDEP   =    2.177    radius for radial grids                                                     
   RDEPT  =    1.928    core radius for aug-charge                                                  
                                                                                                    
   Atomic configuration                                                                             
   10 entries                                                                                       
     n  l   j            E        occ.                                                              
     1  0  0.50    -12503.4787   2.0000                                                             
     2  0  0.50     -1606.9547   2.0000                                                             
     2  1  1.50     -1413.3140   6.0000                                                             
     3  0  0.50      -213.4885   2.0000                                                             
     3  1  1.50      -152.9538   6.0000                                                             
     3  2  2.50       -53.1221  10.0000                                                             
     4  0  0.50       -17.2865   2.0000                                                             
     4  1  0.50        -6.5110   4.0000                                                             
     4  2  2.50        -6.8029   0.0000                                                             
     4  3  2.50        -6.8029   0.0000                                                             
   Description                                                                                      
     l       E           TYP  RCUT    TYP  RCUT                                                     
     0    -17.2865377     23  2.100                                                                 
     0    -15.3094411     23  2.100                                                                 
     1     -6.5110275     23  2.100                                                                 
     1     -0.0695192     23  2.100                                                                 
     2     -6.8029130     23  2.100                                                                 
     3     -1.3605826      7  2.100                                                                 
  local pseudopotential read in
  partial core-charges read in
  partial kinetic energy density read in
  atomic valenz-charges read in
  non local Contribution for L=            0  read in
    real space projection operators read in
  non local Contribution for L=            0  read in
    real space projection operators read in
  non local Contribution for L=            1  read in
    real space projection operators read in
  non local Contribution for L=            1  read in
    real space projection operators read in
  non local Contribution for L=            2  read in
    real space projection operators read in
    PAW grid and wavefunctions read in
 
   number of l-projection  operators is LMAX  =            5
   number of lm-projection operators is LMMAX =           13
 
  PAW_PBE Ge 05Jan2001                  :
 energy of atom  1       EATOM= -104.9960
 kinetic energy error for atom=    0.0002 (will be added to EATOM!!)
  PAW_PBE Se 06Sep2000                  :
 energy of atom  2       EATOM= -257.1286
 kinetic energy error for atom=    0.0007 (will be added to EATOM!!)
 
 
 POSCAR: Ge Se
  positions in cartesian coordinates
  No initial velocities read in
 exchange correlation table for  LEXCH =        8
   RHO(1)=    0.500       N(1)  =     2000
   RHO(2)=  100.500       N(2)  =     4000
 


--------------------------------------------------------------------------------------------------------


 ion  position               nearest neighbor table
   1  0.250  0.116  0.055-   3 2.60   3 2.60   4 2.60
   2  0.750  0.616  0.166-   4 2.60   4 2.60   3 2.60
   3  0.750  0.495  0.065-   1 2.60   1 2.60   2 2.60
   4  0.250  0.995  0.156-   2 2.60   2 2.60   1 2.60
 
  LATTYP: Found a simple orthorhombic cell.
 ALAT       =     3.8581001759
 B/A-ratio  =     1.1732653073
 C/A-ratio  =     6.5019505260
  
  Lattice vectors:
  
 A1 = (   3.8581001759,   0.0000000000,   0.0000000000)
 A2 = (   0.0000000000,   4.5265750885,   0.0000000000)
 A3 = (   0.0000000000,   0.0000000000,  25.0851764679)


Analysis of symmetry for initial positions (statically):
=====================================================================
 Subroutine PRICEL returns:
 Original cell was already a primitive cell.
 

 Routine SETGRP: Setting up the symmetry group for a 
 simple orthorhombic supercell.


 Subroutine GETGRP returns: Found  4 space group operations
 (whereof  1 operations were pure point group operations)
 out of a pool of  8 trial point group operations.


The static configuration has the point symmetry C_1 .
 The point group associated with its full space group is C_2v.


Analysis of symmetry for dynamics (positions and initial velocities):
=====================================================================
 Subroutine PRICEL returns:
 Original cell was already a primitive cell.
 

 Routine SETGRP: Setting up the symmetry group for a 
 simple orthorhombic supercell.


 Subroutine GETGRP returns: Found  4 space group operations
 (whereof  1 operations were pure point group operations)
 out of a pool of  8 trial point group operations.


The dynamic configuration has the point symmetry C_1 .
 The point group associated with its full space group is C_2v.


Analysis of structural, dynamic, and magnetic symmetry:
=====================================================================
 Subroutine PRICEL returns:
 Original cell was already a primitive cell.
 

 Routine SETGRP: Setting up the symmetry group for a 
 simple orthorhombic supercell.


 Subroutine GETGRP returns: Found  4 space group operations
 (whereof  1 operations were pure point group operations)
 out of a pool of  8 trial point group operations.


The overall configuration has the point symmetry C_1 .
 The point group associated with its full space group is C_2v.


 Subroutine INISYM returns: Found  4 space group operations
 (whereof  1 operations are pure point group operations),
 and found     1 'primitive' translations


----------------------------------------------------------------------------------------

                                     Primitive cell                                     

  volume of cell :     438.0870

  direct lattice vectors                    reciprocal lattice vectors
     3.858100176  0.000000000  0.000000000     0.259194929  0.000000000  0.000000000
     0.000000000  4.526575088  0.000000000     0.000000000  0.220917577  0.000000000
     0.000000000  0.000000000 25.085176468     0.000000000  0.000000000  0.039864180

  length of vectors
     3.858100176  4.526575088 25.085176468     0.259194929  0.220917577  0.039864180

  position of ions in fractional coordinates (direct lattice)
     0.250000000  0.115641899  0.054592630
     0.750000000  0.615641892  0.166358104
     0.750000000  0.495050967  0.065122972
     0.250000000  0.995051026  0.155827765

  ion indices of the primitive-cell ions
   primitive index   ion index
                 1           1
                 2           2
                 3           3
                 4           4

----------------------------------------------------------------------------------------

 
 
 KPOINTS: KPOINTS created by Atomic Simulation Env

Automatic generation of k-mesh.
 Grid dimensions read from file:
 generate k-points for:    6    6    2

 Generating k-lattice:

  Cartesian coordinates                     Fractional coordinates (reciprocal lattice)
     0.043199155  0.000000000  0.000000000     0.166666667  0.000000000  0.000000000
     0.000000000  0.036819596  0.000000000     0.000000000  0.166666667  0.000000000
     0.000000000  0.000000000  0.019932090     0.000000000  0.000000000  0.500000000

  Length of vectors
     0.043199155  0.036819596  0.019932090

  Shift w.r.t. Gamma in fractional coordinates (k-lattice)
     0.000000000  0.000000000  0.000000000

 
 Subroutine IBZKPT returns following result:
 ===========================================
 
 Found     32 irreducible k-points:
 
 Following reciprocal coordinates:
            Coordinates               Weight
  0.000000  0.000000  0.000000      1.000000
  0.166667  0.000000  0.000000      2.000000
  0.333333  0.000000  0.000000      2.000000
  0.500000  0.000000  0.000000      1.000000
  0.000000  0.166667  0.000000      2.000000
  0.166667  0.166667  0.000000      4.000000
  0.333333  0.166667  0.000000      4.000000
  0.500000  0.166667  0.000000      2.000000
  0.000000  0.333333  0.000000      2.000000
  0.166667  0.333333  0.000000      4.000000
  0.333333  0.333333  0.000000      4.000000
  0.500000  0.333333  0.000000      2.000000
  0.000000  0.500000  0.000000      1.000000
  0.166667  0.500000  0.000000      2.000000
  0.333333  0.500000  0.000000      2.000000
  0.500000  0.500000  0.000000      1.000000
  0.000000  0.000000  0.500000      1.000000
  0.166667  0.000000  0.500000      2.000000
  0.333333  0.000000  0.500000      2.000000
  0.500000  0.000000  0.500000      1.000000
  0.000000  0.166667  0.500000      2.000000
  0.166667  0.166667  0.500000      4.000000
  0.333333  0.166667  0.500000      4.000000
  0.500000  0.166667  0.500000      2.000000
  0.000000  0.333333  0.500000      2.000000
  0.166667  0.333333  0.500000      4.000000
  0.333333  0.333333  0.500000      4.000000
  0.500000  0.333333  0.500000      2.000000
  0.000000  0.500000  0.500000      1.000000
  0.166667  0.500000  0.500000      2.000000
  0.333333  0.500000  0.500000      2.000000
  0.500000  0.500000  0.500000      1.000000
 
 Following cartesian coordinates:
            Coordinates               Weight
  0.000000  0.000000  0.000000      1.000000
  0.043199  0.000000  0.000000      2.000000
  0.086398  0.000000  0.000000      2.000000
  0.129597  0.000000  0.000000      1.000000
  0.000000  0.036820  0.000000      2.000000
  0.043199  0.036820  0.000000      4.000000
  0.086398  0.036820  0.000000      4.000000
  0.129597  0.036820  0.000000      2.000000
  0.000000  0.073639  0.000000      2.000000
  0.043199  0.073639  0.000000      4.000000
  0.086398  0.073639  0.000000      4.000000
  0.129597  0.073639  0.000000      2.000000
  0.000000  0.110459  0.000000      1.000000
  0.043199  0.110459  0.000000      2.000000
  0.086398  0.110459  0.000000      2.000000
  0.129597  0.110459  0.000000      1.000000
  0.000000  0.000000  0.019932      1.000000
  0.043199  0.000000  0.019932      2.000000
  0.086398  0.000000  0.019932      2.000000
  0.129597  0.000000  0.019932      1.000000
  0.000000  0.036820  0.019932      2.000000
  0.043199  0.036820  0.019932      4.000000
  0.086398  0.036820  0.019932      4.000000
  0.129597  0.036820  0.019932      2.000000
  0.000000  0.073639  0.019932      2.000000
  0.043199  0.073639  0.019932      4.000000
  0.086398  0.073639  0.019932      4.000000
  0.129597  0.073639  0.019932      2.000000
  0.000000  0.110459  0.019932      1.000000
  0.043199  0.110459  0.019932      2.000000
  0.086398  0.110459  0.019932      2.000000
  0.129597  0.110459  0.019932      1.000000
 
 -----------------------------------------------------------------------------
|                                                                             |
|           W    W    AA    RRRRR   N    N  II  N    N   GGGG   !!!           |
|           W    W   A  A   R    R  NN   N  II  NN   N  G    G  !!!           |
|           W    W  A    A  R    R  N N  N  II  N N  N  G       !!!           |
|           W WW W  AAAAAA  RRRRR   N  N N  II  N  N N  G  GGG   !            |
|           WW  WW  A    A  R   R   N   NN  II  N   NN  G    G                |
|           W    W  A    A  R    R  N    N  II  N    N   GGGG   !!!           |
|                                                                             |
|     The number of bands has been changed from the values supplied in        |
|     the INCAR file. This is a result of running the parallel version.       |
|     The orbitals not found in the WAVECAR file will be initialized with     |
|     random numbers, which is usually adequate. For correlated               |
|     calculations, however, you should redo the groundstate calculation.     |
|     I found NBANDS = 220. Now, NBANDS = 224.                                |
|                                                                             |
 -----------------------------------------------------------------------------



--------------------------------------------------------------------------------------------------------




 Dimension of arrays:
   k-points           NKPTS =     32   k-points in BZ     NKDIM =     32   number of bands    NBANDS=    224
   number of dos      NEDOS =    301   number of ions     NIONS =      4
   non local maximal  LDIM  =      5   non local SUM 2l+1 LMDIM =     13
   total plane-waves  NPLWV = 207360
   max r-space proj   IRMAX =      1   max aug-charges    IRDMAX=  25922
   dimension x,y,z NGX =    30 NGY =   36 NGZ =  192
   dimension x,y,z NGXF=    60 NGYF=   72 NGZF=  384
   support grid    NGXF=    60 NGYF=   72 NGZF=  384
   ions per type =               2   2
   NGX,Y,Z   is equivalent  to a cutoff of  12.93, 13.22, 12.72 a.u.
   NGXF,Y,Z  is equivalent  to a cutoff of  25.85, 26.44, 25.45 a.u.

 SYSTEM =  02_SCF                                  
 POSCAR =  Ge Se                                   

 Startparameter for this run:
   NWRITE =      2    write-flag & timer
   PREC   = accura    normal or accurate (medium, high low for compatibility)
   ISTART =      0    job   : 0-new  1-cont  2-samecut
   ICHARG =      2    charge: 1-file 2-atom 10-const
   ISPIN  =      2    spin polarized calculation?
   LNONCOLLINEAR =      F non collinear calculations
   LSORBIT =      F    spin-orbit coupling
   INIWAV =      1    electr: 0-lowe 1-rand  2-diag
   LASPH  =      T    aspherical Exc in radial PAW
 Electronic Relaxation 1
   ENCUT  =  520.0 eV  38.22 Ry    6.18 a.u.   7.17  8.42 46.64*2*pi/ulx,y,z
   ENINI  =  520.0     initial cutoff
   ENAUG  =  446.8 eV  augmentation charge cutoff
   NELM   =    100;   NELMIN=  5; NELMDL=  0     # of ELM steps 
   EDIFF  = 0.1E-05   stopping-criterion for ELM
   LREAL  =      F    real-space projection
   NLSPLINE    = F    spline interpolate recip. space projectors
   LCOMPAT=      F    compatible to vasp.4.4
   GGA_COMPAT  = T    GGA compatible to vasp.4.4-vasp.4.6
   LMAXPAW     = -100 max onsite density
   LMAXMIX     =    2 max onsite mixed and CHGCAR
   VOSKOWN=      0    Vosko Wilk Nusair interpolation
   ROPT   =    0.00000   0.00000
 Ionic relaxation
   EDIFFG = 0.1E-04   stopping-criterion for IOM
   NSW    =      0    number of steps for IOM
   NBLOCK =      1;   KBLOCK =      1    inner block; outer block 
   IBRION =     -1    ionic relax: 0-MD 1-quasi-New 2-CG
   NFREE  =      0    steps in history (QN), initial steepest desc. (CG)
   ISIF   =      2    stress and relaxation
   IWAVPR =     10    prediction:  0-non 1-charg 2-wave 3-comb
   ISYM   =      2    0-nonsym 1-usesym 2-fastsym
   LCORR  =      T    Harris-Foulkes like correction to forces

   POTIM  = 0.5000    time-step for ionic-motion
   TEIN   =    0.0    initial temperature
   TEBEG  =    0.0;   TEEND  =   0.0 temperature during run
   SMASS  =  -3.00    Nose mass-parameter (am)
   estimated Nose-frequenzy (Omega)   =  0.10E-29 period in steps = 0.13E+47 mass=  -0.340E-27a.u.
   SCALEE = 1.0000    scale energy and forces
   NPACO  =    256;   APACO  = 10.0  distance and # of slots for P.C.
   PSTRESS=    0.0 pullay stress

  Mass of Ions in am
   POMASS =  72.61 78.96
  Ionic Valenz
   ZVAL   =   4.00  6.00
  Atomic Wigner-Seitz radii
   RWIGS  =  -1.00 -1.00
  virtual crystal weights 
   VCA    =   1.00  1.00
   NELECT =      20.0000    total number of electrons
   NUPDOWN=      -1.0000    fix difference up-down

 DOS related values:
   EMIN   =  10.00;   EMAX   =-10.00  energy-range for DOS
   EFERMI =   0.00;   METHOD = LEGACY      
   ISMEAR =     0;   SIGMA  =   0.05  broadening in eV -4-tet -1-fermi 0-gaus

 Electronic relaxation 2 (details)
   IALGO  =     38    algorithm
   LDIAG  =      T    sub-space diagonalisation (order eigenvalues)
   LSUBROT=      F    optimize rotation matrix (better conditioning)
   TURBO    =      0    0=normal 1=particle mesh
   IRESTART =      0    0=no restart 2=restart with 2 vectors
   NREBOOT  =      0    no. of reboots
   NMIN     =      0    reboot dimension
   EREF     =   0.00    reference energy to select bands
   IMIX   =      4    mixing-type and parameters
     AMIX     =   0.40;   BMIX     =  1.00
     AMIX_MAG =   1.60;   BMIX_MAG =  1.00
     AMIN     =   0.10
     WC   =   100.;   INIMIX=   1;  MIXPRE=   1;  MAXMIX= -45

 Intra band minimization:
   WEIMIN = 0.0000     energy-eigenvalue tresh-hold
   EBREAK =  0.11E-08  absolut break condition
   DEPER  =   0.30     relativ break condition  

   TIME   =   0.40     timestep for ELM

  volume/ion in A,a.u.               =     109.52       739.09
  Fermi-wavevector in a.u.,A,eV,Ry     =   0.585102  1.105682  4.657873  0.342344
  Thomas-Fermi vector in A             =   1.631059
 
 Write flags
   LWAVE        =      T    write WAVECAR
   LDOWNSAMPLE  =      F    k-point downsampling of WAVECAR
   LCHARG       =      T    write CHGCAR
   LVTOT        =      F    write LOCPOT, total local potential
   LVHAR        =      F    write LOCPOT, Hartree potential only
   LELF         =      F    write electronic localiz. function (ELF)
   LORBIT       =     11    0 simple, 1 ext, 2 COOP (PROOUT), +10 PAW based schemes


 Dipole corrections
   LMONO  =      F    monopole corrections only (constant potential shift)
   LDIPOL =      F    correct potential (dipole corrections)
   IDIPOL =      0    1-x, 2-y, 3-z, 4-all directions 
   EPSILON=  1.0000000 bulk dielectric constant

 Exchange correlation treatment:
   GGA     =    PE    GGA type
   LEXCH   =     8    internal setting for exchange type
   LIBXC   =     F    Libxc                    
   VOSKOWN =     0    Vosko Wilk Nusair interpolation
   LHFCALC =     F    Hartree Fock is set to
   LHFONE  =     F    Hartree Fock one center treatment
   AEXX    =    0.0000 exact exchange contribution

 Linear response parameters
   LEPSILON=     F    determine dielectric tensor
   LRPA    =     F    only Hartree local field effects (RPA)
   LNABLA  =     F    use nabla operator in PAW spheres
   LVEL    =     F    velocity operator in full k-point grid
   CSHIFT  =0.1000    complex shift for real part using Kramers Kronig
   OMEGAMAX=  -1.0    maximum frequency
   DEG_THRESHOLD= 0.2000000E-02 threshold for treating states as degnerate
   RTIME   =   -0.100 relaxation time in fs
  (WPLASMAI=    0.000 imaginary part of plasma frequency in eV, 0.658/RTIME)
   DFIELD  = 0.0000000 0.0000000 0.0000000 field for delta impulse in time
 
  Optional k-point grid parameters
   LKPOINTS_OPT  =     F    use optional k-point grid
   KPOINTS_OPT_MODE=     1    mode for optional k-point grid
 
 Orbital magnetization related:
   ORBITALMAG=     F  switch on orbital magnetization
   LCHIMAG   =     F  perturbation theory with respect to B field
   DQ        =  0.001000  dq finite difference perturbation B field
   LLRAUG    =     F  two centre corrections for induced B field
   LBONE     =     F  B-component reconstruction in AE one-centre
   LVGVCALC  =     T  calculate vGv susceptibility
   LVGVAPPL  =     F  apply vGv susceptibility instead of pGv for G=0

 Random number generation:
   RANDOM_GENERATOR = DEFAULT
   PCG_SEED         = not used


--------------------------------------------------------------------------------------------------------


 Static calculation
 charge density and potential will be updated during run
 spin polarized calculation
 Variant of blocked Davidson
 Davidson routine will perform the subspace rotation
 perform sub-space diagonalisation
    after iterative eigenvector-optimisation
 modified Broyden-mixing scheme, WC =      100.0
 initial mixing is a Kerker type mixing with AMIX =  0.4000 and BMIX =      1.0000
 Hartree-type preconditioning will be used
 using additional bands           214
 reciprocal scheme for non local part
 use partial core corrections
 calculate Harris-corrections to forces 
   (improved forces if not selfconsistent)
 use gradient corrections 
 use of overlap-Matrix (Vanderbilt PP)
 Gauss-broadening in eV      SIGMA  =   0.05


--------------------------------------------------------------------------------------------------------


  energy-cutoff  :      520.00
  volume of cell :      438.09
      direct lattice vectors                 reciprocal lattice vectors
     3.858100176  0.000000000  0.000000000     0.259194929  0.000000000  0.000000000
     0.000000000  4.526575088  0.000000000     0.000000000  0.220917577  0.000000000
     0.000000000  0.000000000 25.085176468     0.000000000  0.000000000  0.039864180

  length of vectors
     3.858100176  4.526575088 25.085176468     0.259194929  0.220917577  0.039864180


 
 k-points in units of 2pi/SCALE and weight: KPOINTS created by Atomic Simulation Env
   0.00000000  0.00000000  0.00000000       0.014
   0.04319915  0.00000000  0.00000000       0.028
   0.08639831  0.00000000  0.00000000       0.028
   0.12959746  0.00000000  0.00000000       0.014
   0.00000000  0.03681960  0.00000000       0.028
   0.04319915  0.03681960  0.00000000       0.056
   0.08639831  0.03681960  0.00000000       0.056
   0.12959746  0.03681960  0.00000000       0.028
   0.00000000  0.07363919  0.00000000       0.028
   0.04319915  0.07363919  0.00000000       0.056
   0.08639831  0.07363919  0.00000000       0.056
   0.12959746  0.07363919  0.00000000       0.028
   0.00000000  0.11045879  0.00000000       0.014
   0.04319915  0.11045879  0.00000000       0.028
   0.08639831  0.11045879  0.00000000       0.028
   0.12959746  0.11045879  0.00000000       0.014
   0.00000000  0.00000000  0.01993209       0.014
   0.04319915  0.00000000  0.01993209       0.028
   0.08639831  0.00000000  0.01993209       0.028
   0.12959746  0.00000000  0.01993209       0.014
   0.00000000  0.03681960  0.01993209       0.028
   0.04319915  0.03681960  0.01993209       0.056
   0.08639831  0.03681960  0.01993209       0.056
   0.12959746  0.03681960  0.01993209       0.028
   0.00000000  0.07363919  0.01993209       0.028
   0.04319915  0.07363919  0.01993209       0.056
   0.08639831  0.07363919  0.01993209       0.056
   0.12959746  0.07363919  0.01993209       0.028
   0.00000000  0.11045879  0.01993209       0.014
   0.04319915  0.11045879  0.01993209       0.028
   0.08639831  0.11045879  0.01993209       0.028
   0.12959746  0.11045879  0.01993209       0.014
 
 k-points in reciprocal lattice and weights: KPOINTS created by Atomic Simulation Env
   0.00000000  0.00000000  0.00000000       0.014
   0.16666667  0.00000000  0.00000000       0.028
   0.33333333  0.00000000  0.00000000       0.028
   0.50000000  0.00000000  0.00000000       0.014
   0.00000000  0.16666667  0.00000000       0.028
   0.16666667  0.16666667  0.00000000       0.056
   0.33333333  0.16666667  0.00000000       0.056
   0.50000000  0.16666667  0.00000000       0.028
   0.00000000  0.33333333  0.00000000       0.028
   0.16666667  0.33333333  0.00000000       0.056
   0.33333333  0.33333333  0.00000000       0.056
   0.50000000  0.33333333  0.00000000       0.028
   0.00000000  0.50000000  0.00000000       0.014
   0.16666667  0.50000000  0.00000000       0.028
   0.33333333  0.50000000  0.00000000       0.028
   0.50000000  0.50000000  0.00000000       0.014
   0.00000000  0.00000000  0.50000000       0.014
   0.16666667  0.00000000  0.50000000       0.028
   0.33333333  0.00000000  0.50000000       0.028
   0.50000000  0.00000000  0.50000000       0.014
   0.00000000  0.16666667  0.50000000       0.028
   0.16666667  0.16666667  0.50000000       0.056
   0.33333333  0.16666667  0.50000000       0.056
   0.50000000  0.16666667  0.50000000       0.028
   0.00000000  0.33333333  0.50000000       0.028
   0.16666667  0.33333333  0.50000000       0.056
   0.33333333  0.33333333  0.50000000       0.056
   0.50000000  0.33333333  0.50000000       0.028
   0.00000000  0.50000000  0.50000000       0.014
   0.16666667  0.50000000  0.50000000       0.028
   0.33333333  0.50000000  0.50000000       0.028
   0.50000000  0.50000000  0.50000000       0.014
 
 position of ions in fractional coordinates (direct lattice) 
   0.25000000  0.11564190  0.05459263
   0.75000000  0.61564189  0.16635810
   0.75000000  0.49505097  0.06512297
   0.25000000  0.99505103  0.15582776
 
 position of ions in cartesian coordinates  (Angst):
   0.96452504  0.52346174  1.36946575
   2.89357513  2.78674925  4.17312240
   2.89357513  2.24088537  1.63362125
   0.96452504  4.50417319  3.90896698
 


--------------------------------------------------------------------------------------------------------


 k-point   1 :   0.0000 0.0000 0.0000  plane waves:   11783
 k-point   2 :   0.1667 0.0000 0.0000  plane waves:   11803
 k-point   3 :   0.3333 0.0000 0.0000  plane waves:   11824
 k-point   4 :   0.5000 0.0000 0.0000  plane waves:   11862
 k-point   5 :   0.0000 0.1667 0.0000  plane waves:   11803
 k-point   6 :   0.1667 0.1667 0.0000  plane waves:   11785
 k-point   7 :   0.3333 0.1667 0.0000  plane waves:   11810
 k-point   8 :   0.5000 0.1667 0.0000  plane waves:   11868
 k-point   9 :   0.0000 0.3333 0.0000  plane waves:   11775
 k-point  10 :   0.1667 0.3333 0.0000  plane waves:   11771
 k-point  11 :   0.3333 0.3333 0.0000  plane waves:   11803
 k-point  12 :   0.5000 0.3333 0.0000  plane waves:   11798
 k-point  13 :   0.0000 0.5000 0.0000  plane waves:   11812
 k-point  14 :   0.1667 0.5000 0.0000  plane waves:   11780
 k-point  15 :   0.3333 0.5000 0.0000  plane waves:   11806
 k-point  16 :   0.5000 0.5000 0.0000  plane waves:   11724
 k-point  17 :   0.0000 0.0000 0.5000  plane waves:   11774
 k-point  18 :   0.1667 0.0000 0.5000  plane waves:   11786
 k-point  19 :   0.3333 0.0000 0.5000  plane waves:   11818
 k-point  20 :   0.5000 0.0000 0.5000  plane waves:   11832
 k-point  21 :   0.0000 0.1667 0.5000  plane waves:   11788
 k-point  22 :   0.1667 0.1667 0.5000  plane waves:   11784
 k-point  23 :   0.3333 0.1667 0.5000  plane waves:   11814
 k-point  24 :   0.5000 0.1667 0.5000  plane waves:   11848
 k-point  25 :   0.0000 0.3333 0.5000  plane waves:   11784
 k-point  26 :   0.1667 0.3333 0.5000  plane waves:   11778
 k-point  27 :   0.3333 0.3333 0.5000  plane waves:   11794
 k-point  28 :   0.5000 0.3333 0.5000  plane waves:   11808
 k-point  29 :   0.0000 0.5000 0.5000  plane waves:   11804
 k-point  30 :   0.1667 0.5000 0.5000  plane waves:   11772
 k-point  31 :   0.3333 0.5000 0.5000  plane waves:   11756
 k-point  32 :   0.5000 0.5000 0.5000  plane waves:   11768

 maximum and minimum number of plane-waves per node :     11868    11724

 maximum number of plane-waves:     11868
 maximum index in each direction: 
   IXMAX=    7   IYMAX=    8   IZMAX=   46
   IXMIN=   -7   IYMIN=   -8   IZMIN=  -47


 serial   3D FFT for wavefunctions
 parallel 3D FFT for charge:
    minimum data exchange during FFTs selected (reduces bandwidth)


 total amount of memory used by VASP MPI-rank0   310976. kBytes
=======================================================================

   base      :      30000. kBytes
   nonl-proj :      79779. kBytes
   fftplans  :       4512. kBytes
   grid      :      25507. kBytes
   one-center:         64. kBytes
   wavefun   :     171114. kBytes
 
     INWAV:  cpu time      0.0000: real time      0.0001
 Broyden mixing: mesh for mixing (old mesh)
   NGX = 15   NGY = 17   NGZ = 93
  (NGX  = 60   NGY  = 72   NGZ  =384)
  gives a total of  23715 points

 initial charge density was supplied:
 charge density of overlapping atoms calculated
 number of electron      20.0000000 magnetization       4.0000000
 keeping initial charge density in first step


--------------------------------------------------------------------------------------------------------


 Maximum index for augmentation-charges          1830 (set IRDMAX)


--------------------------------------------------------------------------------------------------------


 First call to EWALD:  gamma=   0.233
 Maximum number of real-space cells 5x 4x 1
 Maximum number of reciprocal cells 2x 2x 8

    FEWALD:  cpu time      0.0025: real time      0.0025


--------------------------------------- Ionic step        1  -------------------------------------------




--------------------------------------- Iteration      1(   1)  ---------------------------------------


    POTLOK:  cpu time      0.2183: real time      0.2195
    SETDIJ:  cpu time      1.1288: real time      1.1310
     EDDAV:  cpu time     26.7338: real time     26.9760
       DOS:  cpu time      0.0025: real time      0.0026
    --------------------------------------------
      LOOP:  cpu time     28.0835: real time     28.3291

 eigenvalue-minimisations  : 28672
 total energy-change (2. order) : 0.9655415E+02  (-0.3807185E+03)
 number of electron      20.0000000 magnetization       4.0000000
 augmentation part       20.0000000 magnetization       4.0000000

 Free energy of the ion-electron system (eV)
  ---------------------------------------------------
  alpha Z        PSCENC =         9.66956593
  Ewald energy   TEWEN  =      2211.47059125
  -Hartree energ DENC   =     -2815.37164510
  -exchange      EXHF   =         0.00000000
  -V(xc)+E(xc)   XCENC  =       -17.01244167
  PAW double counting   =       596.57894437     -539.99618860
  entropy T*S    EENTRO =        -0.00241979
  eigenvalues    EBANDS =       -73.02956217
  atomic energy  EATOM  =       724.24730435
  Solvation  Ediel_sol  =         0.00000000
  ---------------------------------------------------
  free energy    TOTEN  =        96.55414857 eV

  energy without entropy =       96.55656836  energy(sigma->0) =       96.55535847


--------------------------------------------------------------------------------------------------------




--------------------------------------- Iteration      1(   2)  ---------------------------------------


     EDDAV:  cpu time     30.4975: real time     30.7687
       DOS:  cpu time      0.0020: real time      0.0021
    --------------------------------------------
      LOOP:  cpu time     30.4995: real time     30.7707

 eigenvalue-minimisations  : 34336
 total energy-change (2. order) :-0.1070955E+03  (-0.9648044E+02)
 number of electron      20.0000000 magnetization       4.0000000
 augmentation part       20.0000000 magnetization       4.0000000

 Free energy of the ion-electron system (eV)
  ---------------------------------------------------
  alpha Z        PSCENC =         9.66956593
  Ewald energy   TEWEN  =      2211.47059125
  -Hartree energ DENC   =     -2815.37164510
  -exchange      EXHF   =         0.00000000
  -V(xc)+E(xc)   XCENC  =       -17.01244167
  PAW double counting   =       596.57894437     -539.99618860
  entropy T*S    EENTRO =        -0.00000000
  eigenvalues    EBANDS =      -180.12752091
  atomic energy  EATOM  =       724.24730435
  Solvation  Ediel_sol  =         0.00000000
  ---------------------------------------------------
  free energy    TOTEN  =       -10.54139038 eV

  energy without entropy =      -10.54139038  energy(sigma->0) =      -10.54139038


--------------------------------------------------------------------------------------------------------




--------------------------------------- Iteration      1(   3)  ---------------------------------------


     EDDAV:  cpu time     30.6933: real time     30.9922
       DOS:  cpu time      0.0019: real time      0.0019
    --------------------------------------------
      LOOP:  cpu time     30.6952: real time     30.9942

 eigenvalue-minimisations  : 34352
 total energy-change (2. order) :-0.5663231E+01  (-0.5597438E+01)
 number of electron      20.0000000 magnetization       4.0000000
 augmentation part       20.0000000 magnetization       4.0000000

 Free energy of the ion-electron system (eV)
  ---------------------------------------------------
  alpha Z        PSCENC =         9.66956593
  Ewald energy   TEWEN  =      2211.47059125
  -Hartree energ DENC   =     -2815.37164510
  -exchange      EXHF   =         0.00000000
  -V(xc)+E(xc)   XCENC  =       -17.01244167
  PAW double counting   =       596.57894437     -539.99618860
  entropy T*S    EENTRO =        -0.00000000
  eigenvalues    EBANDS =      -185.79075234
  atomic energy  EATOM  =       724.24730435
  Solvation  Ediel_sol  =         0.00000000
  ---------------------------------------------------
  free energy    TOTEN  =       -16.20462181 eV

  energy without entropy =      -16.20462181  energy(sigma->0) =      -16.20462181


--------------------------------------------------------------------------------------------------------




--------------------------------------- Iteration      1(   4)  ---------------------------------------


     EDDAV:  cpu time     30.1180: real time     30.3921
       DOS:  cpu time      0.0019: real time      0.0020
    --------------------------------------------
      LOOP:  cpu time     30.1200: real time     30.3941

 eigenvalue-minimisations  : 33632
 total energy-change (2. order) :-0.3354298E-01  (-0.3353619E-01)
 number of electron      20.0000000 magnetization       4.0000000
 augmentation part       20.0000000 magnetization       4.0000000

 Free energy of the ion-electron system (eV)
  ---------------------------------------------------
  alpha Z        PSCENC =         9.66956593
  Ewald energy   TEWEN  =      2211.47059125
  -Hartree energ DENC   =     -2815.37164510
  -exchange      EXHF   =         0.00000000
  -V(xc)+E(xc)   XCENC  =       -17.01244167
  PAW double counting   =       596.57894437     -539.99618860
  entropy T*S    EENTRO =        -0.00000000
  eigenvalues    EBANDS =      -185.82429532
  atomic energy  EATOM  =       724.24730435
  Solvation  Ediel_sol  =         0.00000000
  ---------------------------------------------------
  free energy    TOTEN  =       -16.23816479 eV

  energy without entropy =      -16.23816479  energy(sigma->0) =      -16.23816479


--------------------------------------------------------------------------------------------------------




--------------------------------------- Iteration      1(   5)  ---------------------------------------


     EDDAV:  cpu time     29.8010: real time     30.0793
       DOS:  cpu time      0.0020: real time      0.0020
    CHARGE:  cpu time      0.2335: real time      0.2350
    MIXING:  cpu time      0.0093: real time      0.0094
    --------------------------------------------
      LOOP:  cpu time     30.0458: real time     30.3257

 eigenvalue-minimisations  : 33264
 total energy-change (2. order) :-0.1714354E-03  (-0.1714311E-03)
 number of electron      20.0000002 magnetization       3.6221847
 augmentation part       -3.7329196 magnetization       3.6309263

 Broyden mixing:
  rms(total) = 0.68397E+00    rms(broyden)= 0.68397E+00
  rms(prec ) = 0.69540E+00
  weight for this iteration     100.00

 Free energy of the ion-electron system (eV)
  ---------------------------------------------------
  alpha Z        PSCENC =         9.66956593
  Ewald energy   TEWEN  =      2211.47059125
  -Hartree energ DENC   =     -2815.37164510
  -exchange      EXHF   =         0.00000000
  -V(xc)+E(xc)   XCENC  =       -17.01244167
  PAW double counting   =       596.57894437     -539.99618860
  entropy T*S    EENTRO =        -0.00000000
  eigenvalues    EBANDS =      -185.82446675
  atomic energy  EATOM  =       724.24730435
  Solvation  Ediel_sol  =         0.00000000
  ---------------------------------------------------
  free energy    TOTEN  =       -16.23833622 eV

  energy without entropy =      -16.23833622  energy(sigma->0) =      -16.23833622


--------------------------------------------------------------------------------------------------------




--------------------------------------- Iteration      1(   6)  ---------------------------------------


    POTLOK:  cpu time      0.2097: real time      0.2114
    SETDIJ:  cpu time      1.1132: real time      1.1156
     EDDAV:  cpu time     28.6920: real time     28.9480
       DOS:  cpu time      0.0019: real time      0.0019
    CHARGE:  cpu time      0.2313: real time      0.2322
    MIXING:  cpu time      0.0091: real time      0.0091
    --------------------------------------------
      LOOP:  cpu time     30.2572: real time     30.5183

 eigenvalue-minimisations  : 31616
 total energy-change (2. order) : 0.4244096E+01  (-0.4082965E+00)
 number of electron      20.0000002 magnetization       3.1688919
 augmentation part       -3.7329568 magnetization       3.2782369

 Broyden mixing:
  rms(total) = 0.44974E+00    rms(broyden)= 0.44974E+00
  rms(prec ) = 0.45641E+00
  weight for this iteration     100.00

 eigenvalues of (default mixing * dielectric matrix)
  average eigenvalue GAMMA=   1.0470
  1.0470

 Free energy of the ion-electron system (eV)
  ---------------------------------------------------
  alpha Z        PSCENC =         9.66956593
  Ewald energy   TEWEN  =      2211.47059125
  -Hartree energ DENC   =     -2821.75110109
  -exchange      EXHF   =         0.00000000
  -V(xc)+E(xc)   XCENC  =       -13.64366240
  PAW double counting   =       725.17042929     -668.79665005
  entropy T*S    EENTRO =        -0.00000000
  eigenvalues    EBANDS =      -178.36071732
  atomic energy  EATOM  =       724.24730435
  Solvation  Ediel_sol  =         0.00000000
  ---------------------------------------------------
  free energy    TOTEN  =       -11.99424004 eV

  energy without entropy =      -11.99424004  energy(sigma->0) =      -11.99424004


--------------------------------------------------------------------------------------------------------




--------------------------------------- Iteration      1(   7)  ---------------------------------------


    POTLOK:  cpu time      0.2073: real time      0.2083
    SETDIJ:  cpu time      1.1212: real time      1.1235
     EDDAV:  cpu time     28.5568: real time     28.8085
       DOS:  cpu time      0.0020: real time      0.0020
    CHARGE:  cpu time      0.2297: real time      0.2310
    MIXING:  cpu time      0.0091: real time      0.0091
    --------------------------------------------
      LOOP:  cpu time     30.1261: real time     30.3823

 eigenvalue-minimisations  : 31424
 total energy-change (2. order) : 0.6050870E+00  (-0.4825623E-01)
 number of electron      20.0000002 magnetization       2.5276715
 augmentation part       -3.7228367 magnetization       2.6434595

 Broyden mixing:
  rms(total) = 0.30952E+00    rms(broyden)= 0.30952E+00
  rms(prec ) = 0.31361E+00
  weight for this iteration     100.00

 eigenvalues of (default mixing * dielectric matrix)
  average eigenvalue GAMMA=   1.3855
  0.8514  1.9196

 Free energy of the ion-electron system (eV)
  ---------------------------------------------------
  alpha Z        PSCENC =         9.66956593
  Ewald energy   TEWEN  =      2211.47059125
  -Hartree energ DENC   =     -2828.80996667
  -exchange      EXHF   =         0.00000000
  -V(xc)+E(xc)   XCENC  =       -13.02114095
  PAW double counting   =       854.80924485     -798.56070020
  entropy T*S    EENTRO =        -0.00000000
  eigenvalues    EBANDS =      -171.19405158
  atomic energy  EATOM  =       724.24730435
  Solvation  Ediel_sol  =         0.00000000
  ---------------------------------------------------
  free energy    TOTEN  =       -11.38915302 eV

  energy without entropy =      -11.38915302  energy(sigma->0) =      -11.38915302


--------------------------------------------------------------------------------------------------------




--------------------------------------- Iteration      1(   8)  ---------------------------------------


    POTLOK:  cpu time      0.2080: real time      0.2092
    SETDIJ:  cpu time      1.1147: real time      1.1170
     EDDAV:  cpu time     29.6218: real time     29.8752
       DOS:  cpu time      0.0019: real time      0.0019
    CHARGE:  cpu time      0.2290: real time      0.2303
    MIXING:  cpu time      0.0093: real time      0.0094
    --------------------------------------------
      LOOP:  cpu time     31.1849: real time     31.4430

 eigenvalue-minimisations  : 33008
 total energy-change (2. order) :-0.4770086E+00  (-0.1396743E-01)
 number of electron      20.0000002 magnetization       2.1420051
 augmentation part       -3.7075883 magnetization       2.2582658

 Broyden mixing:
  rms(total) = 0.20866E+00    rms(broyden)= 0.20866E+00
  rms(prec ) = 0.21000E+00
  weight for this iteration     100.00

 eigenvalues of (default mixing * dielectric matrix)
  average eigenvalue GAMMA=   1.4269
  2.5586  1.0395  0.6826

 Free energy of the ion-electron system (eV)
  ---------------------------------------------------
  alpha Z        PSCENC =         9.66956593
  Ewald energy   TEWEN  =      2211.47059125
  -Hartree energ DENC   =     -2836.83908285
  -exchange      EXHF   =         0.00000000
  -V(xc)+E(xc)   XCENC  =       -13.21768805
  PAW double counting   =       979.27112512     -923.08839560
  entropy T*S    EENTRO =        -0.00000000
  eigenvalues    EBANDS =      -163.37958174
  atomic energy  EATOM  =       724.24730435
  Solvation  Ediel_sol  =         0.00000000
  ---------------------------------------------------
  free energy    TOTEN  =       -11.86616159 eV

  energy without entropy =      -11.86616159  energy(sigma->0) =      -11.86616159


--------------------------------------------------------------------------------------------------------




--------------------------------------- Iteration      1(   9)  ---------------------------------------


    POTLOK:  cpu time      0.2065: real time      0.2077
    SETDIJ:  cpu time      1.1127: real time      1.1153
     EDDAV:  cpu time     28.7140: real time     28.9741
       DOS:  cpu time      0.0020: real time      0.0020
    CHARGE:  cpu time      0.2279: real time      0.2293
    MIXING:  cpu time      0.0092: real time      0.0092
    --------------------------------------------
      LOOP:  cpu time     30.2723: real time     30.5376

 eigenvalue-minimisations  : 31584
 total energy-change (2. order) :-0.9273384E+00  (-0.9106486E-02)
 number of electron      20.0000002 magnetization       1.4752893
 augmentation part       -3.6955533 magnetization       1.5749812

 Broyden mixing:
  rms(total) = 0.17276E+00    rms(broyden)= 0.17276E+00
  rms(prec ) = 0.17350E+00
  weight for this iteration     100.00

 eigenvalues of (default mixing * dielectric matrix)
  average eigenvalue GAMMA=   1.4586
  2.6279  1.6616  0.8952  0.6497

 Free energy of the ion-electron system (eV)
  ---------------------------------------------------
  alpha Z        PSCENC =         9.66956593
  Ewald energy   TEWEN  =      2211.47059125
  -Hartree energ DENC   =     -2840.00673606
  -exchange      EXHF   =         0.00000000
  -V(xc)+E(xc)   XCENC  =       -13.76031099
  PAW double counting   =      1000.75548705     -944.60174703
  entropy T*S    EENTRO =        -0.00000000
  eigenvalues    EBANDS =      -160.56765451
  atomic energy  EATOM  =       724.24730435
  Solvation  Ediel_sol  =         0.00000000
  ---------------------------------------------------
  free energy    TOTEN  =       -12.79350001 eV

  energy without entropy =      -12.79350001  energy(sigma->0) =      -12.79350001


--------------------------------------------------------------------------------------------------------




--------------------------------------- Iteration      1(  10)  ---------------------------------------


    POTLOK:  cpu time      0.2072: real time      0.2090
    SETDIJ:  cpu time      1.1081: real time      1.1104
     EDDAV:  cpu time     28.6191: real time     28.8759
       DOS:  cpu time      0.0020: real time      0.0021
    CHARGE:  cpu time      0.2284: real time      0.2296
    MIXING:  cpu time      0.0094: real time      0.0095
    --------------------------------------------
      LOOP:  cpu time     30.1741: real time     30.4365

 eigenvalue-minimisations  : 31536
 total energy-change (2. order) :-0.1800436E+01  (-0.4160635E-01)
 number of electron      20.0000002 magnetization       0.6583481
 augmentation part       -3.6804888 magnetization       0.7202761

 Broyden mixing:
  rms(total) = 0.11840E+00    rms(broyden)= 0.11840E+00
  rms(prec ) = 0.11927E+00
  weight for this iteration     100.00

 eigenvalues of (default mixing * dielectric matrix)
  average eigenvalue GAMMA=   1.9052
  4.4781  2.5878  1.0198  0.8133  0.6269

 Free energy of the ion-electron system (eV)
  ---------------------------------------------------
  alpha Z        PSCENC =         9.66956593
  Ewald energy   TEWEN  =      2211.47059125
  -Hartree energ DENC   =     -2843.01925986
  -exchange      EXHF   =         0.00000000
  -V(xc)+E(xc)   XCENC  =       -14.86988347
  PAW double counting   =       984.13099430     -927.94429776
  entropy T*S    EENTRO =        -0.00000000
  eigenvalues    EBANDS =      -158.27895092
  atomic energy  EATOM  =       724.24730435
  Solvation  Ediel_sol  =         0.00000000
  ---------------------------------------------------
  free energy    TOTEN  =       -14.59393619 eV

  energy without entropy =      -14.59393619  energy(sigma->0) =      -14.59393619


--------------------------------------------------------------------------------------------------------




--------------------------------------- Iteration      1(  11)  ---------------------------------------


    POTLOK:  cpu time      0.2060: real time      0.2072
    SETDIJ:  cpu time      1.1075: real time      1.1097
     EDDAV:  cpu time     29.1275: real time     29.3766
       DOS:  cpu time      0.0020: real time      0.0020
    CHARGE:  cpu time      0.2323: real time      0.2334
    MIXING:  cpu time      0.0101: real time      0.0101
    --------------------------------------------
      LOOP:  cpu time     30.6854: real time     30.9391

 eigenvalue-minimisations  : 32224
 total energy-change (2. order) :-0.1541485E+01  (-0.3634103E-01)
 number of electron      20.0000002 magnetization       0.3787173
 augmentation part       -3.6668492 magnetization       0.4019860

 Broyden mixing:
  rms(total) = 0.60929E-01    rms(broyden)= 0.60929E-01
  rms(prec ) = 0.64683E-01
  weight for this iteration     100.00

 eigenvalues of (default mixing * dielectric matrix)
  average eigenvalue GAMMA=   2.1041
  6.4276  2.6121  1.2027  0.9946  0.7638  0.6241

 Free energy of the ion-electron system (eV)
  ---------------------------------------------------
  alpha Z        PSCENC =         9.66956593
  Ewald energy   TEWEN  =      2211.47059125
  -Hartree energ DENC   =     -2845.10974064
  -exchange      EXHF   =         0.00000000
  -V(xc)+E(xc)   XCENC  =       -15.82307430
  PAW double counting   =       960.64247911     -904.42805568
  entropy T*S    EENTRO =        -0.00000000
  eigenvalues    EBANDS =      -156.80449113
  atomic energy  EATOM  =       724.24730435
  Solvation  Ediel_sol  =         0.00000000
  ---------------------------------------------------
  free energy    TOTEN  =       -16.13542111 eV

  energy without entropy =      -16.13542111  energy(sigma->0) =      -16.13542111


--------------------------------------------------------------------------------------------------------




--------------------------------------- Iteration      1(  12)  ---------------------------------------


    POTLOK:  cpu time      0.2806: real time      0.2821
    SETDIJ:  cpu time      1.1053: real time      1.1072
     EDDAV:  cpu time     28.4247: real time     28.6805
       DOS:  cpu time      0.0020: real time      0.0020
    CHARGE:  cpu time      0.2286: real time      0.2297
    MIXING:  cpu time      0.0097: real time      0.0097
    --------------------------------------------
      LOOP:  cpu time     30.0509: real time     30.3111

 eigenvalue-minimisations  : 31296
 total energy-change (2. order) :-0.1785694E+00  (-0.4338791E-02)
 number of electron      20.0000002 magnetization       0.1977576
 augmentation part       -3.6653559 magnetization       0.2072967

 Broyden mixing:
  rms(total) = 0.37226E-01    rms(broyden)= 0.37226E-01
  rms(prec ) = 0.41811E-01
  weight for this iteration     100.00

 eigenvalues of (default mixing * dielectric matrix)
  average eigenvalue GAMMA=   2.2306
  7.9879  2.6289  1.7605  1.0397  0.8508  0.7197  0.6268

 Free energy of the ion-electron system (eV)
  ---------------------------------------------------
  alpha Z        PSCENC =         9.66956593
  Ewald energy   TEWEN  =      2211.47059125
  -Hartree energ DENC   =     -2843.84881698
  -exchange      EXHF   =         0.00000000
  -V(xc)+E(xc)   XCENC  =       -15.92361206
  PAW double counting   =       953.60264218     -897.38305757
  entropy T*S    EENTRO =        -0.00000000
  eigenvalues    EBANDS =      -158.14860766
  atomic energy  EATOM  =       724.24730435
  Solvation  Ediel_sol  =         0.00000000
  ---------------------------------------------------
  free energy    TOTEN  =       -16.31399055 eV

  energy without entropy =      -16.31399055  energy(sigma->0) =      -16.31399055


--------------------------------------------------------------------------------------------------------




--------------------------------------- Iteration      1(  13)  ---------------------------------------


    POTLOK:  cpu time      0.2065: real time      0.2076
    SETDIJ:  cpu time      1.1044: real time      1.1070
     EDDAV:  cpu time     28.4980: real time     28.7715
       DOS:  cpu time      0.0020: real time      0.0020
    CHARGE:  cpu time      0.2305: real time      0.2318
    MIXING:  cpu time      0.0097: real time      0.0097
    --------------------------------------------
      LOOP:  cpu time     30.0511: real time     30.3296

 eigenvalue-minimisations  : 31408
 total energy-change (2. order) :-0.1575620E+00  (-0.1299865E-02)
 number of electron      20.0000002 magnetization       0.1177071
 augmentation part       -3.6689674 magnetization       0.1211034

 Broyden mixing:
  rms(total) = 0.20480E-01    rms(broyden)= 0.20479E-01
  rms(prec ) = 0.24162E-01
  weight for this iteration     100.00

 eigenvalues of (default mixing * dielectric matrix)
  average eigenvalue GAMMA=   2.2698
  9.1241  2.5575  2.3604  1.1039  0.9815  0.7662  0.6324  0.6324

 Free energy of the ion-electron system (eV)
  ---------------------------------------------------
  alpha Z        PSCENC =         9.66956593
  Ewald energy   TEWEN  =      2211.47059125
  -Hartree energ DENC   =     -2841.62589911
  -exchange      EXHF   =         0.00000000
  -V(xc)+E(xc)   XCENC  =       -16.11508756
  PAW double counting   =       952.29745819     -896.07697434
  entropy T*S    EENTRO =        -0.00000000
  eigenvalues    EBANDS =      -160.33851128
  atomic energy  EATOM  =       724.24730435
  Solvation  Ediel_sol  =         0.00000000
  ---------------------------------------------------
  free energy    TOTEN  =       -16.47155256 eV

  energy without entropy =      -16.47155256  energy(sigma->0) =      -16.47155256


--------------------------------------------------------------------------------------------------------




--------------------------------------- Iteration      1(  14)  ---------------------------------------


    POTLOK:  cpu time      0.2050: real time      0.2422
    SETDIJ:  cpu time      1.1058: real time      1.1081
     EDDAV:  cpu time     29.0237: real time     29.2904
       DOS:  cpu time      0.0019: real time      0.0019
    CHARGE:  cpu time      0.2292: real time      0.2300
    MIXING:  cpu time      0.0099: real time      0.0099
    --------------------------------------------
      LOOP:  cpu time     30.5755: real time     30.8825

 eigenvalue-minimisations  : 32176
 total energy-change (2. order) :-0.1818687E+00  (-0.1885501E-03)
 number of electron      20.0000002 magnetization       0.0807603
 augmentation part       -3.6708082 magnetization       0.0826423

 Broyden mixing:
  rms(total) = 0.11558E-01    rms(broyden)= 0.11558E-01
  rms(prec ) = 0.15226E-01
  weight for this iteration     100.00

 eigenvalues of (default mixing * dielectric matrix)
  average eigenvalue GAMMA=   2.2672
  9.6179  2.7422  2.7422  1.4228  1.0268  0.8491  0.7438  0.6301  0.6301

 Free energy of the ion-electron system (eV)
  ---------------------------------------------------
  alpha Z        PSCENC =         9.66956593
  Ewald energy   TEWEN  =      2211.47059125
  -Hartree energ DENC   =     -2840.20259112
  -exchange      EXHF   =         0.00000000
  -V(xc)+E(xc)   XCENC  =       -16.32220379
  PAW double counting   =       953.98863368     -897.76991589
  entropy T*S    EENTRO =        -0.00000000
  eigenvalues    EBANDS =      -161.73480564
  atomic energy  EATOM  =       724.24730435
  Solvation  Ediel_sol  =         0.00000000
  ---------------------------------------------------
  free energy    TOTEN  =       -16.65342122 eV

  energy without entropy =      -16.65342122  energy(sigma->0) =      -16.65342122


--------------------------------------------------------------------------------------------------------




--------------------------------------- Iteration      1(  15)  ---------------------------------------


    POTLOK:  cpu time      0.2023: real time      0.2035
    SETDIJ:  cpu time      1.1055: real time      1.1075
     EDDAV:  cpu time     28.6174: real time     28.8601
       DOS:  cpu time      0.0020: real time      0.0020
    CHARGE:  cpu time      0.2290: real time      0.2301
    MIXING:  cpu time      0.0099: real time      0.0100
    --------------------------------------------
      LOOP:  cpu time     30.1660: real time     30.4132

 eigenvalue-minimisations  : 31552
 total energy-change (2. order) :-0.5971561E-01  (-0.1035802E-03)
 number of electron      20.0000002 magnetization       0.0517181
 augmentation part       -3.6714326 magnetization       0.0528718

 Broyden mixing:
  rms(total) = 0.69701E-02    rms(broyden)= 0.69700E-02
  rms(prec ) = 0.10052E-01
  weight for this iteration     100.00

 eigenvalues of (default mixing * dielectric matrix)
  average eigenvalue GAMMA=   2.2362
  9.8217  2.9205  2.9205  1.8064  1.0379  1.0379  0.8179  0.7519  0.6237  0.6237

 Free energy of the ion-electron system (eV)
  ---------------------------------------------------
  alpha Z        PSCENC =         9.66956593
  Ewald energy   TEWEN  =      2211.47059125
  -Hartree energ DENC   =     -2838.92168572
  -exchange      EXHF   =         0.00000000
  -V(xc)+E(xc)   XCENC  =       -16.40470249
  PAW double counting   =       955.16379993     -898.94741355
  entropy T*S    EENTRO =        -0.00000000
  eigenvalues    EBANDS =      -162.99059653
  atomic energy  EATOM  =       724.24730435
  Solvation  Ediel_sol  =         0.00000000
  ---------------------------------------------------
  free energy    TOTEN  =       -16.71313683 eV

  energy without entropy =      -16.71313683  energy(sigma->0) =      -16.71313683


--------------------------------------------------------------------------------------------------------




--------------------------------------- Iteration      1(  16)  ---------------------------------------


    POTLOK:  cpu time      0.2304: real time      0.2500
    SETDIJ:  cpu time      1.1057: real time      1.1078
     EDDAV:  cpu time     28.7479: real time     28.9878
       DOS:  cpu time      0.0019: real time      0.0019
    CHARGE:  cpu time      0.2258: real time      0.2265
    MIXING:  cpu time      0.0102: real time      0.0102
    --------------------------------------------
      LOOP:  cpu time     30.3219: real time     30.5843

 eigenvalue-minimisations  : 31648
 total energy-change (2. order) :-0.2650711E-01  (-0.9621206E-04)
 number of electron      20.0000002 magnetization       0.0357560
 augmentation part       -3.6721545 magnetization       0.0360688

 Broyden mixing:
  rms(total) = 0.42285E-02    rms(broyden)= 0.42285E-02
  rms(prec ) = 0.60655E-02
  weight for this iteration     100.00

 eigenvalues of (default mixing * dielectric matrix)
  average eigenvalue GAMMA=   2.2415
  9.9652  3.3299  3.0746  2.3284  1.2714  1.0363  0.9255  0.7835  0.6973  0.6224
  0.6224

 Free energy of the ion-electron system (eV)
  ---------------------------------------------------
  alpha Z        PSCENC =         9.66956593
  Ewald energy   TEWEN  =      2211.47059125
  -Hartree energ DENC   =     -2837.45191635
  -exchange      EXHF   =         0.00000000
  -V(xc)+E(xc)   XCENC  =       -16.45585246
  PAW double counting   =       955.12959619     -898.91465091
  entropy T*S    EENTRO =        -0.00000000
  eigenvalues    EBANDS =      -164.43428194
  atomic energy  EATOM  =       724.24730435
  Solvation  Ediel_sol  =         0.00000000
  ---------------------------------------------------
  free energy    TOTEN  =       -16.73964394 eV

  energy without entropy =      -16.73964394  energy(sigma->0) =      -16.73964394


--------------------------------------------------------------------------------------------------------




--------------------------------------- Iteration      1(  17)  ---------------------------------------


    POTLOK:  cpu time      0.2002: real time      0.2014
    SETDIJ:  cpu time      1.1047: real time      1.1067
     EDDAV:  cpu time     29.1969: real time     29.4482
       DOS:  cpu time      0.0020: real time      0.0020
    CHARGE:  cpu time      0.2215: real time      0.2225
    MIXING:  cpu time      0.0100: real time      0.0101
    --------------------------------------------
      LOOP:  cpu time     30.7353: real time     30.9908

 eigenvalue-minimisations  : 32416
 total energy-change (2. order) :-0.6596996E-02  (-0.1876370E-04)
 number of electron      20.0000002 magnetization       0.0220117
 augmentation part       -3.6726011 magnetization       0.0221994

 Broyden mixing:
  rms(total) = 0.28733E-02    rms(broyden)= 0.28733E-02
  rms(prec ) = 0.40246E-02
  weight for this iteration     100.00

 eigenvalues of (default mixing * dielectric matrix)
  average eigenvalue GAMMA=   2.2287
  9.9905  3.8812  3.1990  2.4016  1.5731  1.0471  1.0471  0.8978  0.7816  0.6800
  0.6226  0.6226

 Free energy of the ion-electron system (eV)
  ---------------------------------------------------
  alpha Z        PSCENC =         9.66956593
  Ewald energy   TEWEN  =      2211.47059125
  -Hartree energ DENC   =     -2836.62306059
  -exchange      EXHF   =         0.00000000
  -V(xc)+E(xc)   XCENC  =       -16.47305914
  PAW double counting   =       955.26145901     -899.04702899
  entropy T*S    EENTRO =        -0.00000000
  eigenvalues    EBANDS =      -165.25201277
  atomic energy  EATOM  =       724.24730435
  Solvation  Ediel_sol  =         0.00000000
  ---------------------------------------------------
  free energy    TOTEN  =       -16.74624094 eV

  energy without entropy =      -16.74624094  energy(sigma->0) =      -16.74624094


--------------------------------------------------------------------------------------------------------




--------------------------------------- Iteration      1(  18)  ---------------------------------------


    POTLOK:  cpu time      0.2012: real time      0.2030
    SETDIJ:  cpu time      1.1117: real time      1.1141
     EDDAV:  cpu time     28.1627: real time     28.4289
       DOS:  cpu time      0.0020: real time      0.0020
    CHARGE:  cpu time      0.2223: real time      0.2232
    MIXING:  cpu time      0.0104: real time      0.0104
    --------------------------------------------
      LOOP:  cpu time     29.7103: real time     29.9814

 eigenvalue-minimisations  : 30912
 total energy-change (2. order) :-0.5893134E-02  (-0.1139591E-04)
 number of electron      20.0000002 magnetization       0.0144841
 augmentation part       -3.6729706 magnetization       0.0146214

 Broyden mixing:
  rms(total) = 0.17125E-02    rms(broyden)= 0.17125E-02
  rms(prec ) = 0.22879E-02
  weight for this iteration     100.00

 eigenvalues of (default mixing * dielectric matrix)
  average eigenvalue GAMMA=   2.2779
 10.0292  5.0728  3.1645  2.6228  2.0107  1.2229  0.9940  0.9940  0.8086  0.7768
  0.6728  0.6219  0.6219

 Free energy of the ion-electron system (eV)
  ---------------------------------------------------
  alpha Z        PSCENC =         9.66956593
  Ewald energy   TEWEN  =      2211.47059125
  -Hartree energ DENC   =     -2835.87346389
  -exchange      EXHF   =         0.00000000
  -V(xc)+E(xc)   XCENC  =       -16.48519836
  PAW double counting   =       955.51818576     -899.30406073
  entropy T*S    EENTRO =        -0.00000000
  eigenvalues    EBANDS =      -165.99505839
  atomic energy  EATOM  =       724.24730435
  Solvation  Ediel_sol  =         0.00000000
  ---------------------------------------------------
  free energy    TOTEN  =       -16.75213407 eV

  energy without entropy =      -16.75213407  energy(sigma->0) =      -16.75213407


--------------------------------------------------------------------------------------------------------




--------------------------------------- Iteration      1(  19)  ---------------------------------------


    POTLOK:  cpu time      0.2035: real time      0.2060
    SETDIJ:  cpu time      1.1054: real time      1.1075
     EDDAV:  cpu time     28.2981: real time     28.5616
       DOS:  cpu time      0.0020: real time      0.0020
    CHARGE:  cpu time      0.2227: real time      0.2238
    MIXING:  cpu time      0.0104: real time      0.0105
    --------------------------------------------
      LOOP:  cpu time     29.8421: real time     30.1113

 eigenvalue-minimisations  : 31072
 total energy-change (2. order) :-0.3118595E-02  (-0.4336604E-05)
 number of electron      20.0000002 magnetization       0.0090710
 augmentation part       -3.6732619 magnetization       0.0091341

 Broyden mixing:
  rms(total) = 0.11772E-02    rms(broyden)= 0.11772E-02
  rms(prec ) = 0.15281E-02
  weight for this iteration     100.00

 eigenvalues of (default mixing * dielectric matrix)
  average eigenvalue GAMMA=   2.2708
 10.0499  5.8060  3.1321  2.7797  2.1340  1.4147  1.0580  1.0580  0.9201  0.7992
  0.7325  0.6644  0.6210  0.6210

 Free energy of the ion-electron system (eV)
  ---------------------------------------------------
  alpha Z        PSCENC =         9.66956593
  Ewald energy   TEWEN  =      2211.47059125
  -Hartree energ DENC   =     -2835.47383466
  -exchange      EXHF   =         0.00000000
  -V(xc)+E(xc)   XCENC  =       -16.49210563
  PAW double counting   =       955.34153852     -899.12732829
  entropy T*S    EENTRO =        -0.00000000
  eigenvalues    EBANDS =      -166.39098414
  atomic energy  EATOM  =       724.24730435
  Solvation  Ediel_sol  =         0.00000000
  ---------------------------------------------------
  free energy    TOTEN  =       -16.75525267 eV

  energy without entropy =      -16.75525267  energy(sigma->0) =      -16.75525267


--------------------------------------------------------------------------------------------------------




--------------------------------------- Iteration      1(  20)  ---------------------------------------


    POTLOK:  cpu time      0.2051: real time      0.2069
    SETDIJ:  cpu time      1.1031: real time      1.1053
     EDDAV:  cpu time     28.4836: real time     28.7659
       DOS:  cpu time      0.0020: real time      0.0020
    CHARGE:  cpu time      0.2254: real time      0.2266
    MIXING:  cpu time      0.0107: real time      0.0107
    --------------------------------------------
      LOOP:  cpu time     30.0298: real time     30.3175

 eigenvalue-minimisations  : 31376
 total energy-change (2. order) :-0.1955402E-02  (-0.2262246E-05)
 number of electron      20.0000002 magnetization       0.0054986
 augmentation part       -3.6733616 magnetization       0.0055391

 Broyden mixing:
  rms(total) = 0.75999E-03    rms(broyden)= 0.75999E-03
  rms(prec ) = 0.96736E-03
  weight for this iteration     100.00

 eigenvalues of (default mixing * dielectric matrix)
  average eigenvalue GAMMA=   2.3239
 10.0669  6.8088  3.2367  2.9659  2.4551  1.8595  1.2013  1.0177  1.0177  0.8176
  0.8176  0.7080  0.6455  0.6199  0.6199

 Free energy of the ion-electron system (eV)
  ---------------------------------------------------
  alpha Z        PSCENC =         9.66956593
  Ewald energy   TEWEN  =      2211.47059125
  -Hartree energ DENC   =     -2835.23717531
  -exchange      EXHF   =         0.00000000
  -V(xc)+E(xc)   XCENC  =       -16.49563592
  PAW double counting   =       955.37398807     -899.15994379
  entropy T*S    EENTRO =        -0.00000000
  eigenvalues    EBANDS =      -166.62590264
  atomic energy  EATOM  =       724.24730435
  Solvation  Ediel_sol  =         0.00000000
  ---------------------------------------------------
  free energy    TOTEN  =       -16.75720807 eV

  energy without entropy =      -16.75720807  energy(sigma->0) =      -16.75720807


--------------------------------------------------------------------------------------------------------




--------------------------------------- Iteration      1(  21)  ---------------------------------------


    POTLOK:  cpu time      0.2017: real time      0.2031
    SETDIJ:  cpu time      1.1084: real time      1.1105
     EDDAV:  cpu time     28.1889: real time     28.4411
       DOS:  cpu time      0.0020: real time      0.0020
    CHARGE:  cpu time      0.2250: real time      0.2265
    MIXING:  cpu time      0.0108: real time      0.0109
    --------------------------------------------
      LOOP:  cpu time     29.7368: real time     29.9940

 eigenvalue-minimisations  : 31040
 total energy-change (2. order) :-0.1497136E-02  (-0.1355459E-05)
 number of electron      20.0000002 magnetization       0.0033869
 augmentation part       -3.6733517 magnetization       0.0034031

 Broyden mixing:
  rms(total) = 0.46339E-03    rms(broyden)= 0.46339E-03
  rms(prec ) = 0.57954E-03
  weight for this iteration     100.00

 eigenvalues of (default mixing * dielectric matrix)
  average eigenvalue GAMMA=   2.3591
 10.0866  7.7788  3.6967  3.0906  2.6025  1.9818  1.3224  1.0282  1.0282  0.9740
  0.8106  0.7703  0.7045  0.6303  0.6199  0.6199

 Free energy of the ion-electron system (eV)
  ---------------------------------------------------
  alpha Z        PSCENC =         9.66956593
  Ewald energy   TEWEN  =      2211.47059125
  -Hartree energ DENC   =     -2835.12174038
  -exchange      EXHF   =         0.00000000
  -V(xc)+E(xc)   XCENC  =       -16.49726071
  PAW double counting   =       955.42240488     -899.20851841
  entropy T*S    EENTRO =        -0.00000000
  eigenvalues    EBANDS =      -166.74105212
  atomic energy  EATOM  =       724.24730435
  Solvation  Ediel_sol  =         0.00000000
  ---------------------------------------------------
  free energy    TOTEN  =       -16.75870521 eV

  energy without entropy =      -16.75870521  energy(sigma->0) =      -16.75870521


--------------------------------------------------------------------------------------------------------




--------------------------------------- Iteration      1(  22)  ---------------------------------------


    POTLOK:  cpu time      0.2019: real time      0.2035
    SETDIJ:  cpu time      1.1089: real time      1.1110
     EDDAV:  cpu time     28.6981: real time     28.9569
       DOS:  cpu time      0.0020: real time      0.0020
    CHARGE:  cpu time      0.2244: real time      0.2259
    MIXING:  cpu time      0.0115: real time      0.0115
    --------------------------------------------
      LOOP:  cpu time     30.2469: real time     30.5109

 eigenvalue-minimisations  : 31616
 total energy-change (2. order) :-0.6015850E-03  (-0.4692415E-06)
 number of electron      20.0000002 magnetization       0.0019664
 augmentation part       -3.6733530 magnetization       0.0019782

 Broyden mixing:
  rms(total) = 0.29848E-03    rms(broyden)= 0.29848E-03
  rms(prec ) = 0.37050E-03
  weight for this iteration     100.00

 eigenvalues of (default mixing * dielectric matrix)
  average eigenvalue GAMMA=   2.3831
 10.1131  8.4301  4.2225  3.1065  2.6367  2.0827  1.6930  1.1938  1.0287  1.0287
  0.8719  0.8071  0.7280  0.7064  0.6179  0.6179  0.6279

 Free energy of the ion-electron system (eV)
  ---------------------------------------------------
  alpha Z        PSCENC =         9.66956593
  Ewald energy   TEWEN  =      2211.47059125
  -Hartree energ DENC   =     -2835.06612291
  -exchange      EXHF   =         0.00000000
  -V(xc)+E(xc)   XCENC  =       -16.49802017
  PAW double counting   =       955.35300166     -899.13908865
  entropy T*S    EENTRO =        -0.00000000
  eigenvalues    EBANDS =      -166.79653826
  atomic energy  EATOM  =       724.24730435
  Solvation  Ediel_sol  =         0.00000000
  ---------------------------------------------------
  free energy    TOTEN  =       -16.75930679 eV

  energy without entropy =      -16.75930679  energy(sigma->0) =      -16.75930679


--------------------------------------------------------------------------------------------------------




--------------------------------------- Iteration      1(  23)  ---------------------------------------


    POTLOK:  cpu time      0.2027: real time      0.2039
    SETDIJ:  cpu time      1.1065: real time      1.1096
     EDDAV:  cpu time     28.1544: real time     28.4097
       DOS:  cpu time      0.0019: real time      0.0020
    CHARGE:  cpu time      0.2242: real time      0.2255
    MIXING:  cpu time      0.0113: real time      0.0114
    --------------------------------------------
      LOOP:  cpu time     29.7011: real time     29.9620

 eigenvalue-minimisations  : 30896
 total energy-change (2. order) :-0.2781969E-03  (-0.2078336E-06)
 number of electron      20.0000002 magnetization       0.0012590
 augmentation part       -3.6733481 magnetization       0.0012626

 Broyden mixing:
  rms(total) = 0.17981E-03    rms(broyden)= 0.17981E-03
  rms(prec ) = 0.21782E-03
[...]
      5      -7.1999      1.00000
      6      -7.1999      1.00000
      7      -6.3812      1.00000
      8      -6.3812      1.00000
      9      -4.3078      1.00000
     10      -4.3078      1.00000
     11       0.0271      0.00000
     12       0.0271      0.00000
     13       1.7888      0.00000
     14       1.7888      0.00000
     15       2.5034      0.00000
     16       2.5034      0.00000
     17       4.1235      0.00000
     18       4.1235      0.00000
     19       4.6941      0.00000
     20       4.6941      0.00000
     21       5.4050      0.00000
     22       5.4050      0.00000
     23       5.7844      0.00000
     24       5.7844      0.00000
     25       6.0163      0.00000
     26       6.0163      0.00000
     27       6.1593      0.00000
     28       6.1593      0.00000
     29       6.4122      0.00000
     30       6.4123      0.00000
     31       6.7097      0.00000
     32       6.7097      0.00000
     33       6.8284      0.00000
     34       6.8284      0.00000
     35       6.8882      0.00000
     36       6.8883      0.00000
     37       7.6304      0.00000
     38       7.6304      0.00000
     39       7.7432      0.00000
     40       7.7432      0.00000
     41       8.1405      0.00000
     42       8.1406      0.00000
     43       8.2757      0.00000
     44       8.2758      0.00000
     45       8.6904      0.00000
     46       8.6904      0.00000
     47       9.3790      0.00000
     48       9.3790      0.00000
     49       9.7591      0.00000
     50       9.7591      0.00000
     51      10.2720      0.00000
     52      10.2720      0.00000
     53      10.6887      0.00000
     54      10.6887      0.00000
     55      11.0177      0.00000
     56      11.0177      0.00000
     57      11.2716      0.00000
     58      11.2716      0.00000
     59      11.5984      0.00000
     60      11.5984      0.00000
     61      12.2325      0.00000
     62      12.2327      0.00000
     63      12.8824      0.00000
     64      12.8825      0.00000
     65      13.1203      0.00000
     66      13.1203      0.00000
     67      13.5836      0.00000
     68      13.5836      0.00000
     69      13.7962      0.00000
     70      13.7962      0.00000
     71      14.5179      0.00000
     72      14.5179      0.00000
     73      15.2270      0.00000
     74      15.2270      0.00000
     75      15.5251      0.00000
     76      15.5251      0.00000
     77      15.7115      0.00000
     78      15.7115      0.00000
     79      16.4459      0.00000
     80      16.4460      0.00000
     81      16.6262      0.00000
     82      16.6262      0.00000
     83      16.7927      0.00000
     84      16.7927      0.00000
     85      17.6021      0.00000
     86      17.6021      0.00000
     87      18.4279      0.00000
     88      18.4279      0.00000
     89      19.3466      0.00000
     90      19.3467      0.00000
     91      19.5367      0.00000
     92      19.5368      0.00000
     93      19.7861      0.00000
     94      19.7861      0.00000
     95      20.1689      0.00000
     96      20.1689      0.00000
     97      20.3921      0.00000
     98      20.3921      0.00000
     99      20.5171      0.00000
    100      20.5171      0.00000
    101      20.6752      0.00000
    102      20.6752      0.00000
    103      20.8208      0.00000
    104      20.8209      0.00000
    105      20.8897      0.00000
    106      20.8898      0.00000
    107      20.9668      0.00000
    108      20.9668      0.00000
    109      21.2603      0.00000
    110      21.2603      0.00000
    111      21.4394      0.00000
    112      21.4394      0.00000
    113      21.6009      0.00000
    114      21.6009      0.00000
    115      21.6649      0.00000
    116      21.6649      0.00000
    117      22.4756      0.00000
    118      22.4756      0.00000
    119      22.7149      0.00000
    120      22.7149      0.00000
    121      22.8978      0.00000
    122      22.8978      0.00000
    123      23.0621      0.00000
    124      23.0622      0.00000
    125      23.3979      0.00000
    126      23.3980      0.00000
    127      23.4679      0.00000
    128      23.4680      0.00000
    129      23.7237      0.00000
    130      23.7237      0.00000
    131      23.8856      0.00000
    132      23.8856      0.00000
    133      24.3260      0.00000
    134      24.3260      0.00000
    135      24.5118      0.00000
    136      24.5118      0.00000
    137      24.6232      0.00000
    138      24.6232      0.00000
    139      24.8602      0.00000
    140      24.8602      0.00000
    141      25.0023      0.00000
    142      25.0023      0.00000
    143      25.1676      0.00000
    144      25.1676      0.00000
    145      25.2667      0.00000
    146      25.2667      0.00000
    147      25.5805      0.00000
    148      25.5805      0.00000
    149      26.0177      0.00000
    150      26.0177      0.00000
    151      26.0876      0.00000
    152      26.0876      0.00000
    153      26.3384      0.00000
    154      26.3384      0.00000
    155      26.3464      0.00000
    156      26.3464      0.00000
    157      26.6003      0.00000
    158      26.6003      0.00000
    159      26.8062      0.00000
    160      26.8063      0.00000
    161      26.9927      0.00000
    162      26.9927      0.00000
    163      27.0992      0.00000
    164      27.0992      0.00000
    165      27.1818      0.00000
    166      27.1818      0.00000
    167      27.4563      0.00000
    168      27.4563      0.00000
    169      27.5569      0.00000
    170      27.5569      0.00000
    171      27.6686      0.00000
    172      27.6686      0.00000
    173      27.9124      0.00000
    174      27.9124      0.00000
    175      28.0754      0.00000
    176      28.0755      0.00000
    177      28.5037      0.00000
    178      28.5037      0.00000
    179      28.5098      0.00000
    180      28.5099      0.00000
    181      28.6354      0.00000
    182      28.6354      0.00000
    183      28.7271      0.00000
    184      28.7271      0.00000
    185      29.1414      0.00000
    186      29.1414      0.00000
    187      29.1768      0.00000
    188      29.1768      0.00000
    189      29.3879      0.00000
    190      29.3880      0.00000
    191      29.5360      0.00000
    192      29.5360      0.00000
    193      29.9731      0.00000
    194      29.9732      0.00000
    195      30.4397      0.00000
    196      30.4397      0.00000
    197      30.4739      0.00000
    198      30.4739      0.00000
    199      30.8078      0.00000
    200      30.8078      0.00000
    201      30.9929      0.00000
    202      30.9929      0.00000
    203      31.0531      0.00000
    204      31.0531      0.00000
    205      31.2286      0.00000
    206      31.2286      0.00000
    207      31.3574      0.00000
    208      31.3574      0.00000
    209      32.5228      0.00000
    210      32.5228      0.00000
    211      32.6902      0.00000
    212      32.6902      0.00000
    213      33.1709      0.00000
    214      33.1709      0.00000
    215      33.2566      0.00000
    216      33.2566      0.00000
    217      33.2825      0.00000
    218      33.2825      0.00000
    219      33.4015      0.00000
    220      33.4015      0.00000
    221      33.6018      0.00000
    222      33.6018      0.00000
    223      33.9149      0.00000
    224      33.9149      0.00000


--------------------------------------------------------------------------------------------------------


 soft charge-density along one line, spin component            1
         0         1         2         3         4         5         6         7         8         9
 total charge-density along one line
 
 soft charge-density along one line, spin component            2
         0         1         2         3         4         5         6         7         8         9
 total charge-density along one line
 
 pseudopotential strength for first ion, spin component:            1
 16.360  20.467   0.042   0.053  -0.000   0.076   0.095  -0.000
 20.467  25.623   0.053   0.066  -0.000   0.096   0.119  -0.000
  0.042   0.053   3.532  -0.003  -0.000   6.039  -0.005  -0.000
  0.053   0.066  -0.003   3.529  -0.000  -0.005   6.035  -0.000
 -0.000  -0.000  -0.000  -0.000   3.533  -0.000  -0.000   6.041
  0.076   0.096   6.039  -0.005  -0.000  10.388  -0.009  -0.000
  0.095   0.119  -0.005   6.035  -0.000  -0.009  10.382  -0.000
 -0.000  -0.000  -0.000  -0.000   6.041  -0.000  -0.000  10.392
 -0.000  -0.000  -0.000  -0.000   0.007  -0.000  -0.000   0.013
 -0.007  -0.008   0.013   0.013  -0.000   0.024   0.024  -0.000
 -0.003  -0.004  -0.004   0.013   0.000  -0.007   0.025   0.000
 -0.000  -0.000  -0.000  -0.000   0.013  -0.000  -0.000   0.024
  0.001   0.002  -0.013   0.000  -0.000  -0.023   0.000  -0.000
 pseudopotential strength for first ion, spin component:            2
 16.360  20.467   0.042   0.053  -0.000   0.076   0.095  -0.000
 20.467  25.623   0.053   0.066  -0.000   0.096   0.119  -0.000
  0.042   0.053   3.532  -0.003  -0.000   6.039  -0.005  -0.000
  0.053   0.066  -0.003   3.529  -0.000  -0.005   6.035  -0.000
 -0.000  -0.000  -0.000  -0.000   3.533  -0.000  -0.000   6.041
  0.076   0.096   6.039  -0.005  -0.000  10.388  -0.009  -0.000
  0.095   0.119  -0.005   6.035  -0.000  -0.009  10.382  -0.000
 -0.000  -0.000  -0.000  -0.000   6.041  -0.000  -0.000  10.392
 -0.000  -0.000  -0.000  -0.000   0.007  -0.000  -0.000   0.013
 -0.007  -0.008   0.013   0.013  -0.000   0.024   0.024  -0.000
 -0.003  -0.004  -0.004   0.013   0.000  -0.007   0.025   0.000
 -0.000  -0.000  -0.000  -0.000   0.013  -0.000  -0.000   0.024
  0.001   0.002  -0.013   0.000  -0.000  -0.023   0.000  -0.000
 total augmentation occupancy for first ion, spin component:            1
  2.687  -0.651   0.352   0.400   0.000  -0.066  -0.073   0.000   0.000  -0.009  -0.014   0.000   0.009
 -0.651   0.614  -0.445  -0.550  -0.000   0.071   0.087   0.000   0.000   0.002   0.017  -0.000  -0.005
  0.352  -0.445   1.226   0.076   0.000  -0.198   0.000   0.000   0.000   0.051  -0.099   0.000   0.001
  0.400  -0.550   0.076   1.275  -0.000   0.000  -0.199   0.000   0.000  -0.016   0.111   0.000  -0.003
  0.000  -0.000   0.000   0.000   1.240  -0.000   0.000  -0.211   0.148  -0.000   0.000   0.045   0.000
 -0.066   0.071  -0.198   0.000   0.000   0.036  -0.002   0.000  -0.000  -0.009   0.017   0.000   0.000
 -0.073   0.087   0.000  -0.199   0.000  -0.002   0.035   0.000  -0.000   0.003  -0.020  -0.000   0.001
  0.000   0.000   0.000   0.000  -0.211   0.000   0.000   0.040  -0.026  -0.000   0.000  -0.008   0.000
  0.000   0.000   0.000   0.000   0.148   0.000  -0.000  -0.026   0.030   0.000   0.000   0.003   0.000
 -0.009   0.002   0.051  -0.016   0.000  -0.009   0.003   0.000   0.000   0.010  -0.007  -0.000   0.001
 -0.014   0.017  -0.099   0.111   0.000   0.017  -0.020   0.000   0.000  -0.007   0.028  -0.000  -0.002
  0.000   0.000   0.000  -0.000   0.045   0.000   0.000  -0.008   0.003   0.000   0.000   0.009   0.000
  0.009  -0.005   0.001  -0.003   0.000   0.000   0.001   0.000   0.000   0.001  -0.002   0.000   0.008
 total augmentation occupancy for first ion, spin component:            2
  0.000  -0.000  -0.000  -0.000   0.000   0.000   0.000   0.000   0.000   0.000   0.000   0.000  -0.000
 -0.000  -0.000   0.000   0.000   0.000  -0.000  -0.000   0.000   0.000   0.000   0.000   0.000   0.000
 -0.000   0.000   0.000   0.000   0.000  -0.000  -0.000   0.000  -0.000  -0.000  -0.000   0.000   0.000
 -0.000   0.000   0.000   0.000   0.000  -0.000   0.000   0.000   0.000  -0.000  -0.000   0.000  -0.000
  0.000   0.000   0.000   0.000   0.000   0.000   0.000  -0.000   0.000   0.000   0.000  -0.000   0.000
  0.000  -0.000  -0.000  -0.000   0.000   0.000   0.000   0.000   0.000   0.000   0.000   0.000  -0.000
  0.000  -0.000  -0.000   0.000   0.000   0.000  -0.000   0.000   0.000   0.000   0.000   0.000   0.000
  0.000   0.000   0.000   0.000  -0.000   0.000   0.000   0.000   0.000   0.000   0.000   0.000   0.000
  0.000   0.000  -0.000   0.000   0.000   0.000   0.000   0.000  -0.000   0.000   0.000  -0.000   0.000
  0.000   0.000  -0.000  -0.000   0.000   0.000   0.000   0.000   0.000  -0.000  -0.000   0.000   0.000
  0.000   0.000  -0.000  -0.000   0.000   0.000   0.000   0.000   0.000  -0.000  -0.000   0.000  -0.000
  0.000   0.000   0.000   0.000  -0.000   0.000   0.000   0.000  -0.000   0.000   0.000  -0.000   0.000
 -0.000   0.000   0.000  -0.000   0.000  -0.000   0.000   0.000   0.000   0.000  -0.000   0.000  -0.000


------------------------ aborting loop because EDIFF is reached ----------------------------------------





 total charge

# of ion       s       p       d       tot
------------------------------------------
    1        1.318   0.790   0.051   2.158
    2        1.318   0.790   0.051   2.158
    3        1.472   2.313   0.029   3.813
    4        1.472   2.313   0.029   3.813
--------------------------------------------------
tot          5.579   6.205   0.159  11.943



 magnetization (x)

# of ion       s       p       d       tot
------------------------------------------
    1       -0.000  -0.000  -0.000  -0.000
    2       -0.000  -0.000  -0.000  -0.000
    3       -0.000   0.000  -0.000   0.000
    4       -0.000   0.000  -0.000   0.000
--------------------------------------------------
tot         -0.000  -0.000  -0.000  -0.000
 
    CHARGE:  cpu time      0.2214: real time      0.2226
    FORLOC:  cpu time      0.0064: real time      0.0064
    FORNL :  cpu time      1.8456: real time      1.8550
    STRESS:  cpu time      6.4345: real time      6.4994
    FORCOR:  cpu time      0.1888: real time      0.1896
    FORHAR:  cpu time      0.0197: real time      0.0199
    MIXING:  cpu time      0.0135: real time      0.0136
    OFIELD:  cpu time      0.0000: real time      0.0000

  FORCE on cell =-STRESS in cart. coord.  units (eV):
  Direction    XX          YY          ZZ          XY          YZ          ZX
  --------------------------------------------------------------------------------------
  Alpha Z     9.66957     9.66957     9.66957
  Ewald    2700.27710  2672.09450 -3160.90122    -0.00000     0.00000    -0.00000
  Hartree  2797.09725  2785.45343 -2747.50176    -0.00000    -0.00000    -0.00000
  E(xc)     -70.25652   -70.27422   -70.89134    -0.00000     0.00000     0.00000
  Local   -5745.28001 -5708.77720  5654.98448    -0.00000     0.00000    -0.00000
  n-local   120.12181   119.81511   120.87742     0.43086     0.00000     0.00000
  augment    -5.65235    -5.87483    -6.08150    -0.00000    -0.00002     0.00000
  Kinetic   194.43015   198.24378   199.02592     3.34409    -0.00000     0.00000
  Fock        0.00000     0.00000     0.00000     0.00000     0.00000     0.00000
  -------------------------------------------------------------------------------------
  Total       0.40699     0.35014    -0.81844     0.00000     0.00000     0.00000
  in kB       1.48845     1.28053    -2.99319     0.00000     0.00000     0.00000
  external pressure =       -0.07 kB  Pullay stress =        0.00 kB


 VOLUME and BASIS-vectors are now :
 -----------------------------------------------------------------------------
  energy-cutoff  :      520.00
  volume of cell :      438.09
      direct lattice vectors                 reciprocal lattice vectors
     3.858100176  0.000000000  0.000000000     0.259194929  0.000000000  0.000000000
     0.000000000  4.526575088  0.000000000     0.000000000  0.220917577  0.000000000
     0.000000000  0.000000000 25.085176468     0.000000000  0.000000000  0.039864180

  length of vectors
     3.858100176  4.526575088 25.085176468     0.259194929  0.220917577  0.039864180


 FORCES acting on ions
    electron-ion (+dipol)            ewald-force                    non-local-force                 convergence-correction
 -----------------------------------------------------------------------------------------------
   0.384E-09 0.159E+02 0.186E+03   0.206E-08 -.186E+02 -.189E+03   0.278E-16 0.254E+01 0.364E+01   0.644E-14 0.884E-06 -.823E-05
   -.408E-08 0.159E+02 -.186E+03   -.206E-08 -.186E+02 0.189E+03   0.278E-16 0.254E+01 -.364E+01   -.427E-14 0.884E-06 0.823E-05
   -.197E-07 -.170E+02 0.223E+03   -.238E-08 0.186E+02 -.225E+03   0.000E+00 -.149E+01 0.185E+01   -.128E-13 -.444E-05 -.728E-05
   0.417E-09 -.170E+02 -.223E+03   0.238E-08 0.186E+02 0.225E+03   0.000E+00 -.149E+01 -.185E+01   0.933E-14 -.444E-05 0.728E-05
 -----------------------------------------------------------------------------------------------
   -.230E-07 -.210E+01 -.591E-04   -.554E-15 -.355E-14 0.284E-13   0.555E-16 0.210E+01 0.222E-15   -.135E-14 -.712E-05 0.583E-11
 
 
 POSITION                                       TOTAL-FORCE (eV/Angst)
 -----------------------------------------------------------------------------------
      0.96453      0.52346      1.36947        -0.000000     -0.082592      0.271935
      2.89358      2.78675      4.17312        -0.000000     -0.082592     -0.271935
      2.89358      2.24089      1.63362        -0.000000      0.082592      0.023360
      0.96453      4.50417      3.90897         0.000000      0.082592     -0.023360
 -----------------------------------------------------------------------------------
    total drift:                               -0.000000     -0.000283     -0.000059


--------------------------------------------------------------------------------------------------------



  FREE ENERGIE OF THE ION-ELECTRON SYSTEM (eV)
  ---------------------------------------------------
  free  energy   TOTEN  =       -16.75986109 eV

  energy  without entropy=      -16.75986109  energy(sigma->0) =      -16.75986109
 


--------------------------------------------------------------------------------------------------------


    POTLOK:  cpu time      1.3115: real time      1.3146


--------------------------------------------------------------------------------------------------------


 writing wavefunctions
     LOOP+:  cpu time    984.9385: real time   1004.7463
    4ORBIT:  cpu time      0.0000: real time      0.0000



 total charge

# of ion       s       p       d       tot
------------------------------------------
    1        1.318   0.790   0.051   2.158
    2        1.318   0.790   0.051   2.158
    3        1.472   2.313   0.029   3.813
    4        1.472   2.313   0.029   3.813
--------------------------------------------------
tot          5.579   6.205   0.159  11.943



 magnetization (x)

# of ion       s       p       d       tot
------------------------------------------
    1       -0.000  -0.000  -0.000  -0.000
    2       -0.000  -0.000  -0.000  -0.000
    3       -0.000   0.000  -0.000   0.000
    4       -0.000   0.000  -0.000   0.000
--------------------------------------------------
tot         -0.000  -0.000  -0.000  -0.000
 

 total amount of memory used by VASP MPI-rank0   310976. kBytes
=======================================================================

   base      :      30000. kBytes
   nonl-proj :      79779. kBytes
   fftplans  :       4512. kBytes
   grid      :      25507. kBytes
   one-center:         64. kBytes
   wavefun   :     171114. kBytes
 
  
  
 General timing and accounting informations for this job:
 ========================================================
  
                  Total CPU time used (sec):      999.514
                            User time (sec):      978.320
                          System time (sec):       21.194
                         Elapsed time (sec):     1020.233
  
                   Maximum memory used (kb):      477680.
                   Average memory used (kb):          N/A
  
                          Minor page faults:       460592
                          Major page faults:           73
                 Voluntary context switches:       185430
