 running  256 mpi-ranks, with    1 threads/rank, on    7 nodes
 distrk:  each k-point on  128 cores,    2 groups
 distr:  one band on    4 cores,   32 groups
 vasp.6.4.1 05Apr23 (build May 18 2023 13:19:41) complex                         
 POSCAR found type information on POSCAR C S O H 
 POSCAR found :  4 types and     368 ions
 Reading from existing POTCAR
 scaLAPACK will be used
 Reading from existing POTCAR
 -----------------------------------------------------------------------------
|                                                                             |
|               ----> ADVICE to this user running VASP <----                  |
|                                                                             |
|     You have a (more or less) 'large supercell' and for larger cells it     |
|     might be more efficient to use real-space projection operators.         |
|     Therefore, try LREAL= Auto in the INCAR file.                           |
|     Mind: If you want to do very accurate calculations, keep the            |
|     reciprocal projection scheme (i.e. LREAL=.FALSE.).                      |
|                                                                             |
 -----------------------------------------------------------------------------

 LDA part: xc-table for Pade appr. of Perdew
 POSCAR, INCAR and KPOINTS ok, starting setup
 FFT: planning ... GRIDC
 FFT: planning ... GRID_SOFT
 FFT: planning ... GRID
 WAVECAR not read
 charge-density read from file: 01_AOPT                                 
 magnetization density read from file 1
 WARNING: random wavefunctions but no delay for mixing, default for NELMDL
 entering main loop
       N       E                     dE             d eps       ncg     rms          rms(c)
DAV:   1     0.113514195992E+05    0.11351E+05   -0.41742E+05  8576   0.939E+02
DAV:   2     0.408733034102E+03   -0.10943E+05   -0.10188E+05 11296   0.213E+02
DAV:   3    -0.301941571152E+04   -0.34281E+04   -0.32760E+04  9216   0.116E+02
DAV:   4    -0.331685852690E+04   -0.29744E+03   -0.28798E+03  8960   0.389E+01
DAV:   5    -0.332817816116E+04   -0.11320E+02   -0.11086E+02 10272   0.699E+00    0.132E-01
DAV:   6    -0.332843851943E+04   -0.26036E+00   -0.25755E+00  9472   0.106E+00    0.849E-02
DAV:   7    -0.332844765538E+04   -0.91359E-02   -0.91698E-02 10144   0.200E-01    0.523E-02
DAV:   8    -0.332844790467E+04   -0.24929E-03   -0.30322E-03  9568   0.383E-02    0.365E-02
DAV:   9    -0.332844789906E+04    0.56098E-05   -0.13188E-04  9504   0.841E-03    0.301E-02
DAV:  10    -0.332844787623E+04    0.22831E-04   -0.15722E-05  7872   0.421E-03    0.204E-02
DAV:  11    -0.332844786069E+04    0.15542E-04   -0.99227E-06  8192   0.332E-03    0.119E-02
DAV:  12    -0.332844785307E+04    0.76193E-05   -0.24113E-06  6720   0.170E-03    0.786E-03
DAV:  13    -0.332844784220E+04    0.10872E-04   -0.19365E-06  6400   0.159E-03    0.308E-03
DAV:  14    -0.332844783713E+04    0.50671E-05   -0.78787E-07  5984   0.102E-03    0.925E-04
DAV:  15    -0.332844783610E+04    0.10252E-05   -0.10156E-07  5024   0.525E-04    0.429E-04
DAV:  16    -0.332844783576E+04    0.34762E-06    0.23743E-08  4928   0.310E-04
   1 F= -.33426363E+04 E0= -.33426363E+04  d E =-.334264E+04  mag=     1.0000
 BRION: g(F)=  0.729E-02 g(S)=  0.000E+00
 bond charge predicted
       N       E                     dE             d eps       ncg     rms          rms(c)
DAV:   1    -0.332844846770E+04   -0.63160E-03   -0.84861E-01  7808   0.109E+00    0.170E-01
DAV:   2    -0.332844913979E+04   -0.67209E-03   -0.14420E-02  8512   0.135E-01    0.126E-01
DAV:   3    -0.332844888944E+04    0.25036E-03   -0.15783E-03  8800   0.514E-02    0.435E-02
DAV:   4    -0.332844888672E+04    0.27189E-05   -0.37081E-04  8672   0.214E-02    0.174E-02
DAV:   5    -0.332844889088E+04   -0.41588E-05   -0.39376E-05  9024   0.711E-03    0.631E-03
DAV:   6    -0.332844889253E+04   -0.16565E-05   -0.43434E-06  7616   0.262E-03    0.338E-03
DAV:   7    -0.332844889416E+04   -0.16291E-05   -0.95039E-07  5568   0.133E-03    0.138E-03
DAV:   8    -0.332844889590E+04   -0.17397E-05   -0.17986E-07  4672   0.757E-04    0.612E-04
DAV:   9    -0.332844889761E+04   -0.17098E-05    0.32348E-08  4672   0.391E-04    0.355E-04
DAV:  10    -0.332844890009E+04   -0.24828E-05    0.73023E-08  4448   0.249E-04    0.206E-04
DAV:  11    -0.332844890250E+04   -0.24057E-05    0.93420E-08  4704   0.165E-04    0.154E-04
DAV:  12    -0.332844890453E+04   -0.20299E-05    0.10501E-07  4512   0.115E-04    0.119E-04
DAV:  13    -0.332844890787E+04   -0.33359E-05    0.98796E-08  4640   0.127E-04    0.799E-05
DAV:  14    -0.332844891009E+04   -0.22271E-05    0.10320E-07  4512   0.102E-04    0.570E-05
DAV:  15    -0.332844891099E+04   -0.90001E-06    0.11176E-07  4512   0.731E-05
   2 F= -.33426375E+04 E0= -.33426375E+04  d E =-.114310E-02  mag=     1.0000
 BRION: g(F)=  0.223E-01 g(S)=  0.000E+00 retain N=  1 mean eig= 0.39
 eig:   0.385
 bond charge predicted
       N       E                     dE             d eps       ncg     rms          rms(c)
DAV:   1    -0.332845136437E+04   -0.24543E-02   -0.29566E-01  7424   0.644E-01    0.110E-01
DAV:   2    -0.332845163074E+04   -0.26637E-03   -0.68370E-03  8480   0.935E-02    0.846E-02
DAV:   3    -0.332845148112E+04    0.14962E-03   -0.85450E-04  8064   0.345E-02    0.294E-02
DAV:   4    -0.332845147524E+04    0.58858E-05   -0.16686E-04  8032   0.139E-02    0.155E-02
DAV:   5    -0.332845146989E+04    0.53499E-05   -0.24049E-05  7648   0.630E-03    0.330E-03
DAV:   6    -0.332845147105E+04   -0.11619E-05   -0.46059E-06  6752   0.240E-03    0.207E-03
DAV:   7    -0.332845147211E+04   -0.10650E-05   -0.54443E-07  4384   0.102E-03    0.106E-03
DAV:   8    -0.332845147293E+04   -0.81258E-06   -0.53916E-08  4480   0.550E-04
   3 F= -.33426401E+04 E0= -.33426401E+04  d E =-.260356E-02  mag=     1.0000
 BRION: g(F)=  0.541E-02 g(S)=  0.000E+00 retain N=  2 mean eig= 2.73
 eig:   0.269  5.194
 bond charge predicted
       N       E                     dE             d eps       ncg     rms          rms(c)
DAV:   1    -0.332845243024E+04   -0.95813E-03   -0.12643E-01  7424   0.421E-01    0.616E-02
DAV:   2    -0.332845259586E+04   -0.16561E-03   -0.26006E-03  8320   0.553E-02    0.496E-02
DAV:   3    -0.332845256496E+04    0.30898E-04   -0.16303E-04  8544   0.158E-02    0.245E-02
DAV:   4    -0.332845256214E+04    0.28202E-05   -0.38868E-05  8160   0.752E-03    0.691E-03
DAV:   5    -0.332845256400E+04   -0.18643E-05   -0.48779E-06  7296   0.276E-03    0.253E-03
DAV:   6    -0.332845256539E+04   -0.13838E-05   -0.70031E-07  5216   0.108E-03    0.135E-03
DAV:   7    -0.332845256650E+04   -0.11146E-05   -0.86371E-08  4640   0.607E-04    0.645E-04
DAV:   8    -0.332845256735E+04   -0.84622E-06    0.45286E-08  4416   0.349E-04
   4 F= -.33426412E+04 E0= -.33426412E+04  d E =-.114441E-02  mag=     1.0000
 BRION: g(F)=  0.336E-02 g(S)=  0.000E+00 retain N=  2 mean eig= 0.52
 eig:   0.162  0.868
 bond charge predicted
       N       E                     dE             d eps       ncg     rms          rms(c)
DAV:   1    -0.332845337429E+04   -0.80779E-03   -0.85225E-02  7424   0.339E-01    0.503E-02
DAV:   2    -0.332845348009E+04   -0.10580E-03   -0.16781E-03  8256   0.435E-02    0.392E-02
DAV:   3    -0.332845345805E+04    0.22038E-04   -0.11112E-04  8064   0.131E-02    0.166E-02
DAV:   4    -0.332845345776E+04    0.28522E-06   -0.23915E-05  8032   0.550E-03    0.532E-03
DAV:   5    -0.332845345849E+04   -0.72771E-06   -0.24177E-06  6304   0.198E-03
   5 F= -.33426422E+04 E0= -.33426422E+04  d E =-.938835E-03  mag=     1.0000
 BRION: g(F)=  0.176E-02 g(S)=  0.000E+00 retain N=  2 mean eig= 0.74
 eig:   0.137  1.350
 bond charge predicted
       N       E                     dE             d eps       ncg     rms          rms(c)
DAV:   1    -0.332845411401E+04   -0.65624E-03   -0.87056E-02  7424   0.339E-01    0.495E-02
DAV:   2    -0.332845423245E+04   -0.11844E-03   -0.16936E-03  8000   0.425E-02    0.401E-02
DAV:   3    -0.332845421677E+04    0.15683E-04   -0.81702E-05  8512   0.113E-02    0.223E-02
DAV:   4    -0.332845421518E+04    0.15883E-05   -0.32392E-05  7712   0.705E-03    0.445E-03
DAV:   5    -0.332845421597E+04   -0.79256E-06   -0.70115E-06  7232   0.303E-03
   6 F= -.33426430E+04 E0= -.33426430E+04  d E =-.811697E-03  mag=     1.0000
 BRION: g(F)=  0.178E-02 g(S)=  0.000E+00 retain N=  3 mean eig= 1.23
 eig:   3.410  0.151  0.115
 bond charge predicted
       N       E                     dE             d eps       ncg     rms          rms(c)
DAV:   1    -0.332845469549E+04   -0.48031E-03   -0.48660E-02  7424   0.247E-01    0.375E-02
DAV:   2    -0.332845477262E+04   -0.77123E-04   -0.10750E-03  8320   0.321E-02    0.300E-02
DAV:   3    -0.332845476163E+04    0.10985E-04   -0.50260E-05  7904   0.828E-03    0.160E-02
DAV:   4    -0.332845475904E+04    0.25873E-05   -0.14552E-05  8352   0.472E-03    0.492E-03
DAV:   5    -0.332845475924E+04   -0.19663E-06   -0.29604E-06  6304   0.189E-03
   7 F= -.33426436E+04 E0= -.33426436E+04  d E =-.575339E-03  mag=     1.0000
 BRION: g(F)=  0.140E-02 g(S)=  0.000E+00 retain N=  3 mean eig= 2.53
 eig:   7.490  0.050  0.036
 bond charge predicted
       N       E                     dE             d eps       ncg     rms          rms(c)
DAV:   1    -0.332845524848E+04   -0.48944E-03   -0.52445E-02  7360   0.259E-01    0.395E-02
DAV:   2    -0.332845532444E+04   -0.75958E-04   -0.10959E-03  8160   0.329E-02    0.323E-02
DAV:   3    -0.332845531426E+04    0.10183E-04   -0.46957E-05  8416   0.832E-03    0.187E-02
DAV:   4    -0.332845531236E+04    0.18971E-05   -0.22617E-05  7680   0.587E-03    0.346E-03
DAV:   5    -0.332845531304E+04   -0.68103E-06   -0.54406E-06  6688   0.249E-03
   8 F= -.33426442E+04 E0= -.33426442E+04  d E =-.593214E-03  mag=     1.0000
 BRION: g(F)=  0.134E-02 g(S)=  0.000E+00 retain N=  2 mean eig= 0.76
 eig:   0.142  1.383
 bond charge predicted
       N       E                     dE             d eps       ncg     rms          rms(c)
DAV:   1    -0.332845572646E+04   -0.41409E-03   -0.39553E-02  7360   0.225E-01    0.329E-02
DAV:   2    -0.332845578225E+04   -0.55792E-04   -0.77710E-04  8192   0.281E-02    0.256E-02
DAV:   3    -0.332845577451E+04    0.77345E-05   -0.36472E-05  8032   0.738E-03    0.124E-02
DAV:   4    -0.332845577427E+04    0.24121E-06   -0.10648E-05  7968   0.385E-03    0.317E-03
DAV:   5    -0.332845577451E+04   -0.23877E-06   -0.13498E-06  5504   0.145E-03
   9 F= -.33426447E+04 E0= -.33426447E+04  d E =-.496914E-03  mag=     1.0000
 BRION: g(F)=  0.118E-02 g(S)=  0.000E+00 retain N=  3 mean eig= 2.04
 eig:   5.710  0.151  0.247
 bond charge predicted
       N       E                     dE             d eps       ncg     rms          rms(c)
DAV:   1    -0.332845613759E+04   -0.36331E-03   -0.27522E-02  7424   0.190E-01    0.284E-02
DAV:   2    -0.332845617240E+04   -0.34816E-04   -0.52867E-04  8192   0.239E-02    0.221E-02
DAV:   3    -0.332845616715E+04    0.52555E-05   -0.26502E-05  8800   0.638E-03    0.114E-02
DAV:   4    -0.332845616699E+04    0.15483E-06   -0.89917E-06  8032   0.374E-03
  10 F= -.33426451E+04 E0= -.33426451E+04  d E =-.419953E-03  mag=     1.0000
 BRION: g(F)=  0.981E-03 g(S)=  0.000E+00 retain N=  3 mean eig= 2.70
 eig:   7.811  0.214  0.065
 bond charge predicted
       N       E                     dE             d eps       ncg     rms          rms(c)
DAV:   1    -0.332845673762E+04   -0.57048E-03   -0.83363E-02  7296   0.325E-01    0.475E-02
DAV:   2    -0.332845683747E+04   -0.99848E-04   -0.14467E-03  8096   0.388E-02    0.359E-02
DAV:   3    -0.332845682379E+04    0.13682E-04   -0.63235E-05  8160   0.103E-02    0.164E-02
DAV:   4    -0.332845682532E+04   -0.15311E-05   -0.24804E-05  7616   0.580E-03    0.384E-03
DAV:   5    -0.332845682557E+04   -0.24913E-06   -0.38922E-06  6784   0.259E-03
  11 F= -.33426458E+04 E0= -.33426458E+04  d E =-.707085E-03  mag=     1.0000
 BRION: g(F)=  0.109E-02 g(S)=  0.000E+00 retain N=  3 mean eig= 1.02
 eig:   2.746  0.209  0.098
 bond charge predicted
       N       E                     dE             d eps       ncg     rms          rms(c)
DAV:   1    -0.332845699654E+04   -0.17122E-03   -0.98754E-03  7424   0.113E-01    0.181E-02
DAV:   2    -0.332845701629E+04   -0.19747E-04   -0.27299E-04  8256   0.159E-02    0.160E-02
DAV:   3    -0.332845701397E+04    0.23240E-05   -0.11010E-05  8256   0.371E-03    0.105E-02
DAV:   4    -0.332845701263E+04    0.13416E-05   -0.59811E-06  7072   0.287E-03    0.223E-03
DAV:   5    -0.332845701284E+04   -0.20990E-06   -0.12171E-06  5344   0.117E-03
  12 F= -.33426460E+04 E0= -.33426460E+04  d E =-.201944E-03  mag=     1.0000
 BRION: g(F)=  0.988E-03 g(S)=  0.000E+00 retain N=  3 mean eig= 1.68
 eig:   4.629  0.205  0.205
 bond charge predicted
       N       E                     dE             d eps       ncg     rms          rms(c)
DAV:   1    -0.332845741386E+04   -0.40124E-03   -0.40756E-02  7328   0.223E-01    0.332E-02
DAV:   2    -0.332845747053E+04   -0.56667E-04   -0.77914E-04  7776   0.270E-02    0.250E-02
DAV:   3    -0.332845746388E+04    0.66467E-05   -0.30087E-05  7808   0.661E-03    0.124E-02
DAV:   4    -0.332845746369E+04    0.19313E-06   -0.11847E-05  7904   0.407E-03    0.295E-03
DAV:   5    -0.332845746395E+04   -0.25844E-06   -0.19497E-06  5632   0.173E-03
  13 F= -.33426465E+04 E0= -.33426465E+04  d E =-.484286E-03  mag=     1.0000
 BRION: g(F)=  0.881E-03 g(S)=  0.000E+00 retain N=  3 mean eig= 2.31
 eig:   6.296  0.337  0.286
 bond charge predicted
       N       E                     dE             d eps       ncg     rms          rms(c)
DAV:   1    -0.332845769746E+04   -0.23377E-03   -0.13579E-02  7424   0.130E-01    0.202E-02
DAV:   2    -0.332845772061E+04   -0.23153E-04   -0.31273E-04  7968   0.168E-02    0.170E-02
DAV:   3    -0.332845771813E+04    0.24795E-05   -0.11690E-05  8192   0.400E-03    0.107E-02
DAV:   4    -0.332845771741E+04    0.71805E-06   -0.71258E-06  7104   0.321E-03
  14 F= -.33426467E+04 E0= -.33426467E+04  d E =-.271471E-03  mag=     1.0000
 BRION: g(F)=  0.805E-03 g(S)=  0.000E+00 retain N=  2 mean eig= 1.48
 eig:   0.166  2.802
 bond charge predicted
       N       E                     dE             d eps       ncg     rms          rms(c)
DAV:   1    -0.332845821212E+04   -0.49399E-03   -0.67748E-02  7296   0.291E-01    0.426E-02
DAV:   2    -0.332845829376E+04   -0.81637E-04   -0.11717E-03  8064   0.345E-02    0.319E-02
DAV:   3    -0.332845828360E+04    0.10159E-04   -0.47952E-05  8096   0.886E-03    0.153E-02
DAV:   4    -0.332845828493E+04   -0.13285E-05   -0.20369E-05  7680   0.532E-03    0.344E-03
DAV:   5    -0.332845828512E+04   -0.18941E-06   -0.37973E-06  6528   0.245E-03
  15 F= -.33426473E+04 E0= -.33426473E+04  d E =-.610945E-03  mag=     1.0000
 BRION: g(F)=  0.812E-03 g(S)=  0.000E+00 retain N=  2 mean eig= 0.53
 eig:   0.119  0.946
 bond charge predicted
       N       E                     dE             d eps       ncg     rms          rms(c)
DAV:   1    -0.332845850566E+04   -0.22073E-03   -0.12070E-02  7424   0.125E-01    0.185E-02
DAV:   2    -0.332845852108E+04   -0.15420E-04   -0.22692E-04  8224   0.156E-02    0.141E-02
DAV:   3    -0.332845851886E+04    0.22198E-05   -0.10747E-05  8256   0.411E-03    0.686E-03
DAV:   4    -0.332845851897E+04   -0.11036E-06   -0.33898E-06  6848   0.229E-03
  16 F= -.33426476E+04 E0= -.33426476E+04  d E =-.249723E-03  mag=     1.0000
 BRION: g(F)=  0.720E-03 g(S)=  0.000E+00 retain N=  2 mean eig= 0.51
 eig:   0.131  0.898
 bond charge predicted
       N       E                     dE             d eps       ncg     rms          rms(c)
DAV:   1    -0.332845895279E+04   -0.43393E-03   -0.51854E-02  7296   0.254E-01    0.381E-02
DAV:   2    -0.332845901744E+04   -0.64651E-04   -0.93221E-04  7904   0.306E-02    0.290E-02
DAV:   3    -0.332845901023E+04    0.72116E-05   -0.37189E-05  8480   0.768E-03    0.158E-02
DAV:   4    -0.332845901058E+04   -0.35705E-06   -0.17528E-05  7648   0.531E-03    0.307E-03
DAV:   5    -0.332845901101E+04   -0.42748E-06   -0.47421E-06  6496   0.243E-03
  17 F= -.33426481E+04 E0= -.33426481E+04  d E =-.528960E-03  mag=     1.0000
 BRION: g(F)=  0.732E-03 g(S)=  0.000E+00 retain N=  2 mean eig= 0.31
 eig:   0.175  0.436
 bond charge predicted
       N       E                     dE             d eps       ncg     rms          rms(c)
DAV:   1    -0.332845926266E+04   -0.25208E-03   -0.17701E-02  7296   0.146E-01    0.219E-02
DAV:   2    -0.332845928907E+04   -0.26402E-04   -0.35079E-04  7776   0.178E-02    0.165E-02
DAV:   3    -0.332845928634E+04    0.27211E-05   -0.12652E-05  8000   0.420E-03    0.859E-03
DAV:   4    -0.332845928621E+04    0.13527E-06   -0.51773E-06  7840   0.276E-03
  18 F= -.33426484E+04 E0= -.33426484E+04  d E =-.294250E-03  mag=     1.0000
 BRION: g(F)=  0.672E-03 g(S)=  0.000E+00 retain N=  2 mean eig= 2.25
 eig:   0.038  4.458
 bond charge predicted
       N       E                     dE             d eps       ncg     rms          rms(c)
DAV:   1    -0.332845974201E+04   -0.45566E-03   -0.64325E-02  7296   0.283E-01    0.424E-02
DAV:   2    -0.332845982295E+04   -0.80944E-04   -0.11646E-03  7936   0.341E-02    0.322E-02
DAV:   3    -0.332845981425E+04    0.87034E-05   -0.45927E-05  8512   0.848E-03    0.176E-02
DAV:   4    -0.332845981485E+04   -0.60559E-06   -0.21281E-05  7648   0.586E-03    0.338E-03
DAV:   5    -0.332845981544E+04   -0.58336E-06   -0.58884E-06  6784   0.267E-03
  19 F= -.33426490E+04 E0= -.33426490E+04  d E =-.567212E-03  mag=     1.0000
 BRION: g(F)=  0.731E-03 g(S)=  0.000E+00 retain N=  2 mean eig= 1.25
 eig:   0.169  2.336
 bond charge predicted
       N       E                     dE             d eps       ncg     rms          rms(c)
DAV:   1    -0.332845997001E+04   -0.15516E-03   -0.67503E-03  7424   0.931E-02    0.138E-02
DAV:   2    -0.332845997928E+04   -0.92722E-05   -0.13034E-04  8096   0.117E-02    0.105E-02
DAV:   3    -0.332845997812E+04    0.11644E-05   -0.59566E-06  7872   0.304E-03    0.525E-03
DAV:   4    -0.332845997820E+04   -0.83935E-07   -0.18409E-06  5376   0.175E-03
  20 F= -.33426492E+04 E0= -.33426492E+04  d E =-.174034E-03  mag=     1.0000
 BRION: g(F)=  0.654E-03 g(S)=  0.000E+00 retain N=  2 mean eig= 0.83
 eig:   0.176  1.491
 bond charge predicted
       N       E                     dE             d eps       ncg     rms          rms(c)
DAV:   1    -0.332846026636E+04   -0.28824E-03   -0.22871E-02  7296   0.168E-01    0.248E-02
DAV:   2    -0.332846029459E+04   -0.28225E-04   -0.40317E-04  7936   0.200E-02    0.183E-02
DAV:   3    -0.332846029137E+04    0.32188E-05   -0.15542E-05  8032   0.499E-03    0.910E-03
DAV:   4    -0.332846029180E+04   -0.43225E-06   -0.68100E-06  7648   0.314E-03
  21 F= -.33426495E+04 E0= -.33426495E+04  d E =-.334977E-03  mag=     1.0000
 BRION: g(F)=  0.587E-03 g(S)=  0.000E+00 retain N=  2 mean eig= 0.28
 eig:   0.276  0.276
 bond charge predicted
       N       E                     dE             d eps       ncg     rms          rms(c)
DAV:   1    -0.332846074745E+04   -0.45608E-03   -0.72969E-02  7296   0.300E-01    0.454E-02
DAV:   2    -0.332846084113E+04   -0.93676E-04   -0.13411E-03  7904   0.363E-02    0.346E-02
DAV:   3    -0.332846083132E+04    0.98010E-05   -0.51031E-05  8416   0.894E-03    0.193E-02
DAV:   4    -0.332846083194E+04   -0.61491E-06   -0.25361E-05  7680   0.639E-03    0.369E-03
DAV:   5    -0.332846083267E+04   -0.73074E-06   -0.71021E-06  7296   0.292E-03
  22 F= -.33426501E+04 E0= -.33426501E+04  d E =-.579400E-03  mag=     1.0000
 BRION: g(F)=  0.752E-03 g(S)=  0.000E+00 retain N=  2 mean eig= 2.04
 eig:   0.234  3.851
 bond charge predicted
       N       E                     dE             d eps       ncg     rms          rms(c)
DAV:   1    -0.332846117007E+04   -0.33813E-03   -0.41127E-02  7296   0.223E-01    0.333E-02
DAV:   2    -0.332846122721E+04   -0.57132E-04   -0.77905E-04  7776   0.270E-02    0.247E-02
DAV:   3    -0.332846122114E+04    0.60615E-05   -0.28754E-05  7648   0.651E-03    0.126E-02
DAV:   4    -0.332846122146E+04   -0.31991E-06   -0.12482E-05  7936   0.421E-03    0.285E-03
DAV:   5    -0.332846122169E+04   -0.23097E-06   -0.23881E-06  5856   0.189E-03
  23 F= -.33426505E+04 E0= -.33426505E+04  d E =-.415621E-03  mag=     1.0000
 BRION: g(F)=  0.768E-03 g(S)=  0.000E+00 retain N=  2 mean eig= 1.12
 eig:   0.092  2.143
 bond charge predicted
       N       E                     dE             d eps       ncg     rms          rms(c)
DAV:   1    -0.332846097686E+04    0.24460E-03   -0.16340E-02  7296   0.143E-01    0.211E-02
DAV:   2    -0.332846099677E+04   -0.19910E-04   -0.29514E-04  8000   0.174E-02    0.158E-02
DAV:   3    -0.332846099417E+04    0.25991E-05   -0.12562E-05  8096   0.442E-03    0.798E-03
DAV:   4    -0.332846099442E+04   -0.24505E-06   -0.49210E-06  7680   0.273E-03
  24 F= -.33426502E+04 E0= -.33426502E+04  d E =0.244570E-03  mag=     1.0000
 BRION: g(F)=  0.628E-03 g(S)=  0.000E+00 retain N=  2 mean eig= 0.90
 eig:   0.303  1.496
 bond charge predicted
       N       E                     dE             d eps       ncg     rms          rms(c)
DAV:   1    -0.332846148126E+04   -0.48708E-03   -0.87438E-02  7296   0.327E-01    0.483E-02
DAV:   2    -0.332846158609E+04   -0.10483E-03   -0.15306E-03  7904   0.390E-02    0.357E-02
DAV:   3    -0.332846157352E+04    0.12573E-04   -0.58542E-05  8000   0.970E-03    0.181E-02
DAV:   4    -0.332846157513E+04   -0.16141E-05   -0.27079E-05  7840   0.633E-03    0.382E-03
DAV:   5    -0.332846157538E+04   -0.25076E-06   -0.63384E-06  7328   0.296E-03
  25 F= -.33426509E+04 E0= -.33426509E+04  d E =-.619716E-03  mag=     1.0000
 BRION: g(F)=  0.669E-03 g(S)=  0.000E+00 retain N=  2 mean eig= 0.60
 eig:   0.601  0.601
 bond charge predicted
       N       E                     dE             d eps       ncg     rms          rms(c)
DAV:   1    -0.332846191326E+04   -0.33813E-03   -0.58929E-02  7296   0.268E-01    0.419E-02
DAV:   2    -0.332846200438E+04   -0.91119E-04   -0.12647E-03  7712   0.338E-02    0.335E-02
DAV:   3    -0.332846199533E+04    0.90528E-05   -0.45804E-05  8640   0.806E-03    0.205E-02
DAV:   4    -0.332846199384E+04    0.14846E-05   -0.27512E-05  7488   0.632E-03    0.391E-03
DAV:   5    -0.332846199459E+04   -0.74517E-06   -0.64422E-06  7168   0.271E-03
  26 F= -.33426513E+04 E0= -.33426513E+04  d E =-.449103E-03  mag=     1.0000
 BRION: g(F)=  0.122E-02 g(S)=  0.000E+00 retain N=  2 mean eig= 0.91
 eig:   0.364  1.457
 bond charge predicted
       N       E                     dE             d eps       ncg     rms          rms(c)
DAV:   1    -0.332846198135E+04    0.12496E-04   -0.93977E-03  7296   0.961E-02    0.190E-02
DAV:   2    -0.332846201594E+04   -0.34595E-04   -0.42968E-04  8256   0.158E-02    0.190E-02
DAV:   3    -0.332846201322E+04    0.27209E-05   -0.12234E-05  7776   0.317E-03    0.143E-02
DAV:   4    -0.332846200906E+04    0.41628E-05   -0.85573E-06  6592   0.274E-03    0.464E-03
DAV:   5    -0.332846200865E+04    0.40431E-06   -0.31699E-06  5728   0.149E-03
  27 F= -.33426513E+04 E0= -.33426513E+04  d E =-.153431E-04  mag=     1.0000
 BRION: g(F)=  0.119E-02 g(S)=  0.000E+00 retain N=  2 mean eig= 1.07
 eig:   0.146  1.985
 bond charge predicted
       N       E                     dE             d eps       ncg     rms          rms(c)
DAV:   1    -0.332846228943E+04   -0.28037E-03   -0.17881E-02  7296   0.151E-01    0.230E-02
DAV:   2    -0.332846231480E+04   -0.25369E-04   -0.37201E-04  8128   0.194E-02    0.181E-02
DAV:   3    -0.332846231175E+04    0.30466E-05   -0.15828E-05  8640   0.480E-03    0.103E-02
DAV:   4    -0.332846231152E+04    0.23132E-06   -0.58314E-06  7392   0.313E-03
  28 F= -.33426516E+04 E0= -.33426516E+04  d E =-.317431E-03  mag=     1.0000
 BRION: g(F)=  0.529E-03 g(S)=  0.000E+00 retain N=  2 mean eig= 1.63
 eig:   0.180  3.078
 bond charge predicted
       N       E                     dE             d eps       ncg     rms          rms(c)
DAV:   1    -0.332846273520E+04   -0.42345E-03   -0.68153E-02  7296   0.288E-01    0.432E-02
DAV:   2    -0.332846281947E+04   -0.84272E-04   -0.12041E-03  7968   0.343E-02    0.318E-02
DAV:   3    -0.332846281069E+04    0.87874E-05   -0.44304E-05  8000   0.844E-03    0.168E-02
DAV:   4    -0.332846281239E+04   -0.17066E-05   -0.21615E-05  7680   0.577E-03    0.354E-03
DAV:   5    -0.332846281276E+04   -0.36904E-06   -0.55572E-06  6880   0.276E-03
  29 F= -.33426522E+04 E0= -.33426522E+04  d E =-.532183E-03  mag=     1.0000
 BRION: g(F)=  0.549E-03 g(S)=  0.000E+00 retain N=  3 mean eig= 1.66
 eig:   4.552  0.208  0.208
 bond charge predicted
       N       E                     dE             d eps       ncg     rms          rms(c)
DAV:   1    -0.332846304355E+04   -0.23115E-03   -0.17792E-02  7296   0.147E-01    0.226E-02
DAV:   2    -0.332846306770E+04   -0.24158E-04   -0.33837E-04  7968   0.181E-02    0.169E-02
DAV:   3    -0.332846306540E+04    0.23027E-05   -0.12239E-05  8544   0.436E-03    0.953E-03
DAV:   4    -0.332846306579E+04   -0.38836E-06   -0.60019E-06  7360   0.313E-03
  30 F= -.33426524E+04 E0= -.33426524E+04  d E =-.267795E-03  mag=     1.0000
 BRION: g(F)=  0.545E-03 g(S)=  0.000E+00 retain N=  3 mean eig= 0.71
 eig:   1.579  0.188  0.365
 bond charge predicted
       N       E                     dE             d eps       ncg     rms          rms(c)
DAV:   1    -0.332846344665E+04   -0.38125E-03   -0.68936E-02  7296   0.285E-01    0.432E-02
DAV:   2    -0.332846354109E+04   -0.94442E-04   -0.12965E-03  7744   0.344E-02    0.315E-02
DAV:   3    -0.332846353165E+04    0.94413E-05   -0.45472E-05  7744   0.815E-03    0.165E-02
DAV:   4    -0.332846353228E+04   -0.63248E-06   -0.21213E-05  7712   0.553E-03    0.372E-03
DAV:   5    -0.332846353274E+04   -0.45483E-06   -0.48120E-06  6752   0.262E-03
  31 F= -.33426529E+04 E0= -.33426529E+04  d E =-.494720E-03  mag=     1.0000
 BRION: g(F)=  0.741E-03 g(S)=  0.000E+00 retain N=  2 mean eig= 0.59
 eig:   0.081  1.094
 bond charge predicted
       N       E                     dE             d eps       ncg     rms          rms(c)
DAV:   1    -0.332846355689E+04   -0.24610E-04   -0.24825E-03  7360   0.448E-02    0.978E-03
DAV:   2    -0.332846356798E+04   -0.11091E-04   -0.12725E-04  8224   0.759E-03    0.104E-02
DAV:   3    -0.332846356746E+04    0.52655E-06   -0.29759E-06  6144   0.148E-03
  32 F= -.33426530E+04 E0= -.33426530E+04  d E =-.360079E-04  mag=     1.0000
 BRION: g(F)=  0.617E-03 g(S)=  0.000E+00 retain N=  2 mean eig= 1.87
 eig:   0.221  3.522
 bond charge predicted
       N       E                     dE             d eps       ncg     rms          rms(c)
DAV:   1    -0.332846374811E+04   -0.18013E-03   -0.10992E-02  7328   0.116E-01    0.175E-02
DAV:   2    -0.332846376293E+04   -0.14823E-04   -0.20647E-04  7872   0.141E-02    0.128E-02
DAV:   3    -0.332846376164E+04    0.12956E-05   -0.80421E-06  7648   0.346E-03    0.639E-03
DAV:   4    -0.332846376194E+04   -0.30070E-06   -0.29674E-06  6496   0.213E-03
  33 F= -.33426532E+04 E0= -.33426532E+04  d E =-.205748E-03  mag=     1.0000
 BRION: g(F)=  0.539E-03 g(S)=  0.000E+00 retain N=  2 mean eig= 0.25
 eig:   0.177  0.318
 bond charge predicted
       N       E                     dE             d eps       ncg     rms          rms(c)
DAV:   1    -0.332846406074E+04   -0.29910E-03   -0.49830E-02  7296   0.248E-01    0.382E-02
DAV:   2    -0.332846412967E+04   -0.68929E-04   -0.99527E-04  7808   0.310E-02    0.294E-02
DAV:   3    -0.332846412243E+04    0.72396E-05   -0.38563E-05  8640   0.758E-03    0.168E-02
DAV:   4    -0.332846412233E+04    0.94413E-07   -0.17692E-05  7648   0.536E-03    0.323E-03
DAV:   5    -0.332846412299E+04   -0.66275E-06   -0.47647E-06  6496   0.236E-03
  34 F= -.33426536E+04 E0= -.33426536E+04  d E =-.384268E-03  mag=     1.0000
 BRION: g(F)=  0.100E-02 g(S)=  0.000E+00 retain N=  3 mean eig= 0.34
 eig:   0.143  0.444  0.444
 bond charge predicted
       N       E                     dE             d eps       ncg     rms          rms(c)
DAV:   1    -0.332846427311E+04   -0.15077E-03   -0.71615E-03  7296   0.939E-02    0.148E-02
DAV:   2    -0.332846428710E+04   -0.13994E-04   -0.18579E-04  8096   0.129E-02    0.120E-02
DAV:   3    -0.332846428548E+04    0.16206E-05   -0.77959E-06  7296   0.305E-03    0.701E-03
DAV:   4    -0.332846428498E+04    0.49837E-06   -0.20839E-06  5824   0.194E-03
  35 F= -.33426537E+04 E0= -.33426537E+04  d E =-.167328E-03  mag=     1.0000
 BRION: g(F)=  0.521E-03 g(S)=  0.000E+00 retain N=  1 mean eig= 0.19
 eig:   0.192
 bond charge predicted
       N       E                     dE             d eps       ncg     rms          rms(c)
DAV:   1    -0.332846462421E+04   -0.33873E-03   -0.67107E-02  7296   0.284E-01    0.428E-02
DAV:   2    -0.332846471105E+04   -0.86844E-04   -0.12356E-03  7872   0.345E-02    0.314E-02
DAV:   3    -0.332846470127E+04    0.97799E-05   -0.46964E-05  8032   0.844E-03    0.167E-02
DAV:   4    -0.332846470255E+04   -0.12736E-05   -0.20298E-05  7680   0.557E-03    0.346E-03
DAV:   5    -0.332846470300E+04   -0.45926E-06   -0.48938E-06  6624   0.258E-03
  36 F= -.33426542E+04 E0= -.33426542E+04  d E =-.444059E-03  mag=     1.0000
 BRION: g(F)=  0.940E-03 g(S)=  0.000E+00 retain N=  2 mean eig= 0.20
 eig:   0.185  0.212
 bond charge predicted
       N       E                     dE             d eps       ncg     rms          rms(c)
DAV:   1    -0.332846483175E+04   -0.12920E-03   -0.49318E-03  7424   0.817E-02    0.129E-02
DAV:   2    -0.332846484063E+04   -0.88856E-05   -0.12977E-04  8096   0.116E-02    0.107E-02
DAV:   3    -0.332846483964E+04    0.99628E-06   -0.59472E-06  7488   0.281E-03
  37 F= -.33426543E+04 E0= -.33426543E+04  d E =-.139930E-03  mag=     1.0000
 BRION: g(F)=  0.488E-03 g(S)=  0.000E+00 retain N=  1 mean eig= 0.18
 eig:   0.185
 bond charge predicted
       N       E                     dE             d eps       ncg     rms          rms(c)
DAV:   1    -0.332846522100E+04   -0.38037E-03   -0.62004E-02  7296   0.272E-01    0.421E-02
DAV:   2    -0.332846529721E+04   -0.76204E-04   -0.11104E-03  7840   0.325E-02    0.306E-02
DAV:   3    -0.332846528976E+04    0.74464E-05   -0.40546E-05  8000   0.798E-03    0.163E-02
DAV:   4    -0.332846529201E+04   -0.22541E-05   -0.19406E-05  7808   0.549E-03    0.333E-03
DAV:   5    -0.332846529247E+04   -0.45879E-06   -0.50846E-06  6784   0.258E-03
  38 F= -.33426548E+04 E0= -.33426548E+04  d E =-.475750E-03  mag=     1.0000
 BRION: g(F)=  0.478E-03 g(S)=  0.000E+00 retain N=  2 mean eig= 0.49
 eig:   0.163  0.818
 bond charge predicted
       N       E                     dE             d eps       ncg     rms          rms(c)
DAV:   1    -0.332846557554E+04   -0.28353E-03   -0.37088E-02  7296   0.209E-01    0.320E-02
DAV:   2    -0.332846562561E+04   -0.50070E-04   -0.69844E-04  7744   0.254E-02    0.232E-02
DAV:   3    -0.332846562085E+04    0.47580E-05   -0.24412E-05  8160   0.606E-03    0.127E-02
DAV:   4    -0.332846562223E+04   -0.13758E-05   -0.11808E-05  7680   0.429E-03    0.264E-03
DAV:   5    -0.332846562249E+04   -0.25798E-06   -0.30273E-06  5888   0.201E-03
  39 F= -.33426551E+04 E0= -.33426551E+04  d E =-.345458E-03  mag=     1.0000
 BRION: g(F)=  0.564E-03 g(S)=  0.000E+00 retain N=  3 mean eig= 2.54
 eig:   7.112  0.162  0.346
 bond charge predicted
       N       E                     dE             d eps       ncg     rms          rms(c)
DAV:   1    -0.332846159064E+04    0.40316E-02   -0.68973E+00  7168   0.284E+00    0.437E-01
DAV:   2    -0.332847065226E+04   -0.90616E-02   -0.12742E-01  7744   0.342E-01    0.317E-01
DAV:   3    -0.332846980188E+04    0.85038E-03   -0.42930E-03  8192   0.821E-02    0.177E-01
DAV:   4    -0.332846996397E+04   -0.16208E-03   -0.22973E-03  7712   0.593E-02    0.379E-02
DAV:   5    -0.332846999549E+04   -0.31521E-04   -0.63808E-04  7712   0.281E-02    0.219E-02
DAV:   6    -0.332847000531E+04   -0.98200E-05   -0.53805E-05  8160   0.889E-03    0.122E-02
DAV:   7    -0.332847000866E+04   -0.33495E-05   -0.11629E-05  7552   0.483E-03    0.531E-03
DAV:   8    -0.332847001491E+04   -0.62496E-05   -0.39498E-06  7040   0.275E-03    0.210E-03
DAV:   9    -0.332847001664E+04   -0.17300E-05   -0.51178E-07  5408   0.114E-03    0.919E-04
DAV:  10    -0.332847001847E+04   -0.18306E-05   -0.73727E-08  4416   0.564E-04    0.434E-04
DAV:  11    -0.332847001978E+04   -0.13177E-05    0.53068E-08  4416   0.352E-04    0.271E-04
DAV:  12    -0.332847002146E+04   -0.16729E-05    0.79095E-08  4352   0.197E-04    0.176E-04
DAV:  13    -0.332847002319E+04   -0.17340E-05    0.72167E-08  4576   0.163E-04    0.126E-04
DAV:  14    -0.332847002404E+04   -0.84820E-06    0.10036E-07  4480   0.115E-04
  40 F= -.33426598E+04 E0= -.33426598E+04  d E =-.462603E-02  mag=     1.0000
 BRION: g(F)=  0.909E-03 g(S)=  0.000E+00 retain N=  2 mean eig= 0.43
 eig:   0.426  0.426
 bond charge predicted
       N       E                     dE             d eps       ncg     rms          rms(c)
DAV:   1    -0.332846044480E+04    0.95784E-02   -0.48544E+00  7168   0.239E+00    0.368E-01
DAV:   2    -0.332846686083E+04   -0.64160E-02   -0.90195E-02  7936   0.288E-01    0.268E-01
DAV:   3    -0.332846622993E+04    0.63090E-03   -0.30736E-03  8320   0.684E-02    0.150E-01
DAV:   4    -0.332846633419E+04   -0.10426E-03   -0.16325E-03  7648   0.503E-02    0.318E-02
DAV:   5    -0.332846635841E+04   -0.24220E-04   -0.46270E-04  7616   0.238E-02    0.183E-02
DAV:   6    -0.332846636421E+04   -0.58020E-05   -0.37708E-05  8096   0.754E-03    0.101E-02
DAV:   7    -0.332846636666E+04   -0.24498E-05   -0.84465E-06  7552   0.415E-03    0.439E-03
DAV:   8    -0.332846637055E+04   -0.38884E-05   -0.25683E-06  6368   0.229E-03    0.165E-03
DAV:   9    -0.332846637151E+04   -0.95437E-06   -0.31698E-07  5440   0.961E-04
  41 F= -.33426559E+04 E0= -.33426559E+04  d E =0.384305E-02  mag=     1.0000
 BRION: g(F)=  0.561E-03 g(S)=  0.000E+00 retain N=  2 mean eig= 2.44
 eig:   0.521  4.349
 bond charge predicted
       N       E                     dE             d eps       ncg     rms          rms(c)
DAV:   1    -0.332846694434E+04   -0.57379E-03   -0.68789E-01  7168   0.897E-01    0.139E-01
DAV:   2    -0.332846785195E+04   -0.90761E-03   -0.12891E-02  7904   0.108E-01    0.101E-01
DAV:   3    -0.332846777158E+04    0.80365E-04   -0.43621E-04  8160   0.259E-02    0.571E-02
DAV:   4    -0.332846779398E+04   -0.22397E-04   -0.23069E-04  7680   0.190E-02    0.119E-02
DAV:   5    -0.332846779847E+04   -0.44889E-05   -0.65141E-05  7584   0.889E-03    0.697E-03
DAV:   6    -0.332846779918E+04   -0.71141E-06   -0.50408E-06  7488   0.286E-03
  42 F= -.33426574E+04 E0= -.33426574E+04  d E =-.149280E-02  mag=     1.0000
 BRION: g(F)=  0.696E-03 g(S)=  0.000E+00 retain N=  3 mean eig= 2.13
 eig:   5.844  0.425  0.117
 bond charge predicted
       N       E                     dE             d eps       ncg     rms          rms(c)
DAV:   1    -0.332846811202E+04   -0.31355E-03   -0.47025E-02  7264   0.233E-01    0.360E-02
DAV:   2    -0.332846817980E+04   -0.67780E-04   -0.91934E-04  7680   0.285E-02    0.260E-02
DAV:   3    -0.332846817413E+04    0.56641E-05   -0.30655E-05  8032   0.672E-03    0.145E-02
DAV:   4    -0.332846817490E+04   -0.77137E-06   -0.15680E-05  7680   0.493E-03    0.321E-03
DAV:   5    -0.332846817539E+04   -0.48662E-06   -0.42251E-06  6688   0.255E-03
  43 F= -.33426578E+04 E0= -.33426578E+04  d E =-.392516E-03  mag=     1.0000
 BRION: g(F)=  0.461E-03 g(S)=  0.000E+00 retain N=  1 mean eig= 0.23
 eig:   0.233
 bond charge predicted
       N       E                     dE             d eps       ncg     rms          rms(c)
DAV:   1    -0.332846838137E+04   -0.20647E-03   -0.44025E-02  7296   0.225E-01    0.372E-02
DAV:   2    -0.332846845629E+04   -0.74921E-04   -0.10271E-03  7808   0.291E-02    0.291E-02
DAV:   3    -0.332846844966E+04    0.66344E-05   -0.34648E-05  8768   0.687E-03    0.179E-02
DAV:   4    -0.332846844982E+04   -0.15914E-06   -0.20123E-05  7232   0.520E-03    0.393E-03
DAV:   5    -0.332846845056E+04   -0.73947E-06   -0.44449E-06  6464   0.224E-03
  44 F= -.33426581E+04 E0= -.33426581E+04  d E =-.289032E-03  mag=     1.0000
 BRION: g(F)=  0.111E-02 g(S)=  0.000E+00 retain N=  2 mean eig= 0.22
 eig:   0.243  0.195
 bond charge predicted
       N       E                     dE             d eps       ncg     rms          rms(c)
DAV:   1    -0.332846859213E+04   -0.14232E-03   -0.68990E-03  7296   0.890E-02    0.149E-02
DAV:   2    -0.332846860853E+04   -0.16394E-04   -0.21266E-04  8192   0.128E-02    0.125E-02
DAV:   3    -0.332846860697E+04    0.15557E-05   -0.80421E-06  7360   0.290E-03    0.801E-03
DAV:   4    -0.332846860604E+04    0.92934E-06   -0.22900E-06  5984   0.188E-03
  45 F= -.33426583E+04 E0= -.33426583E+04  d E =-.156261E-03  mag=     1.0000
 BRION: g(F)=  0.419E-03 g(S)=  0.000E+00 retain N=  1 mean eig= 0.19
 eig:   0.185
 bond charge predicted
       N       E                     dE             d eps       ncg     rms          rms(c)
DAV:   1    -0.332846891628E+04   -0.30930E-03   -0.57404E-02  7296   0.255E-01    0.403E-02
DAV:   2    -0.332846899540E+04   -0.79123E-04   -0.11024E-03  7776   0.310E-02    0.289E-02
DAV:   3    -0.332846898813E+04    0.72734E-05   -0.36144E-05  8160   0.732E-03    0.165E-02
DAV:   4    -0.332846898950E+04   -0.13736E-05   -0.18745E-05  7616   0.540E-03    0.350E-03
DAV:   5    -0.332846899009E+04   -0.58662E-06   -0.51302E-06  6624   0.253E-03
  46 F= -.33426587E+04 E0= -.33426587E+04  d E =-.397150E-03  mag=     1.0000
 BRION: g(F)=  0.507E-03 g(S)=  0.000E+00 retain N=  2 mean eig= 0.24
 eig:   0.183  0.297
 bond charge predicted
       N       E                     dE             d eps       ncg     rms          rms(c)
DAV:   1    -0.332846908985E+04   -0.10035E-03   -0.42403E-03  7424   0.721E-02    0.117E-02
DAV:   2    -0.332846909691E+04   -0.70579E-05   -0.96162E-05  8128   0.953E-03    0.874E-03
DAV:   3    -0.332846909641E+04    0.50338E-06   -0.34751E-06  6336   0.229E-03
  47 F= -.33426588E+04 E0= -.33426588E+04  d E =-.108793E-03  mag=     1.0000
 BRION: g(F)=  0.418E-03 g(S)=  0.000E+00 retain N=  1 mean eig= 0.18
 eig:   0.175
 bond charge predicted
       N       E                     dE             d eps       ncg     rms          rms(c)
DAV:   1    -0.332846939750E+04   -0.30059E-03   -0.50215E-02  7296   0.238E-01    0.383E-02
DAV:   2    -0.332846946549E+04   -0.67995E-04   -0.95593E-04  7840   0.286E-02    0.272E-02
DAV:   3    -0.332846946010E+04    0.53882E-05   -0.31151E-05  8128   0.676E-03    0.155E-02
DAV:   4    -0.332846946229E+04   -0.21904E-05   -0.16889E-05  7680   0.503E-03    0.338E-03
DAV:   5    -0.332846946271E+04   -0.41700E-06   -0.45258E-06  6432   0.237E-03
  48 F= -.33426591E+04 E0= -.33426591E+04  d E =-.377834E-03  mag=     1.0000
 BRION: g(F)=  0.410E-03 g(S)=  0.000E+00 retain N=  2 mean eig= 0.35
 eig:   0.171  0.528
 bond charge predicted
       N       E                     dE             d eps       ncg     rms          rms(c)
DAV:   1    -0.332846964258E+04   -0.18029E-03   -0.17052E-02  7296   0.138E-01    0.222E-02
DAV:   2    -0.332846966859E+04   -0.26012E-04   -0.35022E-04  7872   0.171E-02    0.157E-02
DAV:   3    -0.332846966633E+04    0.22640E-05   -0.11127E-05  8032   0.394E-03    0.886E-03
DAV:   4    -0.332846966640E+04   -0.74040E-07   -0.51476E-06  7104   0.283E-03
  49 F= -.33426593E+04 E0= -.33426593E+04  d E =-.208453E-03  mag=     1.0000
 BRION: g(F)=  0.436E-03 g(S)=  0.000E+00 retain N=  3 mean eig= 1.55
 eig:   3.513  0.173  0.972
 bond charge predicted
       N       E                     dE             d eps       ncg     rms          rms(c)
DAV:   1    -0.332846939128E+04    0.27504E-03   -0.16740E+00  7168   0.137E+00    0.220E-01
DAV:   2    -0.332847177787E+04   -0.23866E-02   -0.33072E-02  7648   0.167E-01    0.158E-01
DAV:   3    -0.332847158762E+04    0.19025E-03   -0.10271E-03  8032   0.392E-02    0.922E-02
DAV:   4    -0.332847164412E+04   -0.56505E-04   -0.60063E-04  7616   0.297E-02    0.215E-02
DAV:   5    -0.332847165852E+04   -0.14397E-04   -0.16250E-04  7776   0.139E-02    0.114E-02
DAV:   6    -0.332847166303E+04   -0.45159E-05   -0.12711E-05  8128   0.422E-03    0.678E-03
DAV:   7    -0.332847166464E+04   -0.16030E-05   -0.29884E-06  6400   0.244E-03    0.325E-03
DAV:   8    -0.332847166649E+04   -0.18564E-05   -0.11685E-06  5568   0.148E-03    0.102E-03
DAV:   9    -0.332847166717E+04   -0.67882E-06   -0.13033E-07  4736   0.641E-04
  50 F= -.33426614E+04 E0= -.33426614E+04  d E =-.206166E-02  mag=     1.0000
 BRION: g(F)=  0.105E-02 g(S)=  0.000E+00 retain N=  2 mean eig= 0.64
 eig:   0.199  1.081
 bond charge predicted
       N       E                     dE             d eps       ncg     rms          rms(c)
DAV:   1    -0.332846854780E+04    0.31187E-02   -0.11022E+00  7168   0.111E+00    0.179E-01
DAV:   2    -0.332847013484E+04   -0.15870E-02   -0.21982E-02  7904   0.136E-01    0.129E-01
DAV:   3    -0.332847000059E+04    0.13425E-03   -0.68301E-04  8224   0.316E-02    0.754E-02
DAV:   4    -0.332847004159E+04   -0.41001E-04   -0.38977E-04  7584   0.241E-02    0.167E-02
DAV:   5    -0.332847005163E+04   -0.10046E-04   -0.10550E-04  7712   0.112E-02    0.902E-03
DAV:   6    -0.332847005368E+04   -0.20497E-05   -0.80270E-06  7776   0.354E-03    0.523E-03
DAV:   7    -0.332847005466E+04   -0.97975E-06   -0.21551E-06  6112   0.217E-03
  51 F= -.33426597E+04 E0= -.33426597E+04  d E =0.166129E-02  mag=     1.0000
 BRION: g(F)=  0.501E-03 g(S)=  0.000E+00 retain N=  1 mean eig= 0.14
 eig:   0.136
 bond charge predicted
       N       E                     dE             d eps       ncg     rms          rms(c)
DAV:   1    -0.332847037275E+04   -0.31907E-03   -0.22244E-01  7168   0.503E-01    0.793E-02
DAV:   2    -0.332847068554E+04   -0.31278E-03   -0.43865E-03  7808   0.620E-02    0.567E-02
DAV:   3    -0.332847065905E+04    0.26490E-04   -0.14968E-04  8064   0.146E-02    0.322E-02
DAV:   4    -0.332847066353E+04   -0.44889E-05   -0.69134E-05  7616   0.103E-02    0.693E-03
DAV:   5    -0.332847066506E+04   -0.15289E-05   -0.19009E-05  7680   0.483E-03    0.379E-03
DAV:   6    -0.332847066556E+04   -0.49209E-06   -0.13031E-06  5536   0.157E-03
  52 F= -.33426604E+04 E0= -.33426604E+04  d E =-.628999E-03  mag=     1.0000
 BRION: g(F)=  0.182E-02 g(S)=  0.000E+00 retain N=  2 mean eig= 0.17
 eig:   0.139  0.204
 bond charge predicted
       N       E                     dE             d eps       ncg     rms          rms(c)
DAV:   1    -0.332847087023E+04   -0.20516E-03   -0.96902E-03  7424   0.117E-01    0.184E-02
DAV:   2    -0.332847088798E+04   -0.17753E-04   -0.26823E-04  8128   0.170E-02    0.155E-02
DAV:   3    -0.332847088576E+04    0.22225E-05   -0.12849E-05  8480   0.407E-03    0.948E-03
DAV:   4    -0.332847088474E+04    0.10136E-05   -0.31117E-06  6176   0.229E-03    0.297E-03
DAV:   5    -0.332847088494E+04   -0.19372E-06   -0.10544E-06  5280   0.126E-03
  53 F= -.33426606E+04 E0= -.33426606E+04  d E =-.223176E-03  mag=     1.0000
 BRION: g(F)=  0.377E-03 g(S)=  0.000E+00 retain N=  1 mean eig= 0.18
 eig:   0.183
 bond charge predicted
       N       E                     dE             d eps       ncg     rms          rms(c)
DAV:   1    -0.332847117031E+04   -0.28557E-03   -0.52053E-02  7296   0.240E-01    0.385E-02
DAV:   2    -0.332847124440E+04   -0.74089E-04   -0.10248E-03  7808   0.293E-02    0.273E-02
DAV:   3    -0.332847123822E+04    0.61776E-05   -0.32105E-05  8224   0.682E-03    0.155E-02
DAV:   4    -0.332847123940E+04   -0.11814E-05   -0.16522E-05  7744   0.502E-03    0.329E-03
DAV:   5    -0.332847124000E+04   -0.59442E-06   -0.44189E-06  6528   0.233E-03
  54 F= -.33426610E+04 E0= -.33426610E+04  d E =-.362828E-03  mag=     1.0000
 BRION: g(F)=  0.399E-03 g(S)=  0.000E+00 retain N=  2 mean eig= 0.32
 eig:   0.206  0.429
 bond charge predicted
       N       E                     dE             d eps       ncg     rms          rms(c)
DAV:   1    -0.332847135773E+04   -0.11833E-03   -0.71808E-03  7360   0.890E-02    0.151E-02
DAV:   2    -0.332847136973E+04   -0.12003E-04   -0.15904E-04  7808   0.114E-02    0.109E-02
DAV:   3    -0.332847136903E+04    0.69872E-06   -0.51399E-06  6912   0.274E-03
  55 F= -.33426611E+04 E0= -.33426611E+04  d E =-.131311E-03  mag=     1.0000
 BRION: g(F)=  0.383E-03 g(S)=  0.000E+00 retain N=  1 mean eig= 0.15
 eig:   0.153
 bond charge predicted
       N       E                     dE             d eps       ncg     rms          rms(c)
DAV:   1    -0.332847162180E+04   -0.25207E-03   -0.39084E-02  7296   0.207E-01    0.338E-02
DAV:   2    -0.332847167556E+04   -0.53753E-04   -0.74583E-04  7840   0.248E-02    0.234E-02
DAV:   3    -0.332847167177E+04    0.37847E-05   -0.23470E-05  8192   0.575E-03    0.132E-02
DAV:   4    -0.332847167354E+04   -0.17700E-05   -0.12198E-05  7776   0.424E-03    0.279E-03
DAV:   5    -0.332847167381E+04   -0.27195E-06   -0.31951E-06  6048   0.200E-03
  56 F= -.33426614E+04 E0= -.33426614E+04  d E =-.311123E-03  mag=     1.0000
 BRION: g(F)=  0.371E-03 g(S)=  0.000E+00 retain N=  2 mean eig= 0.36
 eig:   0.357  0.357
 bond charge predicted
       N       E                     dE             d eps       ncg     rms          rms(c)
DAV:   1    -0.332847182086E+04   -0.14732E-03   -0.11748E-02  7296   0.114E-01    0.193E-02
DAV:   2    -0.332847184009E+04   -0.19231E-04   -0.26254E-04  8096   0.145E-02    0.141E-02
DAV:   3    -0.332847183853E+04    0.15685E-05   -0.78211E-06  7808   0.339E-03    0.845E-03
DAV:   4    -0.332847183861E+04   -0.85100E-07   -0.44469E-06  6848   0.254E-03
  57 F= -.33426616E+04 E0= -.33426616E+04  d E =-.166667E-03  mag=     1.0000
 BRION: g(F)=  0.399E-03 g(S)=  0.000E+00 retain N=  1 mean eig= 0.19
 eig:   0.193
 bond charge predicted
       N       E                     dE             d eps       ncg     rms          rms(c)
DAV:   1    -0.332847203627E+04   -0.19775E-03   -0.26469E-02  7296   0.169E-01    0.273E-02
DAV:   2    -0.332847207804E+04   -0.41766E-04   -0.55049E-04  7648   0.207E-02    0.191E-02
DAV:   3    -0.332847207493E+04    0.31126E-05   -0.17127E-05  8000   0.469E-03    0.110E-02
DAV:   4    -0.332847207502E+04   -0.92434E-07   -0.80481E-06  7616   0.346E-03
  58 F= -.33426618E+04 E0= -.33426618E+04  d E =-.240844E-03  mag=     1.0000
 BRION: g(F)=  0.425E-03 g(S)=  0.000E+00 retain N=  2 mean eig= 1.17
 eig:   0.061  2.274
 bond charge predicted
       N       E                     dE             d eps       ncg     rms          rms(c)
DAV:   1    -0.332847220129E+04   -0.12636E-03   -0.90007E-03  7296   0.991E-02    0.173E-02
DAV:   2    -0.332847221776E+04   -0.16469E-04   -0.21586E-04  7968   0.128E-02    0.130E-02
DAV:   3    -0.332847221668E+04    0.10787E-05   -0.69220E-06  7168   0.312E-03    0.799E-03
DAV:   4    -0.332847221697E+04   -0.28801E-06   -0.46716E-06  6624   0.239E-03
  59 F= -.33426620E+04 E0= -.33426620E+04  d E =-.144896E-03  mag=     1.0000
 BRION: g(F)=  0.358E-03 g(S)=  0.000E+00 retain N=  2 mean eig= 3.53
 eig:   0.256  6.798
 bond charge predicted
       N       E                     dE             d eps       ncg     rms          rms(c)
DAV:   1    -0.332847239823E+04   -0.18155E-03   -0.18097E-02  7360   0.141E-01    0.228E-02
DAV:   2    -0.332847242434E+04   -0.26110E-04   -0.35579E-04  7776   0.172E-02    0.160E-02
DAV:   3    -0.332847242271E+04    0.16292E-05   -0.11016E-05  7808   0.401E-03    0.918E-03
DAV:   4    -0.332847242342E+04   -0.70175E-06   -0.55428E-06  7136   0.295E-03
  60 F= -.33426622E+04 E0= -.33426622E+04  d E =-.210365E-03  mag=     1.0000
 BRION: g(F)=  0.335E-03 g(S)=  0.000E+00 retain N=  2 mean eig= 0.25
 eig:   0.246  0.246
 bond charge predicted
       N       E                     dE             d eps       ncg     rms          rms(c)
DAV:   1    -0.332847260980E+04   -0.18709E-03   -0.20557E-02  7296   0.151E-01    0.246E-02
DAV:   2    -0.332847264024E+04   -0.30434E-04   -0.41581E-04  7744   0.186E-02    0.176E-02
DAV:   3    -0.332847263826E+04    0.19743E-05   -0.12744E-05  8000   0.434E-03    0.103E-02
DAV:   4    -0.332847263904E+04   -0.77114E-06   -0.68046E-06  7072   0.323E-03
  61 F= -.33426624E+04 E0= -.33426624E+04  d E =-.219413E-03  mag=     1.0000
 BRION: g(F)=  0.363E-03 g(S)=  0.000E+00 retain N=  3 mean eig= 1.29
 eig:   3.597  0.144  0.144
 bond charge predicted
       N       E                     dE             d eps       ncg     rms          rms(c)
DAV:   1    -0.332847293006E+04   -0.29180E-03   -0.71468E-02  7232   0.277E-01    0.448E-02
DAV:   2    -0.332847303505E+04   -0.10499E-03   -0.14150E-03  7712   0.336E-02    0.311E-02
DAV:   3    -0.332847302778E+04    0.72732E-05   -0.42212E-05  8096   0.767E-03    0.180E-02
DAV:   4    -0.332847303025E+04   -0.24732E-05   -0.23703E-05  7744   0.587E-03    0.400E-03
DAV:   5    -0.332847303079E+04   -0.53609E-06   -0.63853E-06  7008   0.283E-03
  62 F= -.33426628E+04 E0= -.33426628E+04  d E =-.397312E-03  mag=     1.0000
 BRION: g(F)=  0.404E-03 g(S)=  0.000E+00 retain N=  2 mean eig= 0.43
 eig:   0.127  0.735
 bond charge predicted
       N       E                     dE             d eps       ncg     rms          rms(c)
DAV:   1    -0.332847286139E+04    0.16887E-03   -0.12250E-02  7296   0.115E-01    0.192E-02
DAV:   2    -0.332847287874E+04   -0.17352E-04   -0.25321E-04  7712   0.143E-02    0.136E-02
DAV:   3    -0.332847287683E+04    0.19131E-05   -0.84112E-06  7552   0.345E-03    0.794E-03
DAV:   4    -0.332847287664E+04    0.18720E-06   -0.54593E-06  7040   0.266E-03
  63 F= -.33426626E+04 E0= -.33426626E+04  d E =0.156248E-03  mag=     1.0000
 BRION: g(F)=  0.428E-03 g(S)=  0.000E+00 retain N=  3 mean eig= 1.04
 eig:   2.418  0.357  0.357
 bond charge predicted
       N       E                     dE             d eps       ncg     rms          rms(c)
DAV:   1    -0.332847287357E+04    0.32601E-05   -0.69988E-06  7136   0.285E-03    0.116E-03
DAV:   2    -0.332847287382E+04   -0.25309E-06   -0.25941E-07  5152   0.659E-04
  64 F= -.33426626E+04 E0= -.33426626E+04  d E =0.281872E-05  mag=     1.0000
 BRION: g(F)=  0.411E-03 g(S)=  0.000E+00 retain N=  4 mean eig= 1.80
 eig:   5.441  0.772  0.772  0.209
 bond charge predicted
       N       E                     dE             d eps       ncg     rms          rms(c)
DAV:   1    -0.332847197493E+04    0.89864E-03   -0.17907E-01  7168   0.402E-01    0.708E-02
DAV:   2    -0.332847225456E+04   -0.27963E-03   -0.37198E-03  7808   0.492E-02    0.460E-02
DAV:   3    -0.332847224331E+04    0.11250E-04   -0.10137E-04  8192   0.105E-02    0.268E-02
DAV:   4    -0.332847225575E+04   -0.12437E-04   -0.49571E-05  7744   0.797E-03    0.584E-03
DAV:   5    -0.332847225743E+04   -0.16820E-05   -0.13236E-05  7584   0.364E-03    0.339E-03
DAV:   6    -0.332847225791E+04   -0.48371E-06   -0.74820E-07  5280   0.111E-03
  65 F= -.33426620E+04 E0= -.33426620E+04  d E =0.596322E-03  mag=     1.0000
 BRION: g(F)=  0.508E-03 g(S)=  0.000E+00 retain N=  5 mean eig= 1.82
 eig:   6.654  1.205  0.514  0.514  0.216
 bond charge predicted
       N       E                     dE             d eps       ncg     rms          rms(c)
DAV:   1    -0.332847216959E+04    0.87840E-04   -0.57115E-03  7296   0.682E-02    0.136E-02
DAV:   2    -0.332847218086E+04   -0.11266E-04   -0.14252E-04  8032   0.901E-03    0.867E-03
DAV:   3    -0.332847218069E+04    0.16275E-06   -0.36538E-06  6304   0.195E-03
  66 F= -.33426620E+04 E0= -.33426620E+04  d E =0.715391E-04  mag=     1.0000
 BRION: g(F)=  0.405E-03 g(S)=  0.000E+00 retain N=  5 mean eig= 1.98
 eig:   7.394  1.336  0.518  0.518  0.147
 bond charge predicted
       N       E                     dE             d eps       ncg     rms          rms(c)
DAV:   1    -0.332847181939E+04    0.36147E-03   -0.57414E-02  7264   0.173E-01    0.410E-02
DAV:   2    -0.332847192092E+04   -0.10153E-03   -0.13079E-03  7936   0.209E-02    0.243E-02
DAV:   3    -0.332847192037E+04    0.54599E-06   -0.29473E-05  8128   0.427E-03    0.145E-02
DAV:   4    -0.332847192981E+04   -0.94351E-05   -0.11794E-05  6912   0.307E-03    0.382E-03
DAV:   5    -0.332847193093E+04   -0.11247E-05   -0.26691E-06  5760   0.150E-03    0.198E-03
DAV:   6    -0.332847193122E+04   -0.28813E-06   -0.15116E-07  5312   0.541E-04
  67 F= -.33426617E+04 E0= -.33426617E+04  d E =0.217932E-03  mag=     1.0000
 BRION: g(F)=  0.498E-03 g(S)=  0.000E+00 retain N=  6 mean eig= 1.74
 eig:   7.338  1.660  0.425  0.425  0.141  0.451
 bond charge predicted
       N       E                     dE             d eps       ncg     rms          rms(c)
DAV:   1    -0.332847187194E+04    0.58989E-04   -0.46853E-03  7328   0.540E-02    0.121E-02
DAV:   2    -0.332847188031E+04   -0.83658E-05   -0.11131E-04  7968   0.702E-03    0.717E-03
DAV:   3    -0.332847188008E+04    0.22713E-06   -0.29449E-06  6016   0.158E-03
  68 F= -.33426617E+04 E0= -.33426617E+04  d E =0.403345E-04  mag=     1.0000
 BRION: g(F)=  0.413E-03 g(S)=  0.000E+00 retain N=  1 mean eig= 0.20
 eig:   0.202
 bond charge predicted
       N       E                     dE             d eps       ncg     rms          rms(c)
DAV:   1    -0.332847210732E+04   -0.22701E-03   -0.66747E-02  7232   0.261E-01    0.455E-02
DAV:   2    -0.332847221069E+04   -0.10338E-03   -0.14423E-03  7712   0.329E-02    0.307E-02
DAV:   3    -0.332847220077E+04    0.99255E-05   -0.48893E-05  8160   0.770E-03    0.176E-02
DAV:   4    -0.332847219976E+04    0.10048E-05   -0.27918E-05  7648   0.549E-03    0.471E-03
DAV:   5    -0.332847220016E+04   -0.39442E-06   -0.65191E-06  6912   0.252E-03
  69 F= -.33426620E+04 E0= -.33426620E+04  d E =-.314819E-03  mag=     1.0000
 BRION: g(F)=  0.725E-03 g(S)=  0.000E+00 retain N=  2 mean eig= 0.24
 eig:   0.201  0.275
 bond charge predicted
       N       E                     dE             d eps       ncg     rms          rms(c)
DAV:   1    -0.332847232586E+04   -0.12610E-03   -0.86384E-03  7360   0.931E-02    0.203E-02
DAV:   2    -0.332847234490E+04   -0.19036E-04   -0.26870E-04  7968   0.136E-02    0.137E-02
DAV:   3    -0.332847234291E+04    0.19852E-05   -0.10863E-05  7872   0.350E-03    0.761E-03
DAV:   4    -0.332847234209E+04    0.81828E-06   -0.34258E-06  6016   0.207E-03
  70 F= -.33426622E+04 E0= -.33426622E+04  d E =-.146711E-03  mag=     1.0000
 BRION: g(F)=  0.351E-03 g(S)=  0.000E+00 retain N=  1 mean eig= 0.25
 eig:   0.248
 bond charge predicted
       N       E                     dE             d eps       ncg     rms          rms(c)
DAV:   1    -0.332847259168E+04   -0.24877E-03   -0.47197E-02  7392   0.227E-01    0.363E-02
DAV:   2    -0.332847265974E+04   -0.68060E-04   -0.92735E-04  7840   0.277E-02    0.256E-02
DAV:   3    -0.332847265441E+04    0.53295E-05   -0.28756E-05  8192   0.637E-03    0.146E-02
DAV:   4    -0.332847265595E+04   -0.15356E-05   -0.14773E-05  7776   0.474E-03    0.307E-03
DAV:   5    -0.332847265652E+04   -0.57346E-06   -0.39687E-06  6400   0.221E-03
  71 F= -.33426625E+04 E0= -.33426625E+04  d E =-.319329E-03  mag=     1.0000
 BRION: g(F)=  0.436E-03 g(S)=  0.000E+00 retain N=  2 mean eig= 0.12
 eig:   0.122  0.122
 bond charge predicted
       N       E                     dE             d eps       ncg     rms          rms(c)
DAV:   1    -0.332847274209E+04   -0.86137E-04   -0.36578E-03  7360   0.644E-02    0.111E-02
DAV:   2    -0.332847274876E+04   -0.66693E-05   -0.87849E-05  7840   0.858E-03    0.805E-03
DAV:   3    -0.332847274842E+04    0.33365E-06   -0.29951E-06  6176   0.206E-03
  72 F= -.33426626E+04 E0= -.33426626E+04  d E =-.912239E-04  mag=     1.0000
 BRION: g(F)=  0.341E-03 g(S)=  0.000E+00 retain N=  1 mean eig= 0.17
 eig:   0.173
 bond charge predicted
       N       E                     dE             d eps       ncg     rms          rms(c)
DAV:   1    -0.332847300582E+04   -0.25707E-03   -0.46229E-02  7232   0.223E-01    0.364E-02
DAV:   2    -0.332847307047E+04   -0.64644E-04   -0.89205E-04  7808   0.270E-02    0.254E-02
DAV:   3    -0.332847306598E+04    0.44882E-05   -0.27019E-05  8160   0.622E-03    0.144E-02
DAV:   4    -0.332847306808E+04   -0.20998E-05   -0.14487E-05  7776   0.467E-03    0.297E-03
DAV:   5    -0.332847306845E+04   -0.37486E-06   -0.38786E-06  6176   0.217E-03
  73 F= -.33426629E+04 E0= -.33426629E+04  d E =-.322986E-03  mag=     1.0000
 BRION: g(F)=  0.333E-03 g(S)=  0.000E+00 retain N=  2 mean eig= 0.61
 eig:   0.106  1.104
 bond charge predicted
       N       E                     dE             d eps       ncg     rms          rms(c)
DAV:   1    -0.332847328105E+04   -0.21297E-03   -0.33379E-02  7232   0.190E-01    0.314E-02
DAV:   2    -0.332847333237E+04   -0.51322E-04   -0.69400E-04  7744   0.236E-02    0.223E-02
DAV:   3    -0.332847332881E+04    0.35590E-05   -0.20208E-05  8320   0.540E-03    0.132E-02
DAV:   4    -0.332847333023E+04   -0.14214E-05   -0.11422E-05  7296   0.411E-03    0.287E-03
DAV:   5    -0.332847333068E+04   -0.45041E-06   -0.28466E-06  6048   0.186E-03
  74 F= -.33426632E+04 E0= -.33426632E+04  d E =-.262859E-03  mag=     1.0000
 BRION: g(F)=  0.420E-03 g(S)=  0.000E+00 retain N=  2 mean eig= 2.98
 eig:   0.592  5.362
 bond charge predicted
       N       E                     dE             d eps       ncg     rms          rms(c)
DAV:   1    -0.332847343710E+04   -0.10687E-03   -0.80763E-01  7168   0.925E-01    0.149E-01
DAV:   2    -0.332847463025E+04   -0.11931E-02   -0.16027E-02  7520   0.113E-01    0.104E-01
DAV:   3    -0.332847454830E+04    0.81946E-04   -0.45884E-04  8064   0.255E-02    0.602E-02
DAV:   4    -0.332847457546E+04   -0.27162E-04   -0.26061E-04  7744   0.196E-02    0.133E-02
DAV:   5    -0.332847458349E+04   -0.80257E-05   -0.71613E-05  7648   0.921E-03    0.762E-03
DAV:   6    -0.332847458574E+04   -0.22505E-05   -0.52468E-06  7200   0.278E-03    0.449E-03
DAV:   7    -0.332847458664E+04   -0.89814E-06   -0.11629E-06  5280   0.157E-03
  75 F= -.33426644E+04 E0= -.33426644E+04  d E =-.125909E-02  mag=     1.0000
 BRION: g(F)=  0.826E-03 g(S)=  0.000E+00 retain N=  2 mean eig= 0.32
 eig:   0.315  0.315
 bond charge predicted
       N       E                     dE             d eps       ncg     rms          rms(c)
DAV:   1    -0.332847287052E+04    0.17152E-02   -0.51458E-01  7168   0.739E-01    0.119E-01
DAV:   2    -0.332847363140E+04   -0.76088E-03   -0.10215E-02  7776   0.898E-02    0.834E-02
DAV:   3    -0.332847357840E+04    0.53004E-04   -0.29385E-04  8224   0.202E-02    0.483E-02
DAV:   4    -0.332847359854E+04   -0.20142E-04   -0.16459E-04  7776   0.157E-02    0.101E-02
DAV:   5    -0.332847360294E+04   -0.43991E-05   -0.45572E-05  7680   0.735E-03    0.593E-03
DAV:   6    -0.332847360405E+04   -0.11155E-05   -0.31559E-06  6464   0.228E-03    0.347E-03
DAV:   7    -0.332847360454E+04   -0.49255E-06   -0.81976E-07  5152   0.139E-03
  76 F= -.33426634E+04 E0= -.33426634E+04  d E =0.984293E-03  mag=     1.0000
 BRION: g(F)=  0.325E-03 g(S)=  0.000E+00 retain N=  1 mean eig= 0.38
 eig:   0.377
 bond charge predicted
       N       E                     dE             d eps       ncg     rms          rms(c)
DAV:   1    -0.332847388886E+04   -0.28481E-03   -0.68577E-02  7168   0.271E-01    0.435E-02
DAV:   2    -0.332847398772E+04   -0.98855E-04   -0.13450E-03  7776   0.328E-02    0.303E-02
DAV:   3    -0.332847398136E+04    0.63546E-05   -0.39290E-05  8224   0.743E-03    0.175E-02
DAV:   4    -0.332847398447E+04   -0.31126E-05   -0.21687E-05  7808   0.571E-03    0.360E-03
DAV:   5    -0.332847398495E+04   -0.47509E-06   -0.59214E-06  6688   0.268E-03
  77 F= -.33426638E+04 E0= -.33426638E+04  d E =-.380780E-03  mag=     1.0000
 BRION: g(F)=  0.349E-03 g(S)=  0.000E+00 retain N=  2 mean eig= 0.37
 eig:   0.182  0.556
 bond charge predicted
       N       E                     dE             d eps       ncg     rms          rms(c)
DAV:   1    -0.332847409026E+04   -0.10579E-03   -0.66082E-03  7296   0.848E-02    0.145E-02
DAV:   2    -0.332847410193E+04   -0.11673E-04   -0.15407E-04  7936   0.109E-02    0.107E-02
DAV:   3    -0.332847410118E+04    0.75495E-06   -0.42150E-06  6816   0.251E-03
  78 F= -.33426639E+04 E0= -.33426639E+04  d E =-.116819E-03  mag=     1.0000
 BRION: g(F)=  0.339E-03 g(S)=  0.000E+00 retain N=  1 mean eig= 0.14
 eig:   0.139
 bond charge predicted
       N       E                     dE             d eps       ncg     rms          rms(c)
DAV:   1    -0.332847431572E+04   -0.21378E-03   -0.32648E-02  7232   0.186E-01    0.307E-02
DAV:   2    -0.332847436250E+04   -0.46779E-04   -0.63649E-04  7744   0.223E-02    0.211E-02
DAV:   3    -0.332847435959E+04    0.29104E-05   -0.18951E-05  8160   0.507E-03    0.119E-02
DAV:   4    -0.332847436098E+04   -0.13880E-05   -0.96985E-06  7680   0.378E-03    0.255E-03
DAV:   5    -0.332847436126E+04   -0.28510E-06   -0.25475E-06  5888   0.181E-03
  79 F= -.33426642E+04 E0= -.33426642E+04  d E =-.259538E-03  mag=     1.0000
 BRION: g(F)=  0.342E-03 g(S)=  0.000E+00 retain N=  2 mean eig= 0.30
 eig:   0.302  0.302
 bond charge predicted
       N       E                     dE             d eps       ncg     rms          rms(c)
DAV:   1    -0.332847444970E+04   -0.88727E-04   -0.50512E-03  7296   0.725E-02    0.129E-02
DAV:   2    -0.332847445976E+04   -0.10058E-04   -0.13038E-04  7744   0.951E-03    0.984E-03
DAV:   3    -0.332847445918E+04    0.58068E-06   -0.35642E-06  6624   0.219E-03
  80 F= -.33426643E+04 E0= -.33426643E+04  d E =-.968218E-04  mag=     1.0000
 BRION: g(F)=  0.354E-03 g(S)=  0.000E+00 retain N=  1 mean eig= 0.13
 eig:   0.134
 bond charge predicted
       N       E                     dE             d eps       ncg     rms          rms(c)
DAV:   1    -0.332847465241E+04   -0.19265E-03   -0.33739E-02  7168   0.188E-01    0.312E-02
DAV:   2    -0.332847470443E+04   -0.52022E-04   -0.69525E-04  7648   0.229E-02    0.215E-02
DAV:   3    -0.332847470106E+04    0.33678E-05   -0.21418E-05  8128   0.512E-03    0.123E-02
DAV:   4    -0.332847470207E+04   -0.10086E-05   -0.10340E-05  7648   0.384E-03    0.282E-03
DAV:   5    -0.332847470226E+04   -0.19127E-06   -0.26118E-06  6016   0.179E-03
  81 F= -.33426645E+04 E0= -.33426645E+04  d E =-.240575E-03  mag=     1.0000
 BRION: g(F)=  0.485E-03 g(S)=  0.000E+00 retain N=  2 mean eig= 0.09
 eig:   0.030  0.153
 bond charge predicted
       N       E                     dE             d eps       ncg     rms          rms(c)
DAV:   1    -0.332847477151E+04   -0.69442E-04   -0.27790E-03  7360   0.561E-02    0.986E-03
DAV:   2    -0.332847477846E+04   -0.69478E-05   -0.88587E-05  7968   0.805E-03    0.858E-03
DAV:   3    -0.332847477795E+04    0.51584E-06   -0.25957E-06  6272   0.181E-03
  82 F= -.33426646E+04 E0= -.33426646E+04  d E =-.765030E-04  mag=     1.0000
 BRION: g(F)=  0.316E-03 g(S)=  0.000E+00 retain N=  1 mean eig= 0.17
 eig:   0.173
 bond charge predicted
       N       E                     dE             d eps       ncg     rms          rms(c)
DAV:   1    -0.332847500338E+04   -0.22491E-03   -0.44218E-02  7168   0.216E-01    0.354E-02
DAV:   2    -0.332847506878E+04   -0.65402E-04   -0.88411E-04  7744   0.262E-02    0.245E-02
DAV:   3    -0.332847506424E+04    0.45379E-05   -0.26135E-05  8160   0.591E-03    0.138E-02
DAV:   4    -0.332847506552E+04   -0.12760E-05   -0.13285E-05  7776   0.444E-03    0.289E-03
DAV:   5    -0.332847506601E+04   -0.49570E-06   -0.35380E-06  6240   0.212E-03
 soft stop encountered!  aborting job ...
  83 F= -.33426649E+04 E0= -.33426649E+04  d E =-.287497E-03  mag=     1.0000
 BRION: g(F)=  0.389E-03 g(S)=  0.000E+00 retain N=  2 mean eig= 0.23
 eig:   0.232  0.232
 deleting file STOPCAR
 PROFILE, used timers:     329
