 running  256 mpi-ranks, with    1 threads/rank, on    7 nodes
 distrk:  each k-point on  128 cores,    2 groups
 distr:  one band on    4 cores,   32 groups
 vasp.6.4.1 05Apr23 (build May 18 2023 13:19:41) complex                         
 POSCAR found type information on POSCAR C S O H 
 POSCAR found :  4 types and     368 ions
 Reading from existing POTCAR
 scaLAPACK will be used
 Reading from existing POTCAR
 -----------------------------------------------------------------------------
|                                                                             |
|               ----> ADVICE to this user running VASP <----                  |
|                                                                             |
|     You have a (more or less) 'large supercell' and for larger cells it     |
|     might be more efficient to use real-space projection operators.         |
|     Therefore, try LREAL= Auto in the INCAR file.                           |
|     Mind: If you want to do very accurate calculations, keep the            |
|     reciprocal projection scheme (i.e. LREAL=.FALSE.).                      |
|                                                                             |
 -----------------------------------------------------------------------------

 LDA part: xc-table for Pade appr. of Perdew
 POSCAR, INCAR and KPOINTS ok, starting setup
 FFT: planning ... GRIDC
 FFT: planning ... GRID_SOFT
 FFT: planning ... GRID
 WAVECAR not read
 charge-density read from file: 01_AOPT                                 
 magnetization density read from file 1
 WARNING: random wavefunctions but no delay for mixing, default for NELMDL
 entering main loop
       N       E                     dE             d eps       ncg     rms          rms(c)
DAV:   1     0.113535049278E+05    0.11354E+05   -0.41744E+05  8576   0.939E+02
DAV:   2     0.408799977720E+03   -0.10945E+05   -0.10190E+05 11296   0.213E+02
DAV:   3    -0.302103439649E+04   -0.34298E+04   -0.32746E+04  9216   0.116E+02
DAV:   4    -0.331732618574E+04   -0.29629E+03   -0.28793E+03  8992   0.389E+01
DAV:   5    -0.332822812611E+04   -0.10902E+02   -0.10669E+02 10240   0.696E+00    0.134E-01
DAV:   6    -0.332849146301E+04   -0.26334E+00   -0.26022E+00  9440   0.106E+00    0.855E-02
DAV:   7    -0.332850206808E+04   -0.10605E-01   -0.10590E-01  9984   0.212E-01    0.525E-02
DAV:   8    -0.332850258649E+04   -0.51842E-03   -0.56590E-03  9536   0.430E-02    0.377E-02
DAV:   9    -0.332850258313E+04    0.33663E-05   -0.15483E-04  9344   0.913E-03    0.309E-02
DAV:  10    -0.332850256027E+04    0.22851E-04   -0.19057E-05  8032   0.452E-03    0.207E-02
DAV:  11    -0.332850254517E+04    0.15103E-04   -0.10192E-05  8160   0.338E-03    0.124E-02
DAV:  12    -0.332850253661E+04    0.85655E-05   -0.24820E-06  6688   0.180E-03    0.802E-03
DAV:  13    -0.332850252460E+04    0.12011E-04   -0.22838E-06  6592   0.172E-03    0.296E-03
DAV:  14    -0.332850251998E+04    0.46127E-05   -0.70209E-07  5728   0.982E-04    0.105E-03
DAV:  15    -0.332850251878E+04    0.12062E-05   -0.94309E-08  4896   0.525E-04    0.458E-04
DAV:  16    -0.332850251844E+04    0.33132E-06    0.19152E-08  4960   0.325E-04
   1 F= -.33426899E+04 E0= -.33426899E+04  d E =-.334269E+04  mag=     1.0000
 BRION: g(F)=  0.227E-04 g(S)=  0.000E+00
 bond charge predicted
       N       E                     dE             d eps       ncg     rms          rms(c)
DAV:   1    -0.332850253767E+04   -0.18896E-04   -0.59600E-03  7872   0.416E-02    0.128E-02
DAV:   2    -0.332850254582E+04   -0.81449E-05   -0.10587E-04  7424   0.403E-03    0.737E-03
DAV:   3    -0.332850254507E+04    0.74378E-06   -0.28069E-06  6144   0.107E-03
   2 F= -.33426899E+04 E0= -.33426899E+04  d E =-.942053E-05  mag=     1.0000
 BRION: g(F)=  0.107E-03 g(S)=  0.000E+00 retain N=  1 mean eig= 0.22
 eig:   0.218
 bond charge predicted
       N       E                     dE             d eps       ncg     rms          rms(c)
DAV:   1    -0.332850255721E+04   -0.11394E-04   -0.56151E-04  7072   0.115E-02    0.512E-03
DAV:   2    -0.332850255935E+04   -0.21349E-05   -0.21688E-05  6720   0.191E-03    0.443E-03
DAV:   3    -0.332850255937E+04   -0.28755E-07   -0.35048E-07  5632   0.472E-04
   3 F= -.33426899E+04 E0= -.33426899E+04  d E =-.118069E-04  mag=     1.0000
 BRION: g(F)=  0.180E-04 g(S)=  0.000E+00 retain N=  1 mean eig= 0.17
 eig:   0.168
 bond charge predicted
       N       E                     dE             d eps       ncg     rms          rms(c)
DAV:   1    -0.332850258638E+04   -0.27037E-04   -0.40333E-03  7232   0.335E-02    0.111E-02
DAV:   2    -0.332850259135E+04   -0.49672E-05   -0.64720E-05  7296   0.318E-03    0.669E-03
DAV:   3    -0.332850259120E+04    0.15053E-06   -0.21821E-06  6048   0.110E-03
   4 F= -.33426899E+04 E0= -.33426899E+04  d E =-.162591E-04  mag=     1.0000
 BRION: g(F)=  0.235E-04 g(S)=  0.000E+00 retain N=  2 mean eig= 0.19
 eig:   0.186  0.186
 bond charge predicted
       N       E                     dE             d eps       ncg     rms          rms(c)
DAV:   1    -0.332850259975E+04   -0.83988E-05   -0.39623E-04  6816   0.105E-02    0.470E-03
DAV:   2    -0.332850260038E+04   -0.63295E-06   -0.92604E-06  6208   0.129E-03
   5 F= -.33426899E+04 E0= -.33426899E+04  d E =-.601923E-05  mag=     1.0000
 BRION: g(F)=  0.157E-04 g(S)=  0.000E+00 retain N=  1 mean eig= 0.33
 eig:   0.335
 bond charge predicted
       N       E                     dE             d eps       ncg     rms          rms(c)
DAV:   1    -0.332850262698E+04   -0.27232E-04   -0.40409E-03  7072   0.337E-02    0.116E-02
DAV:   2    -0.332850263084E+04   -0.38618E-05   -0.55945E-05  7200   0.287E-03    0.670E-03
DAV:   3    -0.332850263092E+04   -0.75204E-07   -0.21106E-06  5920   0.105E-03
   6 F= -.33426899E+04 E0= -.33426899E+04  d E =-.162472E-04  mag=     1.0000
 BRION: g(F)=  0.207E-04 g(S)=  0.000E+00 retain N=  2 mean eig= 0.17
 eig:   0.173  0.177
 bond charge predicted
       N       E                     dE             d eps       ncg     rms          rms(c)
DAV:   1    -0.332850263486E+04   -0.40201E-05   -0.41875E-05  6752   0.343E-03    0.201E-03
DAV:   2    -0.332850263500E+04   -0.14098E-06   -0.12637E-06  5728   0.563E-04
   7 F= -.33426899E+04 E0= -.33426899E+04  d E =-.252790E-05  mag=     1.0000
 BRION: g(F)=  0.177E-04 g(S)=  0.000E+00 retain N=  1 mean eig= 0.18
 eig:   0.176
 bond charge predicted
       N       E                     dE             d eps       ncg     rms          rms(c)
DAV:   1    -0.332850266324E+04   -0.28379E-04   -0.48853E-03  7008   0.370E-02    0.121E-02
DAV:   2    -0.332850266768E+04   -0.44323E-05   -0.65013E-05  7008   0.323E-03    0.740E-03
DAV:   3    -0.332850266751E+04    0.16333E-06   -0.24423E-06  5856   0.117E-03
   8 F= -.33426900E+04 E0= -.33426900E+04  d E =-.174671E-04  mag=     1.0000
 BRION: g(F)=  0.195E-04 g(S)=  0.000E+00 retain N=  2 mean eig= 0.11
 eig:   0.162  0.056
 bond charge predicted
       N       E                     dE             d eps       ncg     rms          rms(c)
DAV:   1    -0.332850267746E+04   -0.97841E-05   -0.37177E-04  6688   0.101E-02    0.448E-03
DAV:   2    -0.332850267812E+04   -0.66392E-06   -0.76643E-06  6016   0.121E-03
   9 F= -.33426900E+04 E0= -.33426900E+04  d E =-.580571E-05  mag=     1.0000
 BRION: g(F)=  0.153E-04 g(S)=  0.000E+00 retain N=  1 mean eig= 0.40
 eig:   0.398
 bond charge predicted
       N       E                     dE             d eps       ncg     rms          rms(c)
DAV:   1    -0.332850270240E+04   -0.24937E-04   -0.35317E-03  6944   0.312E-02    0.117E-02
DAV:   2    -0.332850270616E+04   -0.37601E-05   -0.53320E-05  7040   0.306E-03    0.776E-03
DAV:   3    -0.332850270611E+04    0.49826E-07   -0.24426E-06  6016   0.116E-03
  10 F= -.33426900E+04 E0= -.33426900E+04  d E =-.143132E-04  mag=     1.0000
 BRION: g(F)=  0.354E-04 g(S)=  0.000E+00 retain N=  2 mean eig= 0.52
 eig:   0.419  0.617
 bond charge predicted
       N       E                     dE             d eps       ncg     rms          rms(c)
DAV:   1    -0.332850271458E+04   -0.84240E-05   -0.36788E-04  6656   0.102E-02    0.397E-03
DAV:   2    -0.332850271511E+04   -0.53004E-06   -0.73210E-06  5760   0.112E-03
  11 F= -.33426900E+04 E0= -.33426900E+04  d E =-.574620E-05  mag=     1.0000
 BRION: g(F)=  0.157E-04 g(S)=  0.000E+00 retain N=  1 mean eig= 0.21
 eig:   0.206
 bond charge predicted
       N       E                     dE             d eps       ncg     rms          rms(c)
DAV:   1    -0.332850273906E+04   -0.24481E-04   -0.35425E-03  6976   0.312E-02    0.113E-02
DAV:   2    -0.332850274307E+04   -0.40061E-05   -0.55612E-05  7008   0.297E-03    0.662E-03
DAV:   3    -0.332850274293E+04    0.13353E-06   -0.20007E-06  5952   0.108E-03
  12 F= -.33426900E+04 E0= -.33426900E+04  d E =-.136673E-04  mag=     1.0000
 BRION: g(F)=  0.242E-04 g(S)=  0.000E+00 retain N=  2 mean eig= 0.21
 eig:   0.207  0.207
 bond charge predicted
       N       E                     dE             d eps       ncg     rms          rms(c)
DAV:   1    -0.332850275038E+04   -0.73147E-05   -0.37527E-04  6752   0.102E-02    0.461E-03
DAV:   2    -0.332850275104E+04   -0.65577E-06   -0.93105E-06  6048   0.129E-03
  13 F= -.33426900E+04 E0= -.33426900E+04  d E =-.564671E-05  mag=     1.0000
 BRION: g(F)=  0.145E-04 g(S)=  0.000E+00 retain N=  1 mean eig= 0.32
 eig:   0.324
 bond charge predicted
       N       E                     dE             d eps       ncg     rms          rms(c)
DAV:   1    -0.332850277320E+04   -0.22817E-04   -0.39394E-03  6912   0.333E-02    0.112E-02
DAV:   2    -0.332850277704E+04   -0.38373E-05   -0.55339E-05  6976   0.280E-03    0.629E-03
DAV:   3    -0.332850277698E+04    0.59954E-07   -0.17293E-06  5728   0.944E-04
  14 F= -.33426900E+04 E0= -.33426900E+04  d E =-.134501E-04  mag=     1.0000
 BRION: g(F)=  0.300E-04 g(S)=  0.000E+00 retain N=  2 mean eig= 0.21
 eig:   0.209  0.209
 bond charge predicted
       N       E                     dE             d eps       ncg     rms          rms(c)
DAV:   1    -0.332850278262E+04   -0.55853E-05   -0.10738E-04  6752   0.524E-03    0.255E-03
DAV:   2    -0.332850278301E+04   -0.38685E-06   -0.34547E-06  5696   0.840E-04
  15 F= -.33426900E+04 E0= -.33426900E+04  d E =-.408979E-05  mag=     1.0000
 BRION: g(F)=  0.152E-04 g(S)=  0.000E+00 retain N=  1 mean eig= 0.16
 eig:   0.159
 bond charge predicted
       N       E                     dE             d eps       ncg     rms          rms(c)
DAV:   1    -0.332850280617E+04   -0.23549E-04   -0.35542E-03  6912   0.315E-02    0.105E-02
DAV:   2    -0.332850280945E+04   -0.32835E-05   -0.47750E-05  6720   0.277E-03    0.655E-03
DAV:   3    -0.332850280937E+04    0.80676E-07   -0.18005E-06  5792   0.102E-03
  16 F= -.33426900E+04 E0= -.33426900E+04  d E =-.144431E-04  mag=     1.0000
 BRION: g(F)=  0.162E-04 g(S)=  0.000E+00 retain N=  2 mean eig= 0.28
 eig:   0.154  0.397
 bond charge predicted
       N       E                     dE             d eps       ncg     rms          rms(c)
DAV:   1    -0.332850281732E+04   -0.78651E-05   -0.26154E-04  6688   0.851E-03    0.376E-03
DAV:   2    -0.332850281779E+04   -0.47288E-06   -0.52745E-06  5888   0.101E-03
  17 F= -.33426900E+04 E0= -.33426900E+04  d E =-.463570E-05  mag=     1.0000
 BRION: g(F)=  0.134E-04 g(S)=  0.000E+00 retain N=  1 mean eig= 0.43
 eig:   0.428
 bond charge predicted
       N       E                     dE             d eps       ncg     rms          rms(c)
DAV:   1    -0.332850284179E+04   -0.24472E-04   -0.36458E-03  6944   0.318E-02    0.112E-02
DAV:   2    -0.332850284522E+04   -0.34276E-05   -0.50021E-05  6880   0.286E-03    0.702E-03
DAV:   3    -0.332850284521E+04    0.10012E-07   -0.21718E-06  5888   0.109E-03
  18 F= -.33426901E+04 E0= -.33426901E+04  d E =-.147645E-04  mag=     1.0000
 BRION: g(F)=  0.177E-04 g(S)=  0.000E+00 retain N=  2 mean eig= 1.10
 eig:   0.458  1.752
 bond charge predicted
       N       E                     dE             d eps       ncg     rms          rms(c)
DAV:   1    -0.332850285245E+04   -0.72292E-05   -0.26280E-04  6656   0.864E-03    0.351E-03
DAV:   2    -0.332850285272E+04   -0.27567E-06   -0.41144E-06  5664   0.865E-04
  19 F= -.33426901E+04 E0= -.33426901E+04  d E =-.432039E-05  mag=     1.0000
 BRION: g(F)=  0.148E-04 g(S)=  0.000E+00 retain N=  1 mean eig= 0.27
 eig:   0.268
 bond charge predicted
       N       E                     dE             d eps       ncg     rms          rms(c)
DAV:   1    -0.332850287444E+04   -0.21989E-04   -0.32848E-03  6976   0.300E-02    0.111E-02
DAV:   2    -0.332850287816E+04   -0.37258E-05   -0.51855E-05  6976   0.288E-03    0.667E-03
DAV:   3    -0.332850287806E+04    0.10303E-06   -0.19957E-06  5984   0.106E-03
  20 F= -.33426901E+04 E0= -.33426901E+04  d E =-.126524E-04  mag=     1.0000
 BRION: g(F)=  0.228E-04 g(S)=  0.000E+00 retain N=  2 mean eig= 0.23
 eig:   0.335  0.127
 bond charge predicted
       N       E                     dE             d eps       ncg     rms          rms(c)
DAV:   1    -0.332850288609E+04   -0.79231E-05   -0.50281E-04  6752   0.118E-02    0.516E-03
DAV:   2    -0.332850288693E+04   -0.84087E-06   -0.11958E-05  6176   0.145E-03    0.317E-03
DAV:   3    -0.332850288692E+04    0.57044E-08   -0.37740E-07  5632   0.546E-04
  21 F= -.33426901E+04 E0= -.33426901E+04  d E =-.615504E-05  mag=     1.0000
 BRION: g(F)=  0.145E-04 g(S)=  0.000E+00 retain N=  1 mean eig= 0.33
 eig:   0.328
 bond charge predicted
       N       E                     dE             d eps       ncg     rms          rms(c)
DAV:   1    -0.332850290645E+04   -0.19524E-04   -0.38955E-03  6816   0.330E-02    0.104E-02
DAV:   2    -0.332850291034E+04   -0.38919E-05   -0.54295E-05  6880   0.279E-03    0.566E-03
DAV:   3    -0.332850291022E+04    0.12619E-06   -0.14669E-06  5568   0.867E-04
  22 F= -.33426901E+04 E0= -.33426901E+04  d E =-.115170E-04  mag=     1.0000
 BRION: g(F)=  0.360E-04 g(S)=  0.000E+00 retain N=  2 mean eig= 0.29
 eig:   0.288  0.288
 bond charge predicted
       N       E                     dE             d eps       ncg     rms          rms(c)
DAV:   1    -0.332850291630E+04   -0.59578E-05   -0.16118E-04  6752   0.626E-03    0.295E-03
DAV:   2    -0.332850291683E+04   -0.53039E-06   -0.52578E-06  5728   0.100E-03
  23 F= -.33426901E+04 E0= -.33426901E+04  d E =-.484577E-05  mag=     1.0000
 BRION: g(F)=  0.131E-04 g(S)=  0.000E+00 retain N=  1 mean eig= 0.16
 eig:   0.163
 bond charge predicted
       N       E                     dE             d eps       ncg     rms          rms(c)
DAV:   1    -0.332850293809E+04   -0.21789E-04   -0.29931E-03  6816   0.288E-02    0.956E-03
DAV:   2    -0.332850294072E+04   -0.26264E-05   -0.36894E-05  6720   0.243E-03    0.575E-03
DAV:   3    -0.332850294083E+04   -0.11025E-06   -0.14072E-06  5664   0.903E-04
  24 F= -.33426901E+04 E0= -.33426901E+04  d E =-.130511E-04  mag=     1.0000
 BRION: g(F)=  0.131E-04 g(S)=  0.000E+00 retain N=  2 mean eig= 0.35
 eig:   0.159  0.547
 bond charge predicted
       N       E                     dE             d eps       ncg     rms          rms(c)
DAV:   1    -0.332850295161E+04   -0.10895E-04   -0.69002E-04  6656   0.139E-02    0.511E-03
DAV:   2    -0.332850295232E+04   -0.70955E-06   -0.10647E-05  6144   0.139E-03    0.325E-03
DAV:   3    -0.332850295227E+04    0.52154E-07   -0.44587E-07  5408   0.552E-04
  25 F= -.33426901E+04 E0= -.33426901E+04  d E =-.652157E-05  mag=     1.0000
 BRION: g(F)=  0.130E-04 g(S)=  0.000E+00 retain N=  1 mean eig= 0.41
 eig:   0.409
 bond charge predicted
       N       E                     dE             d eps       ncg     rms          rms(c)
DAV:   1    -0.332850296948E+04   -0.17159E-04   -0.18909E-03  6848   0.229E-02    0.768E-03
DAV:   2    -0.332850297120E+04   -0.17198E-05   -0.24488E-05  6464   0.207E-03    0.473E-03
DAV:   3    -0.332850297117E+04    0.32247E-07   -0.10594E-06  5536   0.783E-04
  26 F= -.33426901E+04 E0= -.33426901E+04  d E =-.102763E-04  mag=     1.0000
 BRION: g(F)=  0.132E-04 g(S)=  0.000E+00 retain N=  2 mean eig= 0.25
 eig:   0.349  0.156
 bond charge predicted
       N       E                     dE             d eps       ncg     rms          rms(c)
DAV:   1    -0.332850297693E+04   -0.57317E-05   -0.19483E-04  6656   0.742E-03    0.289E-03
DAV:   2    -0.332850297713E+04   -0.19616E-06   -0.28482E-06  5664   0.725E-04
  27 F= -.33426901E+04 E0= -.33426901E+04  d E =-.337456E-05  mag=     1.0000
 BRION: g(F)=  0.122E-04 g(S)=  0.000E+00 retain N=  1 mean eig= 0.33
 eig:   0.326
 bond charge predicted
       N       E                     dE             d eps       ncg     rms          rms(c)
DAV:   1    -0.332850299647E+04   -0.19537E-04   -0.25733E-03  6784   0.266E-02    0.938E-03
DAV:   2    -0.332850299866E+04   -0.21919E-05   -0.32392E-05  6400   0.235E-03    0.575E-03
DAV:   3    -0.332850299871E+04   -0.46683E-07   -0.14146E-06  5696   0.911E-04
  28 F= -.33426901E+04 E0= -.33426901E+04  d E =-.117562E-04  mag=     1.0000
 BRION: g(F)=  0.157E-04 g(S)=  0.000E+00 retain N=  1 mean eig= 0.05
 eig:   0.049
 bond charge predicted
       N       E                     dE             d eps       ncg     rms          rms(c)
DAV:   1    -0.332850300205E+04   -0.33927E-05   -0.65596E-05  6592   0.433E-03    0.202E-03
DAV:   2    -0.332850300214E+04   -0.86846E-07   -0.11252E-06  5632   0.491E-04
  29 F= -.33426901E+04 E0= -.33426901E+04  d E =-.207804E-05  mag=     1.0000
 BRION: g(F)=  0.124E-04 g(S)=  0.000E+00 retain N=  1 mean eig= 0.22
 eig:   0.223
 bond charge predicted
       N       E                     dE             d eps       ncg     rms          rms(c)
DAV:   1    -0.332850302243E+04   -0.20374E-04   -0.31268E-03  6816   0.294E-02    0.972E-03
DAV:   2    -0.332850302500E+04   -0.25774E-05   -0.38114E-05  6464   0.247E-03    0.574E-03
DAV:   3    -0.332850302501E+04   -0.60536E-08   -0.15020E-06  5568   0.935E-04
  30 F= -.33426902E+04 E0= -.33426902E+04  d E =-.127394E-04  mag=     1.0000
 BRION: g(F)=  0.128E-04 g(S)=  0.000E+00 retain N=  1 mean eig= 1.35
 eig:   1.354
 bond charge predicted
       N       E                     dE             d eps       ncg     rms          rms(c)
DAV:   1    -0.332850298129E+04    0.43715E-04   -0.75118E-03  7136   0.454E-02    0.137E-02
DAV:   2    -0.332850298814E+04   -0.68488E-05   -0.92656E-05  6880   0.387E-03    0.836E-03
DAV:   3    -0.332850298804E+04    0.10116E-06   -0.33283E-06  5792   0.134E-03
  31 F= -.33426901E+04 E0= -.33426901E+04  d E =0.208986E-04  mag=     1.0000
 BRION: g(F)=  0.153E-04 g(S)=  0.000E+00 retain N=  2 mean eig= 1.74
 eig:   1.740  1.740
 bond charge predicted
       N       E                     dE             d eps       ncg     rms          rms(c)
DAV:   1    -0.332850298951E+04   -0.13693E-05   -0.17165E-05  6464   0.209E-03    0.157E-03
DAV:   2    -0.332850298960E+04   -0.96275E-07   -0.58232E-07  5344   0.412E-04
  32 F= -.33426901E+04 E0= -.33426901E+04  d E =-.111056E-05  mag=     1.0000
 BRION: g(F)=  0.125E-04 g(S)=  0.000E+00 retain N=  1 mean eig= 0.16
 eig:   0.161
 bond charge predicted
       N       E                     dE             d eps       ncg     rms          rms(c)
DAV:   1    -0.332850300908E+04   -0.19570E-04   -0.29529E-03  6752   0.285E-02    0.870E-03
DAV:   2    -0.332850301214E+04   -0.30623E-05   -0.39613E-05  6720   0.244E-03    0.505E-03
DAV:   3    -0.332850301208E+04    0.61351E-07   -0.12108E-06  5568   0.838E-04
  33 F= -.33426902E+04 E0= -.33426902E+04  d E =-.117373E-04  mag=     1.0000
 BRION: g(F)=  0.158E-04 g(S)=  0.000E+00 retain N=  2 mean eig= 0.15
 eig:   0.060  0.246
 bond charge predicted
       N       E                     dE             d eps       ncg     rms          rms(c)
DAV:   1    -0.332850301763E+04   -0.54897E-05   -0.21155E-04  6720   0.766E-03    0.347E-03
DAV:   2    -0.332850301795E+04   -0.31991E-06   -0.49917E-06  5888   0.975E-04
  34 F= -.33426902E+04 E0= -.33426902E+04  d E =-.383493E-05  mag=     1.0000
 BRION: g(F)=  0.117E-04 g(S)=  0.000E+00 retain N=  1 mean eig= 0.25
 eig:   0.247
 bond charge predicted
       N       E                     dE             d eps       ncg     rms          rms(c)
DAV:   1    -0.332850303737E+04   -0.19738E-04   -0.28331E-03  6752   0.279E-02    0.994E-03
DAV:   2    -0.332850304014E+04   -0.27749E-05   -0.39294E-05  6816   0.248E-03    0.615E-03
DAV:   3    -0.332850304020E+04   -0.53318E-07   -0.16652E-06  5760   0.958E-04
  35 F= -.33426902E+04 E0= -.33426902E+04  d E =-.122458E-04  mag=     1.0000
 BRION: g(F)=  0.135E-04 g(S)=  0.000E+00 retain N=  2 mean eig= 0.16
 eig:   0.105  0.225
 bond charge predicted
       N       E                     dE             d eps       ncg     rms          rms(c)
DAV:   1    -0.332850304329E+04   -0.31459E-05   -0.54410E-05  6592   0.395E-03    0.203E-03
DAV:   2    -0.332850304335E+04   -0.61351E-07   -0.99229E-07  5568   0.481E-04
  36 F= -.33426902E+04 E0= -.33426902E+04  d E =-.197654E-05  mag=     1.0000
 BRION: g(F)=  0.122E-04 g(S)=  0.000E+00 retain N=  1 mean eig= 0.29
 eig:   0.289
 bond charge predicted
       N       E                     dE             d eps       ncg     rms          rms(c)
DAV:   1    -0.332850306167E+04   -0.18384E-04   -0.30828E-03  6752   0.292E-02    0.994E-03
DAV:   2    -0.332850306455E+04   -0.28749E-05   -0.42671E-05  6592   0.261E-03    0.620E-03
DAV:   3    -0.332850306444E+04    0.10582E-06   -0.16588E-06  5856   0.981E-04
  37 F= -.33426902E+04 E0= -.33426902E+04  d E =-.120191E-04  mag=     1.0000
 BRION: g(F)=  0.162E-04 g(S)=  0.000E+00 retain N=  2 mean eig= 0.63
 eig:   0.200  1.055
 bond charge predicted
       N       E                     dE             d eps       ncg     rms          rms(c)
DAV:   1    -0.332850307221E+04   -0.76601E-05   -0.34707E-04  6688   0.978E-03    0.406E-03
DAV:   2    -0.332850307274E+04   -0.52969E-06   -0.63492E-06  5952   0.106E-03
  38 F= -.33426902E+04 E0= -.33426902E+04  d E =-.474676E-05  mag=     1.0000
 BRION: g(F)=  0.111E-04 g(S)=  0.000E+00 retain N=  1 mean eig= 0.33
 eig:   0.333
 bond charge predicted
       N       E                     dE             d eps       ncg     rms          rms(c)
DAV:   1    -0.332850309044E+04   -0.18229E-04   -0.32126E-03  6720   0.299E-02    0.104E-02
DAV:   2    -0.332850309344E+04   -0.30029E-05   -0.45197E-05  6816   0.259E-03    0.600E-03
DAV:   3    -0.332850309339E+04    0.49593E-07   -0.16277E-06  5632   0.946E-04
  39 F= -.33426902E+04 E0= -.33426902E+04  d E =-.114658E-04  mag=     1.0000
 BRION: g(F)=  0.159E-04 g(S)=  0.000E+00 retain N=  2 mean eig= 0.31
 eig:   0.312  0.312
 bond charge predicted
       N       E                     dE             d eps       ncg     rms          rms(c)
DAV:   1    -0.332850309827E+04   -0.48304E-05   -0.11008E-04  6688   0.543E-03    0.276E-03
DAV:   2    -0.332850309861E+04   -0.33889E-06   -0.32162E-06  5760   0.815E-04
  40 F= -.33426902E+04 E0= -.33426902E+04  d E =-.314481E-05  mag=     1.0000
 BRION: g(F)=  0.122E-04 g(S)=  0.000E+00 retain N=  1 mean eig= 0.16
 eig:   0.164
 bond charge predicted
       N       E                     dE             d eps       ncg     rms          rms(c)
DAV:   1    -0.332850311579E+04   -0.17521E-04   -0.30020E-03  6752   0.287E-02    0.987E-03
DAV:   2    -0.332850311898E+04   -0.31876E-05   -0.43615E-05  6720   0.254E-03    0.558E-03
DAV:   3    -0.332850311895E+04    0.30501E-07   -0.12346E-06  5760   0.840E-04
  41 F= -.33426902E+04 E0= -.33426902E+04  d E =-.991001E-05  mag=     1.0000
 BRION: g(F)=  0.249E-04 g(S)=  0.000E+00 retain N=  2 mean eig= 0.24
 eig:   0.063  0.421
 bond charge predicted
       N       E                     dE             d eps       ncg     rms          rms(c)
DAV:   1    -0.332850312503E+04   -0.60562E-05   -0.34641E-04  6752   0.968E-03    0.442E-03
DAV:   2    -0.332850312579E+04   -0.75449E-06   -0.97735E-06  6080   0.132E-03
  42 F= -.33426902E+04 E0= -.33426902E+04  d E =-.521476E-05  mag=     1.0000
 BRION: g(F)=  0.109E-04 g(S)=  0.000E+00 retain N=  1 mean eig= 0.22
 eig:   0.223
 reached required accuracy - stopping structural energy minimisation
 PROFILE, used timers:     329
