 running  256 mpi-ranks, with    1 threads/rank, on    7 nodes
 distrk:  each k-point on  128 cores,    2 groups
 distr:  one band on    4 cores,   32 groups
 vasp.6.4.1 05Apr23 (build May 18 2023 13:19:41) complex                         
 POSCAR found type information on POSCAR C S O H 
 POSCAR found :  4 types and     368 ions
 Reading from existing POTCAR
 scaLAPACK will be used
 Reading from existing POTCAR
 -----------------------------------------------------------------------------
|                                                                             |
|               ----> ADVICE to this user running VASP <----                  |
|                                                                             |
|     You have a (more or less) 'large supercell' and for larger cells it     |
|     might be more efficient to use real-space projection operators.         |
|     Therefore, try LREAL= Auto in the INCAR file.                           |
|     Mind: If you want to do very accurate calculations, keep the            |
|     reciprocal projection scheme (i.e. LREAL=.FALSE.).                      |
|                                                                             |
 -----------------------------------------------------------------------------

 LDA part: xc-table for Pade appr. of Perdew
 POSCAR, INCAR and KPOINTS ok, starting setup
 FFT: planning ... GRIDC
 FFT: planning ... GRID_SOFT
 FFT: planning ... GRID
 WAVECAR not read
 charge-density read from file: 01_AOPT                                 
 magnetization density read from file 1
 WARNING: random wavefunctions but no delay for mixing, default for NELMDL
 entering main loop
       N       E                     dE             d eps       ncg     rms          rms(c)
DAV:   1     0.113528526894E+05    0.11353E+05   -0.41741E+05  8576   0.939E+02
DAV:   2     0.409561982778E+03   -0.10943E+05   -0.10188E+05 11328   0.213E+02
DAV:   3    -0.301846182202E+04   -0.34280E+04   -0.32773E+04  9216   0.116E+02
DAV:   4    -0.331597534863E+04   -0.29751E+03   -0.28813E+03  8864   0.389E+01
DAV:   5    -0.332813305809E+04   -0.12158E+02   -0.11911E+02 10336   0.709E+00    0.127E-01
DAV:   6    -0.332835570637E+04   -0.22265E+00   -0.21982E+00  9536   0.103E+00    0.573E-02
DAV:   7    -0.332836284609E+04   -0.71397E-02   -0.71027E-02 10144   0.189E-01    0.444E-02
DAV:   8    -0.332836305158E+04   -0.20549E-03   -0.24496E-03  9632   0.350E-02    0.357E-02
DAV:   9    -0.332836303573E+04    0.15853E-04   -0.11080E-04  9408   0.804E-03    0.273E-02
DAV:  10    -0.332836301138E+04    0.24343E-04   -0.14738E-05  8320   0.425E-03    0.168E-02
DAV:  11    -0.332836299731E+04    0.14075E-04   -0.64823E-06  8256   0.278E-03    0.980E-03
DAV:  12    -0.332836298955E+04    0.77575E-05   -0.57738E-07  5472   0.109E-03    0.679E-03
DAV:  13    -0.332836297843E+04    0.11125E-04   -0.11840E-06  6016   0.134E-03    0.242E-03
DAV:  14    -0.332836297428E+04    0.41503E-05   -0.47019E-07  5152   0.859E-04    0.763E-04
DAV:  15    -0.332836297337E+04    0.90513E-06   -0.47507E-08  5120   0.479E-04
   1 F= -.33425693E+04 E0= -.33425693E+04  d E =-.334257E+04  mag=     1.0000
 BRION: g(F)=  0.254E-02 g(S)=  0.000E+00
 bond charge predicted
       N       E                     dE             d eps       ncg     rms          rms(c)
DAV:   1    -0.332836427994E+04   -0.13057E-02   -0.47130E-01  7904   0.572E-01    0.102E-01
DAV:   2    -0.332836529179E+04   -0.10119E-02   -0.11479E-02  8032   0.726E-02    0.746E-02
DAV:   3    -0.332836523868E+04    0.53113E-04   -0.18624E-04  8576   0.141E-02    0.484E-02
DAV:   4    -0.332836524386E+04   -0.51778E-05   -0.14698E-04  8480   0.117E-02    0.965E-03
DAV:   5    -0.332836524879E+04   -0.49259E-05   -0.31957E-05  8032   0.509E-03    0.609E-03
DAV:   6    -0.332836524983E+04   -0.10455E-05   -0.16679E-06  6272   0.149E-03    0.382E-03
DAV:   7    -0.332836525033E+04   -0.49477E-06   -0.51301E-07  5952   0.941E-04
   2 F= -.33425713E+04 E0= -.33425713E+04  d E =-.193761E-02  mag=     1.0000
 BRION: g(F)=  0.609E-02 g(S)=  0.000E+00 retain N=  1 mean eig= 0.19
 eig:   0.192
 bond charge predicted
       N       E                     dE             d eps       ncg     rms          rms(c)
DAV:   1    -0.332836603717E+04   -0.78734E-03   -0.40510E-02  7584   0.209E-01    0.348E-02
DAV:   2    -0.332836613462E+04   -0.97446E-04   -0.12272E-03  8000   0.304E-02    0.286E-02
DAV:   3    -0.332836612611E+04    0.85069E-05   -0.39721E-05  8448   0.645E-03    0.187E-02
DAV:   4    -0.332836612058E+04    0.55294E-05   -0.13310E-05  7840   0.427E-03    0.612E-03
DAV:   5    -0.332836612048E+04    0.99419E-07   -0.52120E-06  7008   0.229E-03
   3 F= -.33425721E+04 E0= -.33425721E+04  d E =-.790212E-03  mag=     1.0000
 BRION: g(F)=  0.216E-02 g(S)=  0.000E+00 retain N=  1 mean eig= 0.18
 eig:   0.181
 bond charge predicted
       N       E                     dE             d eps       ncg     rms          rms(c)
DAV:   1    -0.332836767486E+04   -0.15543E-02   -0.39459E-01  7488   0.486E-01    0.910E-02
DAV:   2    -0.332836851545E+04   -0.84058E-03   -0.92790E-03  7584   0.593E-02    0.641E-02
DAV:   3    -0.332836847521E+04    0.40234E-04   -0.12454E-04  8480   0.110E-02    0.412E-02
DAV:   4    -0.332836849267E+04   -0.17459E-04   -0.11748E-04  8096   0.950E-03    0.845E-03
DAV:   5    -0.332836849599E+04   -0.33216E-05   -0.24454E-05  7680   0.420E-03    0.539E-03
DAV:   6    -0.332836849704E+04   -0.10476E-05   -0.11439E-06  5824   0.118E-03    0.339E-03
DAV:   7    -0.332836849731E+04   -0.27136E-06   -0.25490E-07  5408   0.720E-04
   4 F= -.33425741E+04 E0= -.33425741E+04  d E =-.203315E-02  mag=     1.0000
 BRION: g(F)=  0.230E-02 g(S)=  0.000E+00 retain N=  2 mean eig= 0.60
 eig:   0.160  1.036
 bond charge predicted
       N       E                     dE             d eps       ncg     rms          rms(c)
DAV:   1    -0.332836916186E+04   -0.66482E-03   -0.46596E-02  7456   0.170E-01    0.320E-02
DAV:   2    -0.332836926994E+04   -0.10808E-03   -0.12004E-03  7648   0.219E-02    0.234E-02
DAV:   3    -0.332836926432E+04    0.56271E-05   -0.19439E-05  8096   0.403E-03    0.152E-02
DAV:   4    -0.332836926360E+04    0.72026E-06   -0.12791E-05  7520   0.346E-03    0.385E-03
DAV:   5    -0.332836926402E+04   -0.41991E-06   -0.34217E-06  6144   0.154E-03
   5 F= -.33425747E+04 E0= -.33425747E+04  d E =-.655345E-03  mag=     1.0000
 BRION: g(F)=  0.212E-02 g(S)=  0.000E+00 retain N=  1 mean eig= 0.19
 eig:   0.194
 bond charge predicted
       N       E                     dE             d eps       ncg     rms          rms(c)
DAV:   1    -0.332837065053E+04   -0.13869E-02   -0.29828E-01  7424   0.420E-01    0.789E-02
DAV:   2    -0.332837128640E+04   -0.63587E-03   -0.69908E-03  7520   0.512E-02    0.550E-02
DAV:   3    -0.332837125833E+04    0.28073E-04   -0.92064E-05  8352   0.942E-03    0.353E-02
DAV:   4    -0.332837127221E+04   -0.13880E-04   -0.87273E-05  8000   0.815E-03    0.762E-03
DAV:   5    -0.332837127456E+04   -0.23450E-05   -0.18396E-05  7616   0.364E-03    0.464E-03
DAV:   6    -0.332837127531E+04   -0.75565E-06   -0.87964E-07  5664   0.100E-03
   6 F= -.33425764E+04 E0= -.33425764E+04  d E =-.170622E-02  mag=     1.0000
 BRION: g(F)=  0.205E-02 g(S)=  0.000E+00 retain N=  2 mean eig= 1.22
 eig:   0.151  2.285
 bond charge predicted
       N       E                     dE             d eps       ncg     rms          rms(c)
DAV:   1    -0.332837210344E+04   -0.82888E-03   -0.80251E-02  7424   0.229E-01    0.423E-02
DAV:   2    -0.332837227491E+04   -0.17147E-03   -0.19293E-03  7712   0.290E-02    0.294E-02
DAV:   3    -0.332837226700E+04    0.79089E-05   -0.29462E-05  8320   0.553E-03    0.189E-02
DAV:   4    -0.332837227015E+04   -0.31479E-05   -0.23200E-05  7680   0.459E-03    0.424E-03
DAV:   5    -0.332837227115E+04   -0.10000E-05   -0.50794E-06  6976   0.209E-03    0.252E-03
DAV:   6    -0.332837227145E+04   -0.29919E-06   -0.24441E-07  5248   0.648E-04
   7 F= -.33425773E+04 E0= -.33425773E+04  d E =-.842615E-03  mag=     1.0000
 BRION: g(F)=  0.212E-02 g(S)=  0.000E+00 retain N=  2 mean eig= 0.09
 eig:   0.136  0.051
 bond charge predicted
       N       E                     dE             d eps       ncg     rms          rms(c)
DAV:   1    -0.332837343216E+04   -0.11610E-02   -0.19862E-01  7424   0.338E-01    0.640E-02
DAV:   2    -0.332837385658E+04   -0.42441E-03   -0.46588E-03  7584   0.412E-02    0.440E-02
DAV:   3    -0.332837383858E+04    0.18000E-04   -0.62869E-05  8352   0.732E-03    0.282E-02
DAV:   4    -0.332837384662E+04   -0.80459E-05   -0.52826E-05  7840   0.653E-03    0.709E-03
DAV:   5    -0.332837384854E+04   -0.19168E-05   -0.12593E-05  7424   0.293E-03    0.471E-03
DAV:   6    -0.332837384857E+04   -0.34459E-07   -0.13088E-06  5824   0.102E-03
   8 F= -.33425786E+04 E0= -.33425786E+04  d E =-.132606E-02  mag=     1.0000
 BRION: g(F)=  0.209E-02 g(S)=  0.000E+00 retain N=  2 mean eig= 0.45
 eig:   0.113  0.793
 bond charge predicted
       N       E                     dE             d eps       ncg     rms          rms(c)
DAV:   1    -0.332837444268E+04   -0.59414E-03   -0.36328E-02  7424   0.142E-01    0.289E-02
DAV:   2    -0.332837453118E+04   -0.88497E-04   -0.97673E-04  7552   0.182E-02    0.225E-02
DAV:   3    -0.332837452675E+04    0.44254E-05   -0.14864E-05  7840   0.361E-03    0.149E-02
DAV:   4    -0.332837452765E+04   -0.89908E-06   -0.12645E-05  7200   0.282E-03    0.303E-03
DAV:   5    -0.332837452845E+04   -0.79686E-06   -0.23658E-06  5920   0.117E-03
   9 F= -.33425792E+04 E0= -.33425792E+04  d E =-.573902E-03  mag=     1.0000
 BRION: g(F)=  0.183E-02 g(S)=  0.000E+00 retain N=  2 mean eig= 3.13
 eig:   0.186  6.072
 bond charge predicted
       N       E                     dE             d eps       ncg     rms          rms(c)
DAV:   1    -0.332837579021E+04   -0.12626E-02   -0.27620E-01  7328   0.392E-01    0.750E-02
DAV:   2    -0.332837636554E+04   -0.57533E-03   -0.63465E-03  7584   0.471E-02    0.511E-02
DAV:   3    -0.332837633878E+04    0.26764E-04   -0.80639E-05  8320   0.835E-03    0.327E-02
DAV:   4    -0.332837635644E+04   -0.17662E-04   -0.76601E-05  7968   0.759E-03    0.804E-03
DAV:   5    -0.332837635805E+04   -0.16164E-05   -0.17033E-05  7552   0.344E-03    0.492E-03
DAV:   6    -0.332837635835E+04   -0.29115E-06   -0.11820E-06  5664   0.988E-04
  10 F= -.33425807E+04 E0= -.33425807E+04  d E =-.153079E-02  mag=     1.0000
 BRION: g(F)=  0.179E-02 g(S)=  0.000E+00 retain N=  2 mean eig= 1.18
 eig:   0.114  2.244
 bond charge predicted
       N       E                     dE             d eps       ncg     rms          rms(c)
DAV:   1    -0.332837730318E+04   -0.94512E-03   -0.13044E-01  7392   0.278E-01    0.526E-02
DAV:   2    -0.332837757867E+04   -0.27550E-03   -0.30695E-03  7616   0.344E-02    0.361E-02
DAV:   3    -0.332837756625E+04    0.12425E-04   -0.41572E-05  8384   0.632E-03    0.232E-02
DAV:   4    -0.332837757386E+04   -0.76116E-05   -0.36928E-05  7744   0.546E-03    0.547E-03
DAV:   5    -0.332837757519E+04   -0.13285E-05   -0.80666E-06  7264   0.247E-03    0.326E-03
DAV:   6    -0.332837757559E+04   -0.40745E-06   -0.44117E-07  5440   0.720E-04
  11 F= -.33425817E+04 E0= -.33425817E+04  d E =-.100794E-02  mag=     1.0000
 BRION: g(F)=  0.192E-02 g(S)=  0.000E+00 retain N=  2 mean eig= 0.14
 eig:   0.141  0.141
 bond charge predicted
       N       E                     dE             d eps       ncg     rms          rms(c)
DAV:   1    -0.332837854779E+04   -0.97260E-03   -0.14955E-01  7328   0.291E-01    0.569E-02
DAV:   2    -0.332837887756E+04   -0.32977E-03   -0.36656E-03  7520   0.363E-02    0.414E-02
DAV:   3    -0.332837886204E+04    0.15521E-04   -0.51236E-05  8416   0.694E-03    0.268E-02
DAV:   4    -0.332837886734E+04   -0.52957E-05   -0.46139E-05  7648   0.567E-03    0.534E-03
DAV:   5    -0.332837886966E+04   -0.23291E-05   -0.89628E-06  7232   0.245E-03    0.339E-03
DAV:   6    -0.332837887034E+04   -0.67276E-06   -0.33288E-07  5312   0.753E-04
  12 F= -.33425828E+04 E0= -.33425828E+04  d E =-.107397E-02  mag=     1.0000
 BRION: g(F)=  0.206E-02 g(S)=  0.000E+00 retain N=  2 mean eig= 0.33
 eig:   0.218  0.451
 bond charge predicted
       N       E                     dE             d eps       ncg     rms          rms(c)
DAV:   1    -0.332837928852E+04   -0.41886E-03   -0.22268E-02  7424   0.106E-01    0.228E-02
DAV:   2    -0.332837934834E+04   -0.59818E-04   -0.65405E-04  7520   0.141E-02    0.179E-02
DAV:   3    -0.332837934512E+04    0.32223E-05   -0.11334E-05  7328   0.261E-03    0.119E-02
DAV:   4    -0.332837934451E+04    0.61374E-06   -0.68800E-06  6592   0.214E-03
  13 F= -.33425832E+04 E0= -.33425832E+04  d E =-.397327E-03  mag=     1.0000
 BRION: g(F)=  0.166E-02 g(S)=  0.000E+00 retain N=  2 mean eig= 2.68
 eig:   0.136  5.222
 bond charge predicted
       N       E                     dE             d eps       ncg     rms          rms(c)
DAV:   1    -0.332838046400E+04   -0.11189E-02   -0.21353E-01  7296   0.338E-01    0.661E-02
DAV:   2    -0.332838091000E+04   -0.44600E-03   -0.49154E-03  7520   0.404E-02    0.459E-02
DAV:   3    -0.332838088966E+04    0.20341E-04   -0.61416E-05  8288   0.744E-03    0.294E-02
DAV:   4    -0.332838090306E+04   -0.13403E-04   -0.61350E-05  7712   0.641E-03    0.638E-03
DAV:   5    -0.332838090476E+04   -0.17015E-05   -0.12301E-05  7392   0.287E-03    0.387E-03
DAV:   6    -0.332838090533E+04   -0.56613E-06   -0.54769E-07  5472   0.812E-04
  14 F= -.33425845E+04 E0= -.33425845E+04  d E =-.128913E-02  mag=     1.0000
 BRION: g(F)=  0.157E-02 g(S)=  0.000E+00 retain N=  2 mean eig= 1.28
 eig:   0.162  2.392
 bond charge predicted
       N       E                     dE             d eps       ncg     rms          rms(c)
DAV:   1    -0.332838194268E+04   -0.10379E-02   -0.19425E-01  7296   0.324E-01    0.631E-02
DAV:   2    -0.332838234780E+04   -0.40512E-03   -0.44898E-03  7552   0.392E-02    0.432E-02
DAV:   3    -0.332838233036E+04    0.17443E-04   -0.56165E-05  8352   0.704E-03    0.277E-02
DAV:   4    -0.332838234037E+04   -0.10012E-04   -0.54778E-05  7776   0.630E-03    0.661E-03
DAV:   5    -0.332838234183E+04   -0.14574E-05   -0.11859E-05  7296   0.291E-03    0.391E-03
DAV:   6    -0.332838234225E+04   -0.42142E-06   -0.68340E-07  5600   0.829E-04
  15 F= -.33425857E+04 E0= -.33425857E+04  d E =-.117882E-02  mag=     1.0000
 BRION: g(F)=  0.163E-02 g(S)=  0.000E+00 retain N=  2 mean eig= 0.29
 eig:   0.288  0.288
 bond charge predicted
       N       E                     dE             d eps       ncg     rms          rms(c)
DAV:   1    -0.332838343864E+04   -0.10968E-02   -0.29923E-01  7296   0.400E-01    0.780E-02
DAV:   2    -0.332838406873E+04   -0.63009E-03   -0.69472E-03  7616   0.484E-02    0.533E-02
DAV:   3    -0.332838404282E+04    0.25908E-04   -0.88963E-05  8352   0.853E-03    0.341E-02
DAV:   4    -0.332838405389E+04   -0.11065E-04   -0.79501E-05  7968   0.767E-03    0.869E-03
DAV:   5    -0.332838405635E+04   -0.24659E-05   -0.18361E-05  7552   0.347E-03    0.558E-03
DAV:   6    -0.332838405653E+04   -0.17951E-06   -0.17564E-06  5920   0.113E-03
  16 F= -.33425871E+04 E0= -.33425871E+04  d E =-.139512E-02  mag=     1.0000
 BRION: g(F)=  0.197E-02 g(S)=  0.000E+00 retain N=  2 mean eig= 0.24
 eig:   0.240  0.240
 bond charge predicted
       N       E                     dE             d eps       ncg     rms          rms(c)
DAV:   1    -0.332838380681E+04    0.24954E-03   -0.12773E-02  7360   0.795E-02    0.187E-02
DAV:   2    -0.332838385303E+04   -0.46221E-04   -0.50364E-04  7552   0.120E-02    0.178E-02
DAV:   3    -0.332838385049E+04    0.25359E-05   -0.10024E-05  7040   0.229E-03    0.131E-02
DAV:   4    -0.332838384794E+04    0.25569E-05   -0.69158E-06  6272   0.192E-03    0.496E-03
DAV:   5    -0.332838384782E+04    0.11153E-06   -0.32577E-06  5952   0.117E-03
  17 F= -.33425869E+04 E0= -.33425869E+04  d E =0.164702E-03  mag=     1.0000
 BRION: g(F)=  0.168E-02 g(S)=  0.000E+00 retain N=  2 mean eig= 2.22
 eig:   0.220  4.216
 bond charge predicted
       N       E                     dE             d eps       ncg     rms          rms(c)
DAV:   1    -0.332838484392E+04   -0.99598E-03   -0.18181E-01  7296   0.308E-01    0.601E-02
DAV:   2    -0.332838522013E+04   -0.37621E-03   -0.41493E-03  7552   0.367E-02    0.415E-02
DAV:   3    -0.332838520489E+04    0.15241E-04   -0.51903E-05  8256   0.647E-03    0.265E-02
DAV:   4    -0.332838521247E+04   -0.75855E-05   -0.50496E-05  7712   0.596E-03    0.676E-03
DAV:   5    -0.332838521352E+04   -0.10440E-05   -0.11153E-05  7264   0.271E-03    0.413E-03
DAV:   6    -0.332838521366E+04   -0.14552E-06   -0.82924E-07  5632   0.816E-04
  18 F= -.33425880E+04 E0= -.33425880E+04  d E =-.111545E-02  mag=     1.0000
 BRION: g(F)=  0.139E-02 g(S)=  0.000E+00 retain N=  2 mean eig= 1.21
 eig:   0.177  2.253
 bond charge predicted
       N       E                     dE             d eps       ncg     rms          rms(c)
DAV:   1    -0.332838622256E+04   -0.10090E-02   -0.22869E-01  7296   0.347E-01    0.685E-02
DAV:   2    -0.332838670304E+04   -0.48048E-03   -0.53070E-03  7520   0.418E-02    0.472E-02
DAV:   3    -0.332838668350E+04    0.19536E-04   -0.65802E-05  8288   0.757E-03    0.303E-02
DAV:   4    -0.332838669334E+04   -0.98337E-05   -0.65235E-05  7680   0.667E-03    0.705E-03
DAV:   5    -0.332838669488E+04   -0.15462E-05   -0.13697E-05  7456   0.306E-03    0.414E-03
DAV:   6    -0.332838669542E+04   -0.53411E-06   -0.72902E-07  5536   0.860E-04
  19 F= -.33425892E+04 E0= -.33425892E+04  d E =-.119810E-02  mag=     1.0000
 BRION: g(F)=  0.148E-02 g(S)=  0.000E+00 retain N=  2 mean eig= 0.27
 eig:   0.003  0.532
 bond charge predicted
       N       E                     dE             d eps       ncg     rms          rms(c)
DAV:   1    -0.332838777022E+04   -0.10753E-02   -0.43228E-01  7296   0.476E-01    0.946E-02
DAV:   2    -0.332838869015E+04   -0.91993E-03   -0.10174E-02  7456   0.577E-02    0.663E-02
DAV:   3    -0.332838865052E+04    0.39634E-04   -0.12837E-04  8320   0.106E-02    0.427E-02
DAV:   4    -0.332838866676E+04   -0.16244E-04   -0.12704E-04  7968   0.917E-03    0.925E-03
DAV:   5    -0.332838867024E+04   -0.34831E-05   -0.25445E-05  7520   0.411E-03    0.557E-03
DAV:   6    -0.332838867139E+04   -0.11458E-05   -0.12754E-06  5792   0.115E-03    0.370E-03
DAV:   7    -0.332838867173E+04   -0.33586E-06   -0.26743E-07  5408   0.693E-04
  20 F= -.33425908E+04 E0= -.33425908E+04  d E =-.158528E-02  mag=     1.0000
 BRION: g(F)=  0.191E-02 g(S)=  0.000E+00 retain N=  2 mean eig= 0.25
 eig:   0.176  0.317
 bond charge predicted
       N       E                     dE             d eps       ncg     rms          rms(c)
DAV:   1    -0.332838723276E+04    0.14386E-02   -0.14499E-01  7296   0.273E-01    0.559E-02
DAV:   2    -0.332838756686E+04   -0.33410E-03   -0.37081E-03  7520   0.341E-02    0.432E-02
DAV:   3    -0.332838754947E+04    0.17386E-04   -0.53817E-05  8448   0.668E-03    0.283E-02
DAV:   4    -0.332838755022E+04   -0.74366E-06   -0.48374E-05  7456   0.530E-03    0.560E-03
DAV:   5    -0.332838755223E+04   -0.20147E-05   -0.88628E-06  6912   0.215E-03    0.345E-03
DAV:   6    -0.332838755255E+04   -0.32340E-06   -0.26691E-07  5216   0.703E-04
  21 F= -.33425899E+04 E0= -.33425899E+04  d E =0.895256E-03  mag=     1.0000
 BRION: g(F)=  0.160E-02 g(S)=  0.000E+00 retain N=  2 mean eig= 1.41
 eig:   0.140  2.676
 bond charge predicted
       N       E                     dE             d eps       ncg     rms          rms(c)
DAV:   1    -0.332838860262E+04   -0.10504E-02   -0.26506E-01  7296   0.368E-01    0.731E-02
DAV:   2    -0.332838915989E+04   -0.55727E-03   -0.61494E-03  7488   0.440E-02    0.520E-02
DAV:   3    -0.332838913475E+04    0.25137E-04   -0.77033E-05  8352   0.810E-03    0.335E-02
DAV:   4    -0.332838914532E+04   -0.10567E-04   -0.77907E-05  7680   0.699E-03    0.693E-03
DAV:   5    -0.332838914739E+04   -0.20693E-05   -0.15195E-05  7456   0.306E-03    0.426E-03
DAV:   6    -0.332838914794E+04   -0.55158E-06   -0.63624E-07  5472   0.841E-04
  22 F= -.33425912E+04 E0= -.33425912E+04  d E =-.128870E-02  mag=     1.0000
 BRION: g(F)=  0.125E-02 g(S)=  0.000E+00 retain N=  2 mean eig= 1.92
 eig:   0.171  3.666
 bond charge predicted
       N       E                     dE             d eps       ncg     rms          rms(c)
DAV:   1    -0.332839001258E+04   -0.86519E-03   -0.17645E-01  7232   0.305E-01    0.605E-02
DAV:   2    -0.332839038638E+04   -0.37380E-03   -0.41296E-03  7616   0.370E-02    0.412E-02
DAV:   3    -0.332839037171E+04    0.14671E-04   -0.52271E-05  8256   0.668E-03    0.264E-02
DAV:   4    -0.332839037862E+04   -0.69172E-05   -0.49610E-05  7712   0.591E-03    0.667E-03
DAV:   5    -0.332839037972E+04   -0.10919E-05   -0.10845E-05  7232   0.273E-03    0.383E-03
DAV:   6    -0.332839038000E+04   -0.28277E-06   -0.67906E-07  5536   0.779E-04
  23 F= -.33425922E+04 E0= -.33425922E+04  d E =-.982115E-03  mag=     1.0000
 BRION: g(F)=  0.138E-02 g(S)=  0.000E+00 retain N=  3 mean eig= 2.71
 eig:   7.839  0.148  0.148
 bond charge predicted
       N       E                     dE             d eps       ncg     rms          rms(c)
DAV:   1    -0.332839117143E+04   -0.79172E-03   -0.14184E-01  7232   0.280E-01    0.552E-02
DAV:   2    -0.332839147366E+04   -0.30223E-03   -0.33781E-03  7648   0.347E-02    0.382E-02
DAV:   3    -0.332839146092E+04    0.12743E-04   -0.45870E-05  8320   0.651E-03    0.245E-02
DAV:   4    -0.332839146568E+04   -0.47646E-05   -0.40314E-05  7648   0.546E-03    0.564E-03
DAV:   5    -0.332839146702E+04   -0.13394E-05   -0.84902E-06  7200   0.251E-03    0.326E-03
DAV:   6    -0.332839146738E+04   -0.35600E-06   -0.45550E-07  5472   0.748E-04
  24 F= -.33425930E+04 E0= -.33425930E+04  d E =-.867239E-03  mag=     1.0000
 BRION: g(F)=  0.145E-02 g(S)=  0.000E+00 retain N=  3 mean eig= 1.61
 eig:   4.399  0.282  0.164
 bond charge predicted
       N       E                     dE             d eps       ncg     rms          rms(c)
DAV:   1    -0.332839242452E+04   -0.95750E-03   -0.39817E-01  7168   0.454E-01    0.903E-02
DAV:   2    -0.332839326542E+04   -0.84090E-03   -0.92830E-03  7552   0.548E-02    0.615E-02
DAV:   3    -0.332839323289E+04    0.32533E-04   -0.11774E-04  8064   0.977E-03    0.394E-02
DAV:   4    -0.332839324680E+04   -0.13908E-04   -0.10870E-04  7968   0.872E-03    0.100E-02
DAV:   5    -0.332839324945E+04   -0.26518E-05   -0.24423E-05  7648   0.399E-03    0.599E-03
DAV:   6    -0.332839324981E+04   -0.36578E-06   -0.18141E-06  5824   0.116E-03
  25 F= -.33425944E+04 E0= -.33425944E+04  d E =-.140909E-02  mag=     1.0000
 BRION: g(F)=  0.167E-02 g(S)=  0.000E+00 retain N=  3 mean eig= 1.32
 eig:   3.242  0.332  0.372
 bond charge predicted
       N       E                     dE             d eps       ncg     rms          rms(c)
DAV:   1    -0.332839113592E+04    0.21135E-02   -0.29141E-01  7168   0.381E-01    0.760E-02
DAV:   2    -0.332839176503E+04   -0.62912E-03   -0.68947E-03  7456   0.459E-02    0.537E-02
DAV:   3    -0.332839173940E+04    0.25635E-04   -0.92054E-05  8224   0.803E-03    0.345E-02
DAV:   4    -0.332839174486E+04   -0.54588E-05   -0.76782E-05  7712   0.731E-03    0.938E-03
DAV:   5    -0.332839174684E+04   -0.19888E-05   -0.18847E-05  7552   0.327E-03    0.610E-03
DAV:   6    -0.332839174673E+04    0.11153E-06   -0.24833E-06  5824   0.125E-03
  26 F= -.33425933E+04 E0= -.33425933E+04  d E =0.118976E-02  mag=     1.0000
 BRION: g(F)=  0.162E-02 g(S)=  0.000E+00 retain N=  3 mean eig= 1.93
 eig:   5.257  0.273  0.273
 bond charge predicted
       N       E                     dE             d eps       ncg     rms          rms(c)
DAV:   1    -0.332839273483E+04   -0.98799E-03   -0.30398E-01  7168   0.390E-01    0.776E-02
DAV:   2    -0.332839336930E+04   -0.63447E-03   -0.69840E-03  7520   0.464E-02    0.535E-02
DAV:   3    -0.332839334437E+04    0.24935E-04   -0.87379E-05  8096   0.814E-03    0.343E-02
DAV:   4    -0.332839335607E+04   -0.11699E-04   -0.84193E-05  7776   0.753E-03    0.888E-03
DAV:   5    -0.332839335748E+04   -0.14126E-05   -0.18850E-05  7584   0.342E-03    0.538E-03
DAV:   6    -0.332839335758E+04   -0.10291E-06   -0.14624E-06  5728   0.101E-03
  27 F= -.33425945E+04 E0= -.33425945E+04  d E =-.128500E-02  mag=     1.0000
 BRION: g(F)=  0.114E-02 g(S)=  0.000E+00 retain N=  2 mean eig= 2.08
 eig:   0.207  3.960
 bond charge predicted
       N       E                     dE             d eps       ncg     rms          rms(c)
DAV:   1    -0.332839409713E+04   -0.73965E-03   -0.13548E-01  7168   0.266E-01    0.539E-02
DAV:   2    -0.332839438718E+04   -0.29006E-03   -0.32321E-03  7488   0.328E-02    0.372E-02
DAV:   3    -0.332839437561E+04    0.11569E-04   -0.42041E-05  8320   0.612E-03    0.239E-02
DAV:   4    -0.332839438082E+04   -0.52087E-05   -0.39050E-05  7616   0.518E-03    0.547E-03
DAV:   5    -0.332839438203E+04   -0.12126E-05   -0.79955E-06  6848   0.238E-03    0.316E-03
DAV:   6    -0.332839438241E+04   -0.37614E-06   -0.41004E-07  5344   0.729E-04
  28 F= -.33425954E+04 E0= -.33425954E+04  d E =-.807669E-03  mag=     1.0000
 BRION: g(F)=  0.122E-02 g(S)=  0.000E+00 retain N=  3 mean eig= 2.19
 eig:   6.200  0.186  0.186
 bond charge predicted
       N       E                     dE             d eps       ncg     rms          rms(c)
DAV:   1    -0.332839483179E+04   -0.44975E-03   -0.36049E-02  7264   0.148E-01    0.285E-02
DAV:   2    -0.332839490912E+04   -0.77330E-04   -0.87638E-04  7776   0.190E-02    0.194E-02
DAV:   3    -0.332839490607E+04    0.30495E-05   -0.13627E-05  7936   0.364E-03    0.124E-02
DAV:   4    -0.332839490715E+04   -0.10838E-05   -0.95408E-06  6976   0.287E-03    0.315E-03
DAV:   5    -0.332839490755E+04   -0.39581E-06   -0.20925E-06  6016   0.134E-03
  29 F= -.33425958E+04 E0= -.33425958E+04  d E =-.414562E-03  mag=     1.0000
 BRION: g(F)=  0.109E-02 g(S)=  0.000E+00 retain N=  2 mean eig= 2.18
 eig:   0.182  4.168
 bond charge predicted
       N       E                     dE             d eps       ncg     rms          rms(c)
DAV:   1    -0.332839554249E+04   -0.63534E-03   -0.10557E-01  7168   0.232E-01    0.471E-02
DAV:   2    -0.332839576936E+04   -0.22687E-03   -0.25143E-03  7584   0.283E-02    0.319E-02
DAV:   3    -0.332839576053E+04    0.88336E-05   -0.33294E-05  7968   0.501E-03    0.203E-02
DAV:   4    -0.332839576326E+04   -0.27334E-05   -0.27747E-05  7424   0.451E-03    0.548E-03
DAV:   5    -0.332839576394E+04   -0.67393E-06   -0.64667E-06  6496   0.204E-03
  30 F= -.33425964E+04 E0= -.33425964E+04  d E =-.668352E-03  mag=     1.0000
 BRION: g(F)=  0.129E-02 g(S)=  0.000E+00 retain N=  3 mean eig= 2.65
 eig:   7.553  0.046  0.337
 bond charge predicted
       N       E                     dE             d eps       ncg     rms          rms(c)
DAV:   1    -0.332839639401E+04   -0.63074E-03   -0.92896E-02  7168   0.213E-01    0.454E-02
DAV:   2    -0.332839660745E+04   -0.21344E-03   -0.23690E-03  7456   0.264E-02    0.341E-02
DAV:   3    -0.332839659728E+04    0.10168E-04   -0.34226E-05  8128   0.528E-03    0.220E-02
DAV:   4    -0.332839659979E+04   -0.25084E-05   -0.28303E-05  7232   0.395E-03    0.469E-03
DAV:   5    -0.332839660140E+04   -0.16099E-05   -0.50351E-06  6144   0.160E-03    0.271E-03
DAV:   6    -0.332839660167E+04   -0.27823E-06   -0.12744E-07  5088   0.550E-04
  31 F= -.33425971E+04 E0= -.33425971E+04  d E =-.657275E-03  mag=     1.0000
 BRION: g(F)=  0.117E-02 g(S)=  0.000E+00 retain N=  2 mean eig= 2.31
 eig:   0.180  4.433
 bond charge predicted
       N       E                     dE             d eps       ncg     rms          rms(c)
DAV:   1    -0.332839684912E+04   -0.24772E-03   -0.16959E-02  7232   0.123E-01    0.212E-02
DAV:   2    -0.332839688414E+04   -0.35018E-04   -0.43426E-04  8000   0.170E-02    0.153E-02
DAV:   3    -0.332839688191E+04    0.22284E-05   -0.11550E-05  8288   0.357E-03    0.945E-03
DAV:   4    -0.332839688161E+04    0.30210E-06   -0.36828E-06  6144   0.224E-03
  32 F= -.33425973E+04 E0= -.33425973E+04  d E =-.216214E-03  mag=     1.0000
 BRION: g(F)=  0.126E-02 g(S)=  0.000E+00 retain N=  3 mean eig= 2.58
 eig:   7.342  0.251  0.159
 bond charge predicted
       N       E                     dE             d eps       ncg     rms          rms(c)
DAV:   1    -0.332839738766E+04   -0.50575E-03   -0.53250E-02  7232   0.182E-01    0.348E-02
DAV:   2    -0.332839750177E+04   -0.11411E-03   -0.12993E-03  7744   0.235E-02    0.238E-02
DAV:   3    -0.332839749705E+04    0.47173E-05   -0.20975E-05  8288   0.451E-03    0.152E-02
DAV:   4    -0.332839749813E+04   -0.10718E-05   -0.13779E-05  7296   0.351E-03    0.381E-03
DAV:   5    -0.332839749862E+04   -0.49872E-06   -0.31612E-06  6112   0.161E-03
  33 F= -.33425978E+04 E0= -.33425978E+04  d E =-.483976E-03  mag=     1.0000
 BRION: g(F)=  0.107E-02 g(S)=  0.000E+00 retain N=  3 mean eig= 2.49
 eig:   7.018  0.150  0.317
 bond charge predicted
       N       E                     dE             d eps       ncg     rms          rms(c)
DAV:   1    -0.332839801754E+04   -0.51942E-03   -0.57367E-02  7232   0.175E-01    0.356E-02
DAV:   2    -0.332839814056E+04   -0.12302E-03   -0.13798E-03  7552   0.218E-02    0.242E-02
DAV:   3    -0.332839813575E+04    0.48141E-05   -0.18783E-05  8000   0.412E-03    0.154E-02
DAV:   4    -0.332839813815E+04   -0.24040E-05   -0.16044E-05  7328   0.342E-03    0.359E-03
DAV:   5    -0.332839813868E+04   -0.52713E-06   -0.32214E-06  5984   0.155E-03
  34 F= -.33425983E+04 E0= -.33425983E+04  d E =-.500797E-03  mag=     1.0000
 BRION: g(F)=  0.945E-03 g(S)=  0.000E+00 retain N=  3 mean eig= 1.49
 eig:   4.150  0.258  0.058
 bond charge predicted
       N       E                     dE             d eps       ncg     rms          rms(c)
DAV:   1    -0.332839861262E+04   -0.47447E-03   -0.47984E-02  7232   0.155E-01    0.327E-02
DAV:   2    -0.332839871819E+04   -0.10557E-03   -0.11824E-03  7424   0.192E-02    0.232E-02
DAV:   3    -0.332839871371E+04    0.44835E-05   -0.16302E-05  7648   0.375E-03    0.148E-02
DAV:   4    -0.332839871584E+04   -0.21331E-05   -0.14117E-05  7168   0.293E-03    0.320E-03
DAV:   5    -0.332839871646E+04   -0.61560E-06   -0.24435E-06  5952   0.125E-03
  35 F= -.33425987E+04 E0= -.33425987E+04  d E =-.447757E-03  mag=     1.0000
 BRION: g(F)=  0.934E-03 g(S)=  0.000E+00 retain N=  3 mean eig= 0.97
 eig:   2.476  0.190  0.252
 bond charge predicted
       N       E                     dE             d eps       ncg     rms          rms(c)
DAV:   1    -0.332839921433E+04   -0.49849E-03   -0.59511E-02  7232   0.169E-01    0.353E-02
DAV:   2    -0.332839934093E+04   -0.12660E-03   -0.14028E-03  7552   0.202E-02    0.236E-02
DAV:   3    -0.332839933650E+04    0.44336E-05   -0.18549E-05  7392   0.358E-03    0.149E-02
DAV:   4    -0.332839933885E+04   -0.23504E-05   -0.15545E-05  7200   0.323E-03    0.429E-03
DAV:   5    -0.332839933912E+04   -0.27311E-06   -0.34445E-06  5888   0.146E-03
  36 F= -.33425992E+04 E0= -.33425992E+04  d E =-.481764E-03  mag=     1.0000
 BRION: g(F)=  0.902E-03 g(S)=  0.000E+00 retain N=  2 mean eig= 2.23
 eig:   0.116  4.335
 bond charge predicted
       N       E                     dE             d eps       ncg     rms          rms(c)
DAV:   1    -0.332839988215E+04   -0.54331E-03   -0.74674E-02  7232   0.192E-01    0.405E-02
DAV:   2    -0.332840004533E+04   -0.16317E-03   -0.18203E-03  7488   0.235E-02    0.285E-02
DAV:   3    -0.332840003828E+04    0.70409E-05   -0.24512E-05  7936   0.456E-03    0.182E-02
DAV:   4    -0.332840004170E+04   -0.34190E-05   -0.21474E-05  7232   0.362E-03    0.394E-03
DAV:   5    -0.332840004262E+04   -0.91549E-06   -0.38546E-06  6048   0.156E-03
  37 F= -.33425998E+04 E0= -.33425998E+04  d E =-.543040E-03  mag=     1.0000
 BRION: g(F)=  0.887E-03 g(S)=  0.000E+00 retain N=  2 mean eig= 2.01
 eig:   0.166  3.861
 bond charge predicted
       N       E                     dE             d eps       ncg     rms          rms(c)
DAV:   1    -0.332840051067E+04   -0.46897E-03   -0.52766E-02  7232   0.167E-01    0.343E-02
DAV:   2    -0.332840062394E+04   -0.11327E-03   -0.12693E-03  7552   0.206E-02    0.230E-02
DAV:   3    -0.332840061983E+04    0.41093E-05   -0.17407E-05  7808   0.388E-03    0.146E-02
DAV:   4    -0.332840062246E+04   -0.26309E-05   -0.14803E-05  7232   0.320E-03    0.369E-03
DAV:   5    -0.332840062280E+04   -0.34063E-06   -0.29866E-06  6048   0.148E-03
  38 F= -.33426002E+04 E0= -.33426002E+04  d E =-.445191E-03  mag=     1.0000
 BRION: g(F)=  0.869E-03 g(S)=  0.000E+00 retain N=  2 mean eig= 0.44
 eig:   0.138  0.739
 bond charge predicted
       N       E                     dE             d eps       ncg     rms          rms(c)
DAV:   1    -0.332840111235E+04   -0.48989E-03   -0.64119E-02  7232   0.179E-01    0.373E-02
DAV:   2    -0.332840124899E+04   -0.13664E-03   -0.15259E-03  7584   0.218E-02    0.248E-02
DAV:   3    -0.332840124409E+04    0.48938E-05   -0.20491E-05  7744   0.397E-03    0.157E-02
DAV:   4    -0.332840124673E+04   -0.26356E-05   -0.17277E-05  7264   0.350E-03    0.426E-03
DAV:   5    -0.332840124710E+04   -0.37195E-06   -0.37633E-06  6016   0.162E-03
  39 F= -.33426007E+04 E0= -.33426007E+04  d E =-.479360E-03  mag=     1.0000
 BRION: g(F)=  0.857E-03 g(S)=  0.000E+00 retain N=  2 mean eig= 0.17
 eig:   0.173  0.173
 bond charge predicted
       N       E                     dE             d eps       ncg     rms          rms(c)
DAV:   1    -0.332840166159E+04   -0.41486E-03   -0.40128E-02  7232   0.138E-01    0.303E-02
DAV:   2    -0.332840175282E+04   -0.91229E-04   -0.10210E-03  7488   0.172E-02    0.223E-02
DAV:   3    -0.332840174862E+04    0.42059E-05   -0.14949E-05  7552   0.348E-03    0.142E-02
DAV:   4    -0.332840175028E+04   -0.16608E-05   -0.11996E-05  6976   0.258E-03    0.314E-03
DAV:   5    -0.332840175100E+04   -0.72026E-06   -0.19925E-06  5760   0.106E-03
  40 F= -.33426011E+04 E0= -.33426011E+04  d E =-.386471E-03  mag=     1.0000
 BRION: g(F)=  0.805E-03 g(S)=  0.000E+00 retain N=  2 mean eig= 2.13
 eig:   0.184  4.075
 bond charge predicted
       N       E                     dE             d eps       ncg     rms          rms(c)
DAV:   1    -0.332840227263E+04   -0.52235E-03   -0.81229E-02  7232   0.198E-01    0.416E-02
DAV:   2    -0.332840244486E+04   -0.17223E-03   -0.19166E-03  7584   0.238E-02    0.278E-02
DAV:   3    -0.332840243891E+04    0.59522E-05   -0.25316E-05  7648   0.431E-03    0.176E-02
DAV:   4    -0.332840244272E+04   -0.38173E-05   -0.22296E-05  7328   0.377E-03    0.486E-03
DAV:   5    -0.332840244305E+04   -0.32561E-06   -0.47330E-06  6176   0.175E-03
  41 F= -.33426016E+04 E0= -.33426016E+04  d E =-.526725E-03  mag=     1.0000
 BRION: g(F)=  0.796E-03 g(S)=  0.000E+00 retain N=  2 mean eig= 2.02
 eig:   0.130  3.902
 bond charge predicted
       N       E                     dE             d eps       ncg     rms          rms(c)
DAV:   1    -0.332840283860E+04   -0.39588E-03   -0.39622E-02  7232   0.144E-01    0.302E-02
DAV:   2    -0.332840292459E+04   -0.85982E-04   -0.96898E-04  7584   0.180E-02    0.204E-02
DAV:   3    -0.332840292117E+04    0.34138E-05   -0.13692E-05  7680   0.349E-03    0.129E-02
DAV:   4    -0.332840292309E+04   -0.19219E-05   -0.11138E-05  7040   0.280E-03    0.309E-03
DAV:   5    -0.332840292352E+04   -0.42922E-06   -0.20895E-06  5824   0.127E-03
  42 F= -.33426020E+04 E0= -.33426020E+04  d E =-.366974E-03  mag=     1.0000
 BRION: g(F)=  0.763E-03 g(S)=  0.000E+00 retain N=  2 mean eig= 0.53
 eig:   0.129  0.922
 bond charge predicted
       N       E                     dE             d eps       ncg     rms          rms(c)
DAV:   1    -0.332840339049E+04   -0.46739E-03   -0.61359E-02  7232   0.174E-01    0.371E-02
DAV:   2    -0.332840352368E+04   -0.13319E-03   -0.14962E-03  7456   0.214E-02    0.259E-02
DAV:   3    -0.332840351811E+04    0.55655E-05   -0.20968E-05  7904   0.419E-03    0.165E-02
DAV:   4    -0.332840352114E+04   -0.30273E-05   -0.18051E-05  7264   0.328E-03    0.376E-03
DAV:   5    -0.332840352182E+04   -0.67789E-06   -0.31553E-06  6048   0.143E-03
  43 F= -.33426024E+04 E0= -.33426024E+04  d E =-.452853E-03  mag=     1.0000
 BRION: g(F)=  0.760E-03 g(S)=  0.000E+00 retain N=  2 mean eig= 0.15
 eig:   0.199  0.099
 bond charge predicted
       N       E                     dE             d eps       ncg     rms          rms(c)
DAV:   1    -0.332840390545E+04   -0.38431E-03   -0.41456E-02  7232   0.139E-01    0.301E-02
DAV:   2    -0.332840399480E+04   -0.89350E-04   -0.99446E-04  7552   0.168E-02    0.199E-02
DAV:   3    -0.332840399182E+04    0.29844E-05   -0.13719E-05  7200   0.302E-03    0.125E-02
DAV:   4    -0.332840399338E+04   -0.15590E-05   -0.10792E-05  6944   0.268E-03    0.378E-03
DAV:   5    -0.332840399355E+04   -0.17369E-06   -0.23758E-06  5952   0.122E-03
  44 F= -.33426028E+04 E0= -.33426028E+04  d E =-.357040E-03  mag=     1.0000
 BRION: g(F)=  0.732E-03 g(S)=  0.000E+00 retain N=  2 mean eig= 1.77
 eig:   0.106  3.434
 bond charge predicted
       N       E                     dE             d eps       ncg     rms          rms(c)
DAV:   1    -0.332840443858E+04   -0.44520E-03   -0.57952E-02  7232   0.166E-01    0.361E-02
DAV:   2    -0.332840456569E+04   -0.12711E-03   -0.14266E-03  7520   0.204E-02    0.257E-02
DAV:   3    -0.332840456003E+04    0.56628E-05   -0.20372E-05  7488   0.407E-03    0.163E-02
DAV:   4    -0.332840456284E+04   -0.28162E-05   -0.16842E-05  7232   0.312E-03    0.365E-03
DAV:   5    -0.332840456369E+04   -0.84238E-06   -0.28575E-06  5888   0.133E-03
  45 F= -.33426032E+04 E0= -.33426032E+04  d E =-.431153E-03  mag=     1.0000
 BRION: g(F)=  0.705E-03 g(S)=  0.000E+00 retain N=  2 mean eig= 2.43
 eig:   0.166  4.687
 bond charge predicted
       N       E                     dE             d eps       ncg     rms          rms(c)
DAV:   1    -0.332840495432E+04   -0.39148E-03   -0.43744E-02  7232   0.149E-01    0.314E-02
DAV:   2    -0.332840504810E+04   -0.93778E-04   -0.10542E-03  7616   0.184E-02    0.209E-02
DAV:   3    -0.332840504485E+04    0.32544E-05   -0.14719E-05  7456   0.348E-03    0.133E-02
DAV:   4    -0.332840504714E+04   -0.22885E-05   -0.12422E-05  7136   0.288E-03    0.354E-03
DAV:   5    -0.332840504740E+04   -0.25937E-06   -0.24782E-06  6112   0.134E-03
  46 F= -.33426036E+04 E0= -.33426036E+04  d E =-.362626E-03  mag=     1.0000
 BRION: g(F)=  0.687E-03 g(S)=  0.000E+00 retain N=  2 mean eig= 0.65
 eig:   0.129  1.177
 bond charge predicted
       N       E                     dE             d eps       ncg     rms          rms(c)
DAV:   1    -0.332840547909E+04   -0.43195E-03   -0.61239E-02  7232   0.172E-01    0.369E-02
DAV:   2    -0.332840560892E+04   -0.12983E-03   -0.14589E-03  7520   0.210E-02    0.244E-02
DAV:   3    -0.332840560439E+04    0.45265E-05   -0.19933E-05  7584   0.390E-03    0.154E-02
DAV:   4    -0.332840560739E+04   -0.29947E-05   -0.16977E-05  7264   0.337E-03    0.417E-03
DAV:   5    -0.332840560776E+04   -0.36939E-06   -0.35274E-06  5952   0.158E-03
  47 F= -.33426040E+04 E0= -.33426040E+04  d E =-.420672E-03  mag=     1.0000
 BRION: g(F)=  0.686E-03 g(S)=  0.000E+00 retain N=  2 mean eig= 0.22
 eig:   0.222  0.222
 bond charge predicted
       N       E                     dE             d eps       ncg     rms          rms(c)
DAV:   1    -0.332840591207E+04   -0.30469E-03   -0.24362E-02  7232   0.107E-01    0.242E-02
DAV:   2    -0.332840596869E+04   -0.56613E-04   -0.63916E-04  7488   0.134E-02    0.181E-02
DAV:   3    -0.332840596597E+04    0.27154E-05   -0.99987E-06  7296   0.280E-03    0.115E-02
DAV:   4    -0.332840596708E+04   -0.11048E-05   -0.76050E-06  6464   0.202E-03    0.269E-03
DAV:   5    -0.332840596761E+04   -0.53516E-06   -0.11878E-06  5568   0.837E-04
  48 F= -.33426043E+04 E0= -.33426043E+04  d E =-.270040E-03  mag=     1.0000
 BRION: g(F)=  0.651E-03 g(S)=  0.000E+00 retain N=  2 mean eig= 1.76
 eig:   0.190  3.340
 bond charge predicted
       N       E                     dE             d eps       ncg     rms          rms(c)
DAV:   1    -0.332840641364E+04   -0.44656E-03   -0.71143E-02  7232   0.182E-01    0.391E-02
DAV:   2    -0.332840656306E+04   -0.14942E-03   -0.16735E-03  7520   0.218E-02    0.261E-02
DAV:   3    -0.332840655794E+04    0.51166E-05   -0.22763E-05  7520   0.400E-03    0.164E-02
DAV:   4    -0.332840656178E+04   -0.38386E-05   -0.19822E-05  7296   0.347E-03    0.466E-03
DAV:   5    -0.332840656208E+04   -0.29849E-06   -0.41073E-06  6048   0.163E-03
  49 F= -.33426047E+04 E0= -.33426047E+04  d E =-.442521E-03  mag=     1.0000
 BRION: g(F)=  0.642E-03 g(S)=  0.000E+00 retain N=  2 mean eig= 2.37
 eig:   0.138  4.593
 bond charge predicted
       N       E                     dE             d eps       ncg     rms          rms(c)
DAV:   1    -0.332840686882E+04   -0.30704E-03   -0.26885E-02  7232   0.118E-01    0.254E-02
DAV:   2    -0.332840692749E+04   -0.58669E-04   -0.66704E-04  7616   0.148E-02    0.172E-02
DAV:   3    -0.332840692513E+04    0.23610E-05   -0.98279E-06  7296   0.295E-03    0.108E-02
DAV:   4    -0.332840692674E+04   -0.16157E-05   -0.77497E-06  6656   0.231E-03    0.266E-03
DAV:   5    -0.332840692711E+04   -0.36240E-06   -0.13554E-06  5760   0.105E-03
  50 F= -.33426050E+04 E0= -.33426050E+04  d E =-.273437E-03  mag=     1.0000
 BRION: g(F)=  0.608E-03 g(S)=  0.000E+00 retain N=  2 mean eig= 0.73
 eig:   0.144  1.310
 bond charge predicted
       N       E                     dE             d eps       ncg     rms          rms(c)
DAV:   1    -0.332840733599E+04   -0.40925E-03   -0.56792E-02  7232   0.164E-01    0.359E-02
DAV:   2    -0.332840745780E+04   -0.12181E-03   -0.13796E-03  7456   0.201E-02    0.250E-02
DAV:   3    -0.332840745270E+04    0.50922E-05   -0.19792E-05  7520   0.399E-03    0.158E-02
DAV:   4    -0.332840745625E+04   -0.35495E-05   -0.16825E-05  7232   0.311E-03    0.377E-03
DAV:   5    -0.332840745690E+04   -0.65041E-06   -0.29008E-06  6080   0.138E-03
  51 F= -.33426054E+04 E0= -.33426054E+04  d E =-.392502E-03  mag=     1.0000
 BRION: g(F)=  0.606E-03 g(S)=  0.000E+00 retain N=  2 mean eig= 0.10
 eig:   0.196  0.010
 bond charge predicted
       N       E                     dE             d eps       ncg     rms          rms(c)
DAV:   1    -0.332840778307E+04   -0.32681E-03   -0.35507E-02  7232   0.127E-01    0.282E-02
DAV:   2    -0.332840785850E+04   -0.75435E-04   -0.84813E-04  7552   0.153E-02    0.184E-02
DAV:   3    -0.332840785606E+04    0.24409E-05   -0.11911E-05  7072   0.279E-03    0.115E-02
DAV:   4    -0.332840785801E+04   -0.19514E-05   -0.94738E-06  6880   0.246E-03    0.351E-03
DAV:   5    -0.332840785816E+04   -0.15087E-06   -0.19852E-06  5856   0.114E-03
  52 F= -.33426057E+04 E0= -.33426057E+04  d E =-.297127E-03  mag=     1.0000
 BRION: g(F)=  0.598E-03 g(S)=  0.000E+00 retain N=  2 mean eig= 1.51
 eig:   0.089  2.938
 bond charge predicted
       N       E                     dE             d eps       ncg     rms          rms(c)
DAV:   1    -0.332840821695E+04   -0.35894E-03   -0.42722E-02  7232   0.141E-01    0.315E-02
DAV:   2    -0.332840831051E+04   -0.93564E-04   -0.10629E-03  7552   0.173E-02    0.226E-02
DAV:   3    -0.332840830619E+04    0.43268E-05   -0.16104E-05  7392   0.356E-03    0.142E-02
DAV:   4    -0.332840830897E+04   -0.27847E-05   -0.12664E-05  7008   0.264E-03    0.333E-03
DAV:   5    -0.332840830973E+04   -0.75263E-06   -0.20446E-06  5792   0.113E-03
  53 F= -.33426060E+04 E0= -.33426060E+04  d E =-.334992E-03  mag=     1.0000
 BRION: g(F)=  0.577E-03 g(S)=  0.000E+00 retain N=  2 mean eig= 2.71
 eig:   0.169  5.253
 bond charge predicted
       N       E                     dE             d eps       ncg     rms          rms(c)
DAV:   1    -0.332840863314E+04   -0.32417E-03   -0.34474E-02  7232   0.131E-01    0.283E-02
DAV:   2    -0.332840870663E+04   -0.73488E-04   -0.83525E-04  7584   0.161E-02    0.188E-02
DAV:   3    -0.332840870403E+04    0.25966E-05   -0.12037E-05  7296   0.310E-03    0.118E-02
DAV:   4    -0.332840870648E+04   -0.24479E-05   -0.99961E-06  6816   0.254E-03    0.327E-03
DAV:   5    -0.332840870672E+04   -0.24203E-06   -0.19462E-06  5984   0.120E-03
  54 F= -.33426063E+04 E0= -.33426063E+04  d E =-.292161E-03  mag=     1.0000
 BRION: g(F)=  0.559E-03 g(S)=  0.000E+00 retain N=  2 mean eig= 0.77
 eig:   0.137  1.407
 bond charge predicted
       N       E                     dE             d eps       ncg     rms          rms(c)
DAV:   1    -0.332840907386E+04   -0.36738E-03   -0.50808E-02  7168   0.155E-01    0.340E-02
DAV:   2    -0.332840918046E+04   -0.10659E-03   -0.12131E-03  7520   0.188E-02    0.225E-02
DAV:   3    -0.332840917661E+04    0.38459E-05   -0.17091E-05  7360   0.358E-03    0.141E-02
DAV:   4    -0.332840918035E+04   -0.37407E-05   -0.14455E-05  7168   0.301E-03    0.386E-03
DAV:   5    -0.332840918072E+04   -0.36170E-06   -0.28710E-06  5888   0.143E-03
  55 F= -.33426066E+04 E0= -.33426066E+04  d E =-.349621E-03  mag=     1.0000
 BRION: g(F)=  0.552E-03 g(S)=  0.000E+00 retain N=  2 mean eig= 0.22
 eig:   0.224  0.224
 bond charge predicted
       N       E                     dE             d eps       ncg     rms          rms(c)
DAV:   1    -0.332840945026E+04   -0.26991E-03   -0.22411E-02  7296   0.101E-01    0.235E-02
DAV:   2    -0.332840950063E+04   -0.50367E-04   -0.57588E-04  7488   0.125E-02    0.171E-02
DAV:   3    -0.332840949815E+04    0.24801E-05   -0.91890E-06  7008   0.265E-03    0.107E-02
DAV:   4    -0.332840949983E+04   -0.16859E-05   -0.68473E-06  6528   0.190E-03    0.258E-03
DAV:   5    -0.332840950035E+04   -0.51490E-06   -0.10110E-06  5472   0.803E-04
  56 F= -.33426069E+04 E0= -.33426069E+04  d E =-.235532E-03  mag=     1.0000
 BRION: g(F)=  0.532E-03 g(S)=  0.000E+00 retain N=  2 mean eig= 1.63
 eig:   0.192  3.072
 bond charge predicted
       N       E                     dE             d eps       ncg     rms          rms(c)
DAV:   1    -0.332840988677E+04   -0.38693E-03   -0.63225E-02  7168   0.169E-01    0.375E-02
DAV:   2    -0.332841001758E+04   -0.13081E-03   -0.14873E-03  7520   0.202E-02    0.248E-02
DAV:   3    -0.332841001288E+04    0.47020E-05   -0.21057E-05  7232   0.380E-03    0.155E-02
DAV:   4    -0.332841001805E+04   -0.51777E-05   -0.17909E-05  7296   0.322E-03    0.443E-03
DAV:   5    -0.332841001841E+04   -0.35355E-06   -0.35934E-06  5984   0.154E-03
  57 F= -.33426073E+04 E0= -.33426073E+04  d E =-.378980E-03  mag=     1.0000
 BRION: g(F)=  0.535E-03 g(S)=  0.000E+00 retain N=  2 mean eig= 2.56
 eig:   0.137  4.975
 bond charge predicted
       N       E                     dE             d eps       ncg     rms          rms(c)
DAV:   1    -0.332841025608E+04   -0.23803E-03   -0.17981E-02  7296   0.957E-02    0.213E-02
DAV:   2    -0.332841029526E+04   -0.39185E-04   -0.45242E-04  7584   0.121E-02    0.144E-02
DAV:   3    -0.332841029357E+04    0.16906E-05   -0.70165E-06  7040   0.248E-03    0.899E-03
DAV:   4    -0.332841029521E+04   -0.16362E-05   -0.53173E-06  6336   0.190E-03    0.231E-03
DAV:   5    -0.332841029553E+04   -0.32387E-06   -0.86384E-07  5536   0.875E-04
  58 F= -.33426075E+04 E0= -.33426075E+04  d E =-.204716E-03  mag=     1.0000
 BRION: g(F)=  0.506E-03 g(S)=  0.000E+00 retain N=  2 mean eig= 0.78
 eig:   0.149  1.408
 bond charge predicted
       N       E                     dE             d eps       ncg     rms          rms(c)
DAV:   1    -0.332841063575E+04   -0.34054E-03   -0.44132E-02  7168   0.143E-01    0.323E-02
DAV:   2    -0.332841072938E+04   -0.93638E-04   -0.10791E-03  7488   0.176E-02    0.223E-02
DAV:   3    -0.332841072514E+04    0.42460E-05   -0.16363E-05  7328   0.356E-03    0.140E-02
DAV:   4    -0.332841072935E+04   -0.42132E-05   -0.13277E-05  7040   0.271E-03    0.350E-03
DAV:   5    -0.332841073003E+04   -0.68138E-06   -0.22064E-06  6016   0.122E-03
  59 F= -.33426078E+04 E0= -.33426078E+04  d E =-.317634E-03  mag=     1.0000
 BRION: g(F)=  0.501E-03 g(S)=  0.000E+00 retain N=  2 mean eig= 0.12
 eig:   0.211  0.026
 bond charge predicted
       N       E                     dE             d eps       ncg     rms          rms(c)
DAV:   1    -0.332841103745E+04   -0.30810E-03   -0.37506E-02  7232   0.129E-01    0.294E-02
DAV:   2    -0.332841111487E+04   -0.77419E-04   -0.88869E-04  7552   0.154E-02    0.191E-02
DAV:   3    -0.332841111217E+04    0.26959E-05   -0.12907E-05  6976   0.291E-03    0.118E-02
DAV:   4    -0.332841111587E+04   -0.36965E-05   -0.10387E-05  6880   0.247E-03    0.353E-03
DAV:   5    -0.332841111611E+04   -0.24529E-06   -0.20695E-06  5856   0.119E-03
  60 F= -.33426081E+04 E0= -.33426081E+04  d E =-.282097E-03  mag=     1.0000
 BRION: g(F)=  0.498E-03 g(S)=  0.000E+00 retain N=  2 mean eig= 1.43
 eig:   0.091  2.778
 bond charge predicted
       N       E                     dE             d eps       ncg     rms          rms(c)
DAV:   1    -0.332841139787E+04   -0.28200E-03   -0.28608E-02  7232   0.114E-01    0.265E-02
DAV:   2    -0.332841145995E+04   -0.62077E-04   -0.71993E-04  7520   0.140E-02    0.189E-02
DAV:   3    -0.332841145662E+04    0.33280E-05   -0.11695E-05  7136   0.298E-03    0.118E-02
DAV:   4    -0.332841145977E+04   -0.31524E-05   -0.86510E-06  6624   0.215E-03    0.293E-03
DAV:   5    -0.332841146049E+04   -0.71665E-06   -0.13039E-06  5632   0.933E-04
  61 F= -.33426083E+04 E0= -.33426083E+04  d E =-.252630E-03  mag=     1.0000
 BRION: g(F)=  0.482E-03 g(S)=  0.000E+00 retain N=  2 mean eig= 2.79
 eig:   0.175  5.402
 bond charge predicted
       N       E                     dE             d eps       ncg     rms          rms(c)
DAV:   1    -0.332841176110E+04   -0.30133E-03   -0.35894E-02  7232   0.130E-01    0.293E-02
DAV:   2    -0.332841183628E+04   -0.75186E-04   -0.87163E-04  7584   0.160E-02    0.195E-02
DAV:   3    -0.332841183329E+04    0.29949E-05   -0.13223E-05  7072   0.315E-03    0.122E-02
DAV:   4    -0.332841183736E+04   -0.40715E-05   -0.10656E-05  6848   0.250E-03    0.341E-03
DAV:   5    -0.332841183778E+04   -0.41991E-06   -0.19815E-06  5984   0.120E-03
  62 F= -.33426086E+04 E0= -.33426086E+04  d E =-.274830E-03  mag=     1.0000
 BRION: g(F)=  0.475E-03 g(S)=  0.000E+00 retain N=  2 mean eig= 0.82
 eig:   0.155  1.493
 bond charge predicted
       N       E                     dE             d eps       ncg     rms          rms(c)
DAV:   1    -0.332841213441E+04   -0.29705E-03   -0.36032E-02  7232   0.129E-01    0.295E-02
DAV:   2    -0.332841220938E+04   -0.74969E-04   -0.87046E-04  7552   0.157E-02    0.193E-02
DAV:   3    -0.332841220642E+04    0.29582E-05   -0.13217E-05  7200   0.309E-03    0.120E-02
DAV:   4    -0.332841221066E+04   -0.42378E-05   -0.10451E-05  6848   0.249E-03    0.340E-03
DAV:   5    -0.332841221107E+04   -0.40827E-06   -0.19698E-06  5888   0.120E-03
  63 F= -.33426089E+04 E0= -.33426089E+04  d E =-.273274E-03  mag=     1.0000
 BRION: g(F)=  0.468E-03 g(S)=  0.000E+00 retain N=  2 mean eig= 0.18
 eig:   0.175  0.175
 bond charge predicted
       N       E                     dE             d eps       ncg     rms          rms(c)
DAV:   1    -0.332841244457E+04   -0.23391E-03   -0.18723E-02  7232   0.911E-02    0.220E-02
DAV:   2    -0.332841248540E+04   -0.40827E-04   -0.47761E-04  7552   0.113E-02    0.157E-02
DAV:   3    -0.332841248310E+04    0.23021E-05   -0.81726E-06  6848   0.244E-03    0.964E-03
DAV:   4    -0.332841248547E+04   -0.23735E-05   -0.55462E-06  6304   0.169E-03    0.247E-03
DAV:   5    -0.332841248606E+04   -0.58638E-06   -0.78603E-07  5376   0.728E-04
  64 F= -.33426091E+04 E0= -.33426091E+04  d E =-.201808E-03  mag=     1.0000
 BRION: g(F)=  0.448E-03 g(S)=  0.000E+00 retain N=  2 mean eig= 1.57
 eig:   0.199  2.938
 bond charge predicted
       N       E                     dE             d eps       ncg     rms          rms(c)
DAV:   1    -0.332841283846E+04   -0.35299E-03   -0.61330E-02  7168   0.164E-01    0.381E-02
DAV:   2    -0.332841296380E+04   -0.12534E-03   -0.14531E-03  7520   0.196E-02    0.252E-02
DAV:   3    -0.332841295928E+04    0.45244E-05   -0.22679E-05  7232   0.389E-03    0.155E-02
DAV:   4    -0.332841296617E+04   -0.68955E-05   -0.17770E-05  7264   0.307E-03    0.443E-03
DAV:   5    -0.332841296674E+04   -0.56997E-06   -0.33401E-06  6016   0.148E-03
  65 F= -.33426094E+04 E0= -.33426094E+04  d E =-.351125E-03  mag=     1.0000
 BRION: g(F)=  0.455E-03 g(S)=  0.000E+00 retain N=  2 mean eig= 2.64
 eig:   0.153  5.126
 bond charge predicted
       N       E                     dE             d eps       ncg     rms          rms(c)
DAV:   1    -0.332841317060E+04   -0.20442E-03   -0.14647E-02  7232   0.835E-02    0.199E-02
DAV:   2    -0.332841320219E+04   -0.31589E-04   -0.37166E-04  7552   0.105E-02    0.133E-02
DAV:   3    -0.332841320082E+04    0.13608E-05   -0.63297E-06  6624   0.223E-03    0.817E-03
DAV:   4    -0.332841320260E+04   -0.17793E-05   -0.43938E-06  6240   0.163E-03    0.227E-03
DAV:   5    -0.332841320292E+04   -0.31840E-06   -0.63905E-07  5376   0.756E-04
  66 F= -.33426096E+04 E0= -.33426096E+04  d E =-.174230E-03  mag=     1.0000
 BRION: g(F)=  0.439E-03 g(S)=  0.000E+00 retain N=  2 mean eig= 0.78
 eig:   0.148  1.403
 bond charge predicted
       N       E                     dE             d eps       ncg     rms          rms(c)
DAV:   1    -0.332841347382E+04   -0.27122E-03   -0.29561E-02  7232   0.116E-01    0.275E-02
DAV:   2    -0.332841353664E+04   -0.62815E-04   -0.73718E-04  7584   0.143E-02    0.190E-02
DAV:   3    -0.332841353378E+04    0.28611E-05   -0.12606E-05  6848   0.303E-03    0.117E-02
DAV:   4    -0.332841353701E+04   -0.32324E-05   -0.91412E-06  6656   0.219E-03    0.317E-03
DAV:   5    -0.332841353756E+04   -0.54471E-06   -0.13946E-06  5792   0.998E-04
  67 F= -.33426098E+04 E0= -.33426098E+04  d E =-.245308E-03  mag=     1.0000
 BRION: g(F)=  0.434E-03 g(S)=  0.000E+00 retain N=  2 mean eig= 0.14
 eig:   0.209  0.064
 bond charge predicted
       N       E                     dE             d eps       ncg     rms          rms(c)
DAV:   1    -0.332841385537E+04   -0.31836E-03   -0.50381E-02  7168   0.148E-01    0.352E-02
DAV:   2    -0.332841395830E+04   -0.10293E-03   -0.11998E-03  7552   0.176E-02    0.229E-02
DAV:   3    -0.332841395506E+04    0.32436E-05   -0.19522E-05  7168   0.355E-03    0.141E-02
DAV:   4    -0.332841395990E+04   -0.48350E-05   -0.14458E-05  7104   0.275E-03    0.414E-03
DAV:   5    -0.332841396031E+04   -0.41642E-06   -0.26910E-06  5952   0.134E-03
  68 F= -.33426101E+04 E0= -.33426101E+04  d E =-.309637E-03  mag=     1.0000
 BRION: g(F)=  0.440E-03 g(S)=  0.000E+00 retain N=  2 mean eig= 1.19
 eig:   0.094  2.279
 bond charge predicted
       N       E                     dE             d eps       ncg     rms          rms(c)
DAV:   1    -0.332841414892E+04   -0.18903E-03   -0.12872E-02  7232   0.759E-02    0.191E-02
DAV:   2    -0.332841417835E+04   -0.29425E-04   -0.34673E-04  7616   0.968E-03    0.139E-02
DAV:   3    -0.332841417676E+04    0.15927E-05   -0.66774E-06  6656   0.220E-03    0.849E-03
DAV:   4    -0.332841417806E+04   -0.12986E-05   -0.40290E-06  6112   0.145E-03    0.235E-03
DAV:   5    -0.332841417850E+04   -0.44389E-06   -0.53299E-07  5344   0.625E-04
  69 F= -.33426103E+04 E0= -.33426103E+04  d E =-.161051E-03  mag=     1.0000
 BRION: g(F)=  0.428E-03 g(S)=  0.000E+00 retain N=  2 mean eig= 2.82
 eig:   0.169  5.479
 bond charge predicted
       N       E                     dE             d eps       ncg     rms          rms(c)
DAV:   1    -0.332841446716E+04   -0.28911E-03   -0.39701E-02  7168   0.134E-01    0.318E-02
DAV:   2    -0.332841455049E+04   -0.83324E-04   -0.97640E-04  7584   0.165E-02    0.212E-02
DAV:   3    -0.332841454759E+04    0.28973E-05   -0.16567E-05  7104   0.342E-03    0.131E-02
DAV:   4    -0.332841455127E+04   -0.36833E-05   -0.12172E-05  6848   0.255E-03    0.382E-03
DAV:   5    -0.332841455176E+04   -0.48429E-06   -0.21271E-06  6112   0.123E-03
  70 F= -.33426106E+04 E0= -.33426106E+04  d E =-.273295E-03  mag=     1.0000
 BRION: g(F)=  0.424E-03 g(S)=  0.000E+00 retain N=  2 mean eig= 0.84
 eig:   0.159  1.520
 bond charge predicted
       N       E                     dE             d eps       ncg     rms          rms(c)
DAV:   1    -0.332841479181E+04   -0.24053E-03   -0.25502E-02  7232   0.108E-01    0.259E-02
DAV:   2    -0.332841484523E+04   -0.53422E-04   -0.62912E-04  7584   0.132E-02    0.168E-02
DAV:   3    -0.332841484357E+04    0.16569E-05   -0.10685E-05  6816   0.274E-03    0.103E-02
DAV:   4    -0.332841484596E+04   -0.23874E-05   -0.75366E-06  6400   0.207E-03    0.308E-03
DAV:   5    -0.332841484627E+04   -0.31071E-06   -0.13217E-06  5792   0.101E-03
  71 F= -.33426108E+04 E0= -.33426108E+04  d E =-.216554E-03  mag=     1.0000
 BRION: g(F)=  0.412E-03 g(S)=  0.000E+00 retain N=  2 mean eig= 0.22
 eig:   0.221  0.221
 bond charge predicted
       N       E                     dE             d eps       ncg     rms          rms(c)
DAV:   1    -0.332841508017E+04   -0.23420E-03   -0.22593E-02  7232   0.987E-02    0.248E-02
DAV:   2    -0.332841512919E+04   -0.49020E-04   -0.58161E-04  7616   0.122E-02    0.178E-02
DAV:   3    -0.332841512689E+04    0.22934E-05   -0.11100E-05  6720   0.276E-03    0.108E-02
DAV:   4    -0.332841512911E+04   -0.22155E-05   -0.67157E-06  6400   0.181E-03    0.295E-03
DAV:   5    -0.332841512976E+04   -0.65146E-06   -0.95007E-07  5472   0.781E-04
  72 F= -.33426110E+04 E0= -.33426110E+04  d E =-.208492E-03  mag=     1.0000
 BRION: g(F)=  0.398E-03 g(S)=  0.000E+00 retain N=  2 mean eig= 1.35
 eig:   0.167  2.533
 bond charge predicted
       N       E                     dE             d eps       ncg     rms          rms(c)
DAV:   1    -0.332841543716E+04   -0.30805E-03   -0.55359E-02  7168   0.154E-01    0.374E-02
DAV:   2    -0.332841555026E+04   -0.11310E-03   -0.13310E-03  7584   0.184E-02    0.244E-02
DAV:   3    -0.332841554694E+04    0.33177E-05   -0.22601E-05  7136   0.379E-03    0.149E-02
DAV:   4    -0.332841555216E+04   -0.52261E-05   -0.16196E-05  7104   0.285E-03    0.448E-03
DAV:   5    -0.332841555267E+04   -0.50885E-06   -0.29758E-06  6080   0.139E-03
 soft stop encountered!  aborting job ...
  73 F= -.33426113E+04 E0= -.33426113E+04  d E =-.308926E-03  mag=     1.0000
 BRION: g(F)=  0.415E-03 g(S)=  0.000E+00 retain N=  2 mean eig= 2.64
 eig:   0.128  5.143
 deleting file STOPCAR
 PROFILE, used timers:     329
