 running  256 mpi-ranks, with    1 threads/rank, on    7 nodes
 distrk:  each k-point on  128 cores,    2 groups
 distr:  one band on    4 cores,   32 groups
 vasp.6.4.1 05Apr23 (build May 18 2023 13:19:41) complex                         
 POSCAR found type information on POSCAR C S O H 
 POSCAR found :  4 types and     368 ions
 Reading from existing POTCAR
 scaLAPACK will be used
 Reading from existing POTCAR
 -----------------------------------------------------------------------------
|                                                                             |
|               ----> ADVICE to this user running VASP <----                  |
|                                                                             |
|     You have a (more or less) 'large supercell' and for larger cells it     |
|     might be more efficient to use real-space projection operators.         |
|     Therefore, try LREAL= Auto in the INCAR file.                           |
|     Mind: If you want to do very accurate calculations, keep the            |
|     reciprocal projection scheme (i.e. LREAL=.FALSE.).                      |
|                                                                             |
 -----------------------------------------------------------------------------

 LDA part: xc-table for Pade appr. of Perdew
 POSCAR, INCAR and KPOINTS ok, starting setup
 FFT: planning ... GRIDC
 FFT: planning ... GRID_SOFT
 FFT: planning ... GRID
 WAVECAR not read
 charge-density read from file: 01_AOPT                                 
 magnetization density read from file 1
 WARNING: random wavefunctions but no delay for mixing, default for NELMDL
 entering main loop
       N       E                     dE             d eps       ncg     rms          rms(c)
DAV:   1     0.113534138307E+05    0.11353E+05   -0.41744E+05  8576   0.939E+02
DAV:   2     0.408674073543E+03   -0.10945E+05   -0.10190E+05 11296   0.213E+02
DAV:   3    -0.302041524322E+04   -0.34291E+04   -0.32747E+04  9216   0.116E+02
DAV:   4    -0.331651128536E+04   -0.29610E+03   -0.28751E+03  8896   0.389E+01
DAV:   5    -0.332823544460E+04   -0.11724E+02   -0.11472E+02 10304   0.703E+00    0.130E-01
DAV:   6    -0.332848352324E+04   -0.24808E+00   -0.24537E+00  9504   0.104E+00    0.764E-02
DAV:   7    -0.332849055547E+04   -0.70322E-02   -0.70013E-02 10112   0.192E-01    0.479E-02
DAV:   8    -0.332849075442E+04   -0.19895E-03   -0.24566E-03  9664   0.361E-02    0.364E-02
DAV:   9    -0.332849074734E+04    0.70792E-05   -0.11267E-04  9376   0.810E-03    0.293E-02
DAV:  10    -0.332849072419E+04    0.23150E-04   -0.15447E-05  7904   0.433E-03    0.192E-02
DAV:  11    -0.332849071054E+04    0.13647E-04   -0.84763E-06  8384   0.314E-03    0.117E-02
DAV:  12    -0.332849070249E+04    0.80538E-05   -0.17237E-06  6368   0.159E-03    0.779E-03
DAV:  13    -0.332849069068E+04    0.11810E-04   -0.17488E-06  6368   0.161E-03    0.293E-03
DAV:  14    -0.332849068592E+04    0.47637E-05   -0.64937E-07  5152   0.999E-04    0.100E-03
DAV:  15    -0.332849068468E+04    0.12375E-05   -0.12932E-07  4960   0.581E-04    0.418E-04
DAV:  16    -0.332849068438E+04    0.29663E-06    0.21748E-09  4896   0.357E-04
   1 F= -.33426793E+04 E0= -.33426793E+04  d E =-.334268E+04  mag=     1.0000
 BRION: g(F)=  0.107E-03 g(S)=  0.000E+00
 bond charge predicted
       N       E                     dE             d eps       ncg     rms          rms(c)
DAV:   1    -0.332849074772E+04   -0.63043E-04   -0.26051E-02  7904   0.865E-02    0.251E-02
DAV:   2    -0.332849078295E+04   -0.35230E-04   -0.45014E-04  8160   0.844E-03    0.148E-02
DAV:   3    -0.332849078485E+04   -0.18992E-05   -0.12050E-05  7136   0.220E-03    0.805E-03
DAV:   4    -0.332849078609E+04   -0.12401E-05   -0.33651E-06  6464   0.130E-03    0.329E-03
DAV:   5    -0.332849078628E+04   -0.18801E-06   -0.86345E-07  5888   0.595E-04
   2 F= -.33426794E+04 E0= -.33426794E+04  d E =-.629683E-04  mag=     1.0000
 BRION: g(F)=  0.410E-03 g(S)=  0.000E+00 retain N=  1 mean eig= 0.11
 eig:   0.111
 bond charge predicted
       N       E                     dE             d eps       ncg     rms          rms(c)
DAV:   1    -0.332849083238E+04   -0.46286E-04   -0.27250E-03  7168   0.266E-02    0.105E-02
DAV:   2    -0.332849083805E+04   -0.56743E-05   -0.71340E-05  7264   0.343E-03    0.748E-03
DAV:   3    -0.332849083762E+04    0.42852E-06   -0.27003E-06  5792   0.925E-04
   3 F= -.33426794E+04 E0= -.33426794E+04  d E =-.439490E-04  mag=     1.0000
 BRION: g(F)=  0.952E-04 g(S)=  0.000E+00 retain N=  1 mean eig= 0.19
 eig:   0.185
 bond charge predicted
       N       E                     dE             d eps       ncg     rms          rms(c)
DAV:   1    -0.332849093831E+04   -0.10025E-03   -0.23769E-02  7552   0.809E-02    0.216E-02
DAV:   2    -0.332849095827E+04   -0.19961E-04   -0.27008E-04  7392   0.625E-03    0.108E-02
DAV:   3    -0.332849096160E+04   -0.33362E-05   -0.52614E-06  6336   0.131E-03    0.542E-03
DAV:   4    -0.332849096326E+04   -0.16608E-05   -0.11961E-06  5824   0.753E-04    0.142E-03
DAV:   5    -0.332849096340E+04   -0.13725E-06   -0.88893E-08  5120   0.316E-04
   4 F= -.33426795E+04 E0= -.33426795E+04  d E =-.914226E-04  mag=     1.0000
 BRION: g(F)=  0.107E-03 g(S)=  0.000E+00 retain N=  2 mean eig= 0.16
 eig:   0.191  0.134
 bond charge predicted
       N       E                     dE             d eps       ncg     rms          rms(c)
DAV:   1    -0.332849098418E+04   -0.20916E-04   -0.74494E-04  6784   0.144E-02    0.427E-03
DAV:   2    -0.332849098494E+04   -0.75600E-06   -0.10532E-05  5952   0.124E-03    0.206E-03
DAV:   3    -0.332849098498E+04   -0.44005E-07   -0.15227E-07  5408   0.321E-04
   5 F= -.33426795E+04 E0= -.33426795E+04  d E =-.166508E-04  mag=     1.0000
 BRION: g(F)=  0.992E-04 g(S)=  0.000E+00 retain N=  1 mean eig= 0.42
 eig:   0.416
 bond charge predicted
       N       E                     dE             d eps       ncg     rms          rms(c)
DAV:   1    -0.332849110207E+04   -0.11713E-03   -0.32829E-02  7424   0.951E-02    0.245E-02
DAV:   2    -0.332849112496E+04   -0.22893E-04   -0.32580E-04  7200   0.695E-03    0.125E-02
DAV:   3    -0.332849112959E+04   -0.46317E-05   -0.75761E-06  6336   0.161E-03    0.642E-03
DAV:   4    -0.332849113164E+04   -0.20417E-05   -0.18196E-06  5952   0.933E-04    0.199E-03
DAV:   5    -0.332849113187E+04   -0.23947E-06   -0.22426E-07  5344   0.366E-04
   6 F= -.33426796E+04 E0= -.33426796E+04  d E =-.108103E-03  mag=     1.0000
 BRION: g(F)=  0.119E-03 g(S)=  0.000E+00 retain N=  2 mean eig= 0.21
 eig:   0.315  0.100
 bond charge predicted
       N       E                     dE             d eps       ncg     rms          rms(c)
DAV:   1    -0.332849114871E+04   -0.17072E-04   -0.39900E-04  6656   0.105E-02    0.303E-03
DAV:   2    -0.332849114919E+04   -0.48184E-06   -0.54220E-06  5824   0.923E-04
   7 F= -.33426797E+04 E0= -.33426797E+04  d E =-.131246E-04  mag=     1.0000
 BRION: g(F)=  0.993E-04 g(S)=  0.000E+00 retain N=  1 mean eig= 0.25
 eig:   0.250
 bond charge predicted
       N       E                     dE             d eps       ncg     rms          rms(c)
DAV:   1    -0.332849126790E+04   -0.11920E-03   -0.29899E-02  7424   0.906E-02    0.234E-02
DAV:   2    -0.332849128533E+04   -0.17427E-04   -0.26839E-04  6816   0.637E-03    0.118E-02
DAV:   3    -0.332849128990E+04   -0.45744E-05   -0.60852E-06  6176   0.143E-03    0.570E-03
DAV:   4    -0.332849129158E+04   -0.16735E-05   -0.14196E-06  5824   0.808E-04    0.168E-03
DAV:   5    -0.332849129172E+04   -0.14435E-06   -0.10967E-07  4992   0.315E-04
   8 F= -.33426798E+04 E0= -.33426798E+04  d E =-.106103E-03  mag=     1.0000
 BRION: g(F)=  0.108E-03 g(S)=  0.000E+00 retain N=  1 mean eig= 4.70
 eig:   4.704
 bond charge predicted
       N       E                     dE             d eps       ncg     rms          rms(c)
DAV:   1    -0.332848916444E+04    0.21271E-02   -0.14522E+00  7328   0.632E-01    0.158E-01
DAV:   2    -0.332848999827E+04   -0.83383E-03   -0.12476E-02  7488   0.437E-02    0.806E-02
DAV:   3    -0.332849021510E+04   -0.21682E-03   -0.29143E-04  7296   0.941E-03    0.387E-02
DAV:   4    -0.332849031148E+04   -0.96388E-04   -0.74509E-05  7232   0.528E-03    0.111E-02
DAV:   5    -0.332849031426E+04   -0.27716E-05   -0.99862E-06  6720   0.191E-03    0.597E-03
DAV:   6    -0.332849031534E+04   -0.10883E-05   -0.21526E-06  5792   0.916E-04    0.160E-03
DAV:   7    -0.332849031645E+04   -0.11064E-05   -0.35340E-07  5344   0.420E-04    0.690E-04
DAV:   8    -0.332849031747E+04   -0.10242E-05    0.61891E-08  4288   0.180E-04    0.420E-04
DAV:   9    -0.332849031874E+04   -0.12693E-05    0.73996E-08  4448   0.125E-04    0.261E-04
DAV:  10    -0.332849032011E+04   -0.13680E-05    0.72504E-08  4480   0.115E-04    0.163E-04
DAV:  11    -0.332849032117E+04   -0.10591E-05    0.86550E-08  4384   0.899E-05    0.110E-04
DAV:  12    -0.332849032198E+04   -0.81048E-06    0.97800E-08  4256   0.735E-05
   9 F= -.33426790E+04 E0= -.33426790E+04  d E =0.718032E-03  mag=     1.0000
 BRION: g(F)=  0.275E-03 g(S)=  0.000E+00 retain N=  1 mean eig= 0.88
 eig:   0.879
 bond charge predicted
       N       E                     dE             d eps       ncg     rms          rms(c)
DAV:   1    -0.332848967960E+04    0.64157E-03   -0.21933E+00  7200   0.777E-01    0.195E-01
DAV:   2    -0.332849109588E+04   -0.14163E-02   -0.19736E-02  7584   0.549E-02    0.100E-01
DAV:   3    -0.332849137580E+04   -0.27992E-03   -0.47112E-04  7552   0.117E-02    0.490E-02
DAV:   4    -0.332849149820E+04   -0.12240E-03   -0.10257E-04  7008   0.602E-03    0.132E-02
DAV:   5    -0.332849150308E+04   -0.48740E-05   -0.14089E-05  6688   0.235E-03    0.734E-03
DAV:   6    -0.332849150560E+04   -0.25259E-05   -0.14346E-06  5600   0.808E-04    0.359E-03
DAV:   7    -0.332849150824E+04   -0.26416E-05   -0.81778E-07  5536   0.576E-04    0.110E-03
DAV:   8    -0.332849150952E+04   -0.12763E-05   -0.28470E-10  4672   0.284E-04    0.654E-04
DAV:   9    -0.332849151108E+04   -0.15598E-05    0.55670E-08  4416   0.161E-04    0.443E-04
DAV:  10    -0.332849151360E+04   -0.25228E-05    0.84287E-09  4608   0.153E-04    0.240E-04
DAV:  11    -0.332849151530E+04   -0.17020E-05    0.49421E-08  4544   0.122E-04    0.162E-04
DAV:  12    -0.332849151651E+04   -0.12030E-05    0.85971E-08  4384   0.928E-05    0.116E-04
DAV:  13    -0.332849151793E+04   -0.14255E-05    0.79285E-08  4544   0.963E-05    0.592E-05
DAV:  14    -0.332849151862E+04   -0.68557E-06    0.10412E-07  4320   0.667E-05
  10 F= -.33426799E+04 E0= -.33426799E+04  d E =-.887306E-03  mag=     1.0000
 BRION: g(F)=  0.146E-03 g(S)=  0.000E+00 retain N=  1 mean eig= 0.74
 eig:   0.737
 bond charge predicted
       N       E                     dE             d eps       ncg     rms          rms(c)
DAV:   1    -0.332849113278E+04    0.38515E-03   -0.12496E-01  7328   0.185E-01    0.463E-02
DAV:   2    -0.332849120055E+04   -0.67770E-04   -0.10359E-03  7552   0.127E-02    0.233E-02
DAV:   3    -0.332849122149E+04   -0.20942E-04   -0.24483E-05  6784   0.273E-03    0.111E-02
DAV:   4    -0.332849122818E+04   -0.66891E-05   -0.58521E-06  6304   0.151E-03    0.323E-03
DAV:   5    -0.332849122846E+04   -0.28545E-06   -0.71196E-07  5664   0.566E-04
  11 F= -.33426797E+04 E0= -.33426797E+04  d E =0.218182E-03  mag=     1.0000
 BRION: g(F)=  0.119E-03 g(S)=  0.000E+00 retain N=  2 mean eig= 2.76
 eig:   0.711  4.807
 bond charge predicted
       N       E                     dE             d eps       ncg     rms          rms(c)
DAV:   1    -0.332849108458E+04    0.14360E-03   -0.22384E-02  7296   0.783E-02    0.204E-02
DAV:   2    -0.332849110022E+04   -0.15640E-04   -0.21966E-04  6880   0.578E-03    0.103E-02
DAV:   3    -0.332849110332E+04   -0.31001E-05   -0.45685E-06  6112   0.128E-03    0.508E-03
DAV:   4    -0.332849110474E+04   -0.14160E-05   -0.10516E-06  5760   0.721E-04    0.139E-03
DAV:   5    -0.332849110485E+04   -0.11164E-06   -0.56190E-08  4864   0.284E-04
  12 F= -.33426796E+04 E0= -.33426796E+04  d E =0.925720E-04  mag=     1.0000
 BRION: g(F)=  0.122E-03 g(S)=  0.000E+00 retain N=  2 mean eig= 1.28
 eig:   1.457  1.098
 bond charge predicted
       N       E                     dE             d eps       ncg     rms          rms(c)
DAV:   1    -0.332848995619E+04    0.11486E-02   -0.65113E-01  7232   0.423E-01    0.107E-01
DAV:   2    -0.332849031863E+04   -0.36245E-03   -0.55611E-03  7552   0.292E-02    0.543E-02
DAV:   3    -0.332849042434E+04   -0.10571E-03   -0.13172E-04  7168   0.657E-03    0.267E-02
DAV:   4    -0.332849046971E+04   -0.45365E-04   -0.34538E-05  7168   0.374E-03    0.771E-03
DAV:   5    -0.332849047148E+04   -0.17677E-05   -0.47433E-06  6336   0.130E-03    0.392E-03
DAV:   6    -0.332849047245E+04   -0.97556E-06   -0.89009E-07  5536   0.600E-04
  13 F= -.33426792E+04 E0= -.33426792E+04  d E =0.473827E-03  mag=     1.0000
 BRION: g(F)=  0.109E-03 g(S)=  0.000E+00 retain N=  2 mean eig= 3.65
 eig:   0.667  6.624
 bond charge predicted
       N       E                     dE             d eps       ncg     rms          rms(c)
DAV:   1    -0.332849024072E+04    0.23076E-03   -0.34356E-02  7296   0.968E-02    0.278E-02
DAV:   2    -0.332849027720E+04   -0.36480E-04   -0.51785E-04  7360   0.884E-03    0.178E-02
DAV:   3    -0.332849027526E+04    0.19310E-05   -0.19823E-05  6464   0.226E-03    0.700E-03
DAV:   4    -0.332849027498E+04    0.28277E-06   -0.37436E-06  6720   0.135E-03
  14 F= -.33426790E+04 E0= -.33426790E+04  d E =0.170516E-03  mag=     1.0000
 BRION: g(F)=  0.109E-02 g(S)=  0.000E+00 retain N=  2 mean eig= 2.33
 eig:   2.335  2.335
 bond charge predicted
       N       E                     dE             d eps       ncg     rms          rms(c)
DAV:   1    -0.332848893114E+04    0.13441E-02   -0.87063E-01  7264   0.488E-01    0.126E-01
DAV:   2    -0.332848948223E+04   -0.55109E-03   -0.80806E-03  7520   0.353E-02    0.656E-02
DAV:   3    -0.332848963060E+04   -0.14837E-03   -0.19433E-04  7232   0.848E-03    0.337E-02
DAV:   4    -0.332848970466E+04   -0.74061E-04   -0.51495E-05  7296   0.485E-03    0.969E-03
DAV:   5    -0.332848971071E+04   -0.60495E-05   -0.77835E-06  6240   0.160E-03    0.451E-03
DAV:   6    -0.332848971240E+04   -0.16937E-05   -0.12467E-06  5504   0.728E-04    0.164E-03
DAV:   7    -0.332848971373E+04   -0.13319E-05   -0.16371E-07  5216   0.334E-04    0.658E-04
DAV:   8    -0.332848971468E+04   -0.95018E-06    0.66334E-08  4256   0.165E-04
  15 F= -.33426786E+04 E0= -.33426786E+04  d E =0.379807E-03  mag=     1.0000
 BRION: g(F)=  0.162E-03 g(S)=  0.000E+00 retain N=  1 mean eig= 0.21
 eig:   0.213
 bond charge predicted
       N       E                     dE             d eps       ncg     rms          rms(c)
DAV:   1    -0.332848971651E+04   -0.27716E-05   -0.57157E-02  7296   0.123E-01    0.450E-02
DAV:   2    -0.332848978111E+04   -0.64608E-04   -0.10172E-03  7648   0.128E-02    0.233E-02
DAV:   3    -0.332848977542E+04    0.56943E-05   -0.28418E-05  7136   0.324E-03    0.113E-02
DAV:   4    -0.332848977043E+04    0.49858E-05   -0.10065E-05  6432   0.209E-03    0.321E-03
DAV:   5    -0.332848977302E+04   -0.25883E-05   -0.14927E-06  5920   0.853E-04    0.214E-03
DAV:   6    -0.332848977615E+04   -0.31304E-05   -0.20568E-07  5568   0.510E-04    0.109E-03
DAV:   7    -0.332848977864E+04   -0.24933E-05    0.15157E-08  4640   0.372E-04    0.491E-04
DAV:   8    -0.332848978071E+04   -0.20693E-05    0.55111E-08  4384   0.222E-04    0.333E-04
DAV:   9    -0.332848978238E+04   -0.16642E-05    0.90888E-08  4416   0.119E-04    0.228E-04
DAV:  10    -0.332848978464E+04   -0.22647E-05    0.74704E-08  4448   0.124E-04    0.163E-04
DAV:  11    -0.332848978572E+04   -0.10760E-05    0.10113E-07  4448   0.892E-05    0.101E-04
DAV:  12    -0.332848978687E+04   -0.11518E-05    0.10141E-07  4320   0.991E-05    0.809E-05
DAV:  13    -0.332848978769E+04   -0.81921E-06    0.10751E-07  4448   0.752E-05
  16 F= -.33426786E+04 E0= -.33426786E+04  d E =-.106587E-04  mag=     1.0000
 BRION: g(F)=  0.905E-03 g(S)=  0.000E+00 retain N=  2 mean eig= 0.34
 eig:   0.472  0.217
 bond charge predicted
       N       E                     dE             d eps       ncg     rms          rms(c)
DAV:   1    -0.332848990700E+04   -0.12013E-03   -0.15402E-02  7360   0.636E-02    0.282E-02
DAV:   2    -0.332848992395E+04   -0.16953E-04   -0.35025E-04  7008   0.775E-03    0.146E-02
DAV:   3    -0.332848991735E+04    0.66012E-05   -0.11629E-05  6592   0.224E-03    0.692E-03
DAV:   4    -0.332848991249E+04    0.48596E-05   -0.50933E-06  6400   0.152E-03    0.268E-03
DAV:   5    -0.332848991356E+04   -0.10682E-05   -0.82579E-07  5536   0.624E-04    0.153E-03
DAV:   6    -0.332848991577E+04   -0.22118E-05   -0.17177E-07  5408   0.392E-04    0.859E-04
DAV:   7    -0.332848991731E+04   -0.15424E-05    0.35440E-08  4544   0.300E-04    0.462E-04
DAV:   8    -0.332848991842E+04   -0.11082E-05    0.65282E-08  4416   0.212E-04    0.290E-04
DAV:   9    -0.332848991908E+04   -0.66054E-06    0.96472E-08  4448   0.110E-04
  17 F= -.33426787E+04 E0= -.33426787E+04  d E =-.128038E-03  mag=     1.0000
 BRION: g(F)=  0.611E-04 g(S)=  0.000E+00 retain N=  1 mean eig= 0.23
 eig:   0.229
 bond charge predicted
       N       E                     dE             d eps       ncg     rms          rms(c)
DAV:   1    -0.332848999135E+04   -0.72926E-04   -0.16337E-02  7360   0.674E-02    0.171E-02
DAV:   2    -0.332849000389E+04   -0.12543E-04   -0.17970E-04  6816   0.504E-03    0.878E-03
DAV:   3    -0.332849000657E+04   -0.26841E-05   -0.41522E-06  5984   0.104E-03    0.415E-03
DAV:   4    -0.332849000787E+04   -0.12963E-05   -0.78875E-07  5376   0.584E-04    0.111E-03
DAV:   5    -0.332849000817E+04   -0.29569E-06    0.52470E-09  4736   0.228E-04
  18 F= -.33426788E+04 E0= -.33426788E+04  d E =-.573039E-04  mag=     1.0000
 BRION: g(F)=  0.102E-03 g(S)=  0.000E+00 retain N=  2 mean eig= 0.21
 eig:   0.210  0.210
 bond charge predicted
       N       E                     dE             d eps       ncg     rms          rms(c)
DAV:   1    -0.332849002638E+04   -0.18513E-04   -0.57844E-04  6656   0.124E-02    0.421E-03
DAV:   2    -0.332849002750E+04   -0.11167E-05   -0.10908E-05  5952   0.138E-03    0.274E-03
DAV:   3    -0.332849002782E+04   -0.31793E-06   -0.24671E-07  5376   0.400E-04
  19 F= -.33426788E+04 E0= -.33426788E+04  d E =-.142580E-04  mag=     1.0000
 BRION: g(F)=  0.613E-04 g(S)=  0.000E+00 retain N=  1 mean eig= 0.12
 eig:   0.120
 bond charge predicted
       N       E                     dE             d eps       ncg     rms          rms(c)
DAV:   1    -0.332849010878E+04   -0.81277E-04   -0.16936E-02  7296   0.683E-02    0.175E-02
DAV:   2    -0.332849011921E+04   -0.10437E-04   -0.16114E-04  6816   0.490E-03    0.869E-03
DAV:   3    -0.332849012281E+04   -0.35936E-05   -0.33403E-06  6080   0.107E-03    0.424E-03
DAV:   4    -0.332849012425E+04   -0.14410E-05   -0.71686E-07  5760   0.617E-04    0.126E-03
DAV:   5    -0.332849012436E+04   -0.11630E-06   -0.91649E-09  4672   0.245E-04
  20 F= -.33426789E+04 E0= -.33426789E+04  d E =-.636592E-04  mag=     1.0000
 BRION: g(F)=  0.644E-04 g(S)=  0.000E+00 retain N=  1 mean eig= 4.78
 eig:   4.784
 bond charge predicted
       N       E                     dE             d eps       ncg     rms          rms(c)
DAV:   1    -0.332848979832E+04    0.32592E-03   -0.10440E-01  7328   0.170E-01    0.422E-02
DAV:   2    -0.332848985745E+04   -0.59128E-04   -0.92753E-04  7328   0.118E-02    0.211E-02
DAV:   3    -0.332848987669E+04   -0.19238E-04   -0.21709E-05  6816   0.239E-03    0.981E-03
DAV:   4    -0.332848988370E+04   -0.70068E-05   -0.46935E-06  6112   0.129E-03    0.264E-03
DAV:   5    -0.332848988395E+04   -0.24994E-06   -0.46947E-07  5504   0.489E-04
  21 F= -.33426787E+04 E0= -.33426787E+04  d E =0.163364E-03  mag=     1.0000
 BRION: g(F)=  0.169E-03 g(S)=  0.000E+00 retain N=  1 mean eig= 0.55
 eig:   0.552
 bond charge predicted
       N       E                     dE             d eps       ncg     rms          rms(c)
DAV:   1    -0.332849003798E+04   -0.15428E-03   -0.19291E-01  7296   0.231E-01    0.576E-02
DAV:   2    -0.332849015708E+04   -0.11910E-03   -0.18144E-03  7648   0.164E-02    0.289E-02
DAV:   3    -0.332849019261E+04   -0.35523E-04   -0.41700E-05  7072   0.333E-03    0.140E-02
DAV:   4    -0.332849020703E+04   -0.14422E-04   -0.94554E-06  6304   0.182E-03    0.372E-03
DAV:   5    -0.332849020767E+04   -0.63691E-06   -0.11322E-06  5632   0.700E-04
  22 F= -.33426789E+04 E0= -.33426789E+04  d E =-.218861E-03  mag=     1.0000
 BRION: g(F)=  0.714E-04 g(S)=  0.000E+00 retain N=  1 mean eig= 0.64
 eig:   0.642
 bond charge predicted
       N       E                     dE             d eps       ncg     rms          rms(c)
DAV:   1    -0.332849024851E+04   -0.41477E-04   -0.36813E-03  6848   0.318E-02    0.868E-03
DAV:   2    -0.332849025162E+04   -0.31127E-05   -0.43871E-05  6592   0.254E-03    0.424E-03
DAV:   3    -0.332849025246E+04   -0.84343E-06   -0.74793E-07  5632   0.528E-04
  23 F= -.33426790E+04 E0= -.33426790E+04  d E =-.297634E-04  mag=     1.0000
 BRION: g(F)=  0.787E-04 g(S)=  0.000E+00 retain N=  2 mean eig= 0.45
 eig:   0.592  0.312
 bond charge predicted
       N       E                     dE             d eps       ncg     rms          rms(c)
DAV:   1    -0.332849025650E+04   -0.48868E-05   -0.17271E-04  6720   0.672E-03    0.314E-03
DAV:   2    -0.332849025685E+04   -0.34343E-06   -0.46460E-06  5728   0.921E-04
  24 F= -.33426790E+04 E0= -.33426790E+04  d E =-.404211E-05  mag=     1.0000
 BRION: g(F)=  0.719E-04 g(S)=  0.000E+00 retain N=  1 mean eig= 0.21
 eig:   0.215
 bond charge predicted
       N       E                     dE             d eps       ncg     rms          rms(c)
DAV:   1    -0.332849033066E+04   -0.74152E-04   -0.17852E-02  7296   0.697E-02    0.193E-02
DAV:   2    -0.332849034624E+04   -0.15585E-04   -0.21945E-04  6880   0.572E-03    0.103E-02
DAV:   3    -0.332849034972E+04   -0.34793E-05   -0.50555E-06  6112   0.143E-03    0.536E-03
DAV:   4    -0.332849035143E+04   -0.17111E-05   -0.12007E-06  5696   0.828E-04    0.169E-03
DAV:   5    -0.332849035170E+04   -0.26368E-06   -0.15710E-07  5184   0.325E-04
  25 F= -.33426790E+04 E0= -.33426790E+04  d E =-.617670E-04  mag=     1.0000
 BRION: g(F)=  0.149E-03 g(S)=  0.000E+00 retain N=  2 mean eig= 0.25
 eig:   0.120  0.381
 bond charge predicted
       N       E                     dE             d eps       ncg     rms          rms(c)
DAV:   1    -0.332849037485E+04   -0.23422E-04   -0.11566E-03  6592   0.178E-02    0.635E-03
DAV:   2    -0.332849037650E+04   -0.16452E-05   -0.24518E-05  6336   0.196E-03    0.385E-03
DAV:   3    -0.332849037624E+04    0.25856E-06   -0.70035E-07  5376   0.536E-04
  26 F= -.33426790E+04 E0= -.33426790E+04  d E =-.198064E-04  mag=     1.0000
 BRION: g(F)=  0.714E-04 g(S)=  0.000E+00 retain N=  1 mean eig= 0.22
 eig:   0.217
 bond charge predicted
       N       E                     dE             d eps       ncg     rms          rms(c)
DAV:   1    -0.332849046191E+04   -0.85416E-04   -0.19625E-02  7296   0.736E-02    0.191E-02
DAV:   2    -0.332849047538E+04   -0.13462E-04   -0.20553E-04  6880   0.535E-03    0.945E-03
DAV:   3    -0.332849047906E+04   -0.36840E-05   -0.42251E-06  6048   0.117E-03    0.483E-03
DAV:   4    -0.332849048083E+04   -0.17639E-05   -0.10199E-06  5696   0.680E-04    0.133E-03
DAV:   5    -0.332849048094E+04   -0.11770E-06   -0.46000E-08  4832   0.274E-04
  27 F= -.33426791E+04 E0= -.33426791E+04  d E =-.725018E-04  mag=     1.0000
 BRION: g(F)=  0.757E-04 g(S)=  0.000E+00 retain N=  1 mean eig= 1.07
 eig:   1.069
 bond charge predicted
       N       E                     dE             d eps       ncg     rms          rms(c)
DAV:   1    -0.332849039676E+04    0.84070E-04   -0.85895E-03  7136   0.483E-02    0.127E-02
DAV:   2    -0.332849040315E+04   -0.63912E-05   -0.91842E-05  6688   0.383E-03    0.694E-03
DAV:   3    -0.332849040478E+04   -0.16309E-05   -0.22945E-06  5952   0.968E-04    0.350E-03
DAV:   4    -0.332849040547E+04   -0.69395E-06   -0.47910E-07  5504   0.570E-04
  28 F= -.33426791E+04 E0= -.33426791E+04  d E =0.540980E-04  mag=     1.0000
 BRION: g(F)=  0.136E-03 g(S)=  0.000E+00 retain N=  1 mean eig= 0.01
 eig:   0.010
 bond charge predicted
       N       E                     dE             d eps       ncg     rms          rms(c)
DAV:   1    -0.332849054093E+04   -0.13615E-03   -0.56303E-02  7296   0.124E-01    0.317E-02
DAV:   2    -0.332849057801E+04   -0.37077E-04   -0.53926E-04  7200   0.909E-03    0.162E-02
DAV:   3    -0.332849058850E+04   -0.10491E-04   -0.12136E-05  6496   0.208E-03    0.816E-03
DAV:   4    -0.332849059286E+04   -0.43608E-05   -0.30114E-06  6048   0.121E-03    0.249E-03
DAV:   5    -0.332849059324E+04   -0.38417E-06   -0.40313E-07  5408   0.444E-04
  29 F= -.33426792E+04 E0= -.33426792E+04  d E =-.133083E-03  mag=     1.0000
 BRION: g(F)=  0.800E-04 g(S)=  0.000E+00 retain N=  1 mean eig= 0.26
 eig:   0.256
 bond charge predicted
       N       E                     dE             d eps       ncg     rms          rms(c)
DAV:   1    -0.332849066624E+04   -0.73384E-04   -0.13032E-02  7232   0.599E-02    0.157E-02
DAV:   2    -0.332849067529E+04   -0.90444E-05   -0.13697E-04  6880   0.445E-03    0.784E-03
DAV:   3    -0.332849067765E+04   -0.23660E-05   -0.29754E-06  6016   0.105E-03    0.411E-03
DAV:   4    -0.332849067874E+04   -0.10829E-05   -0.69343E-07  5760   0.609E-04    0.123E-03
DAV:   5    -0.332849067888E+04   -0.14005E-06   -0.19084E-08  4768   0.248E-04
  30 F= -.33426793E+04 E0= -.33426793E+04  d E =-.613569E-04  mag=     1.0000
 BRION: g(F)=  0.931E-04 g(S)=  0.000E+00 retain N=  2 mean eig= 1.25
 eig:   0.225  2.276
 bond charge predicted
       N       E                     dE             d eps       ncg     rms          rms(c)
DAV:   1    -0.332849068388E+04   -0.51435E-05   -0.35269E-05  6528   0.309E-03    0.116E-03
DAV:   2    -0.332849068402E+04   -0.14529E-06   -0.49758E-07  5280   0.321E-04
  31 F= -.33426793E+04 E0= -.33426793E+04  d E =-.372138E-05  mag=     1.0000
 BRION: g(F)=  0.895E-04 g(S)=  0.000E+00 retain N=  1 mean eig= 0.27
 eig:   0.268
 bond charge predicted
       N       E                     dE             d eps       ncg     rms          rms(c)
DAV:   1    -0.332849078322E+04   -0.99339E-04   -0.28658E-02  7296   0.890E-02    0.228E-02
DAV:   2    -0.332849080055E+04   -0.17335E-04   -0.27518E-04  6752   0.637E-03    0.117E-02
DAV:   3    -0.332849080455E+04   -0.39943E-05   -0.69002E-06  6176   0.136E-03    0.529E-03
DAV:   4    -0.332849080595E+04   -0.13994E-05   -0.13445E-06  5600   0.696E-04    0.140E-03
DAV:   5    -0.332849080618E+04   -0.22899E-06   -0.36498E-08  4896   0.260E-04
  32 F= -.33426793E+04 E0= -.33426793E+04  d E =-.870234E-04  mag=     1.0000
 BRION: g(F)=  0.147E-03 g(S)=  0.000E+00 retain N=  2 mean eig= 0.45
 eig:   0.346  0.561
 bond charge predicted
       N       E                     dE             d eps       ncg     rms          rms(c)
DAV:   1    -0.332849082896E+04   -0.23016E-04   -0.70653E-04  6528   0.136E-02    0.493E-03
DAV:   2    -0.332849083035E+04   -0.13883E-05   -0.14491E-05  6016   0.158E-03    0.310E-03
DAV:   3    -0.332849083063E+04   -0.27858E-06   -0.34050E-07  5536   0.448E-04
  33 F= -.33426794E+04 E0= -.33426794E+04  d E =-.190631E-04  mag=     1.0000
 BRION: g(F)=  0.890E-04 g(S)=  0.000E+00 retain N=  1 mean eig= 0.12
 eig:   0.121
 bond charge predicted
       N       E                     dE             d eps       ncg     rms          rms(c)
DAV:   1    -0.332849093354E+04   -0.10319E-03   -0.24227E-02  7296   0.815E-02    0.212E-02
DAV:   2    -0.332849095042E+04   -0.16877E-04   -0.23860E-04  6880   0.595E-03    0.107E-02
DAV:   3    -0.332849095454E+04   -0.41144E-05   -0.47590E-06  6240   0.124E-03    0.501E-03
DAV:   4    -0.332849095615E+04   -0.16163E-05   -0.10151E-06  5760   0.704E-04    0.142E-03
DAV:   5    -0.332849095629E+04   -0.13621E-06   -0.51826E-08  4832   0.286E-04
  34 F= -.33426795E+04 E0= -.33426795E+04  d E =-.907393E-04  mag=     1.0000
 BRION: g(F)=  0.999E-04 g(S)=  0.000E+00 retain N=  2 mean eig= 0.08
 eig:   0.141  0.022
 bond charge predicted
       N       E                     dE             d eps       ncg     rms          rms(c)
DAV:   1    -0.332849095443E+04    0.17192E-05   -0.61997E-06  5824   0.134E-03    0.393E-04
DAV:   2    -0.332849095453E+04   -0.94296E-07    0.31716E-08  4544   0.160E-04
  35 F= -.33426795E+04 E0= -.33426795E+04  d E =0.130477E-05  mag=     1.0000
 BRION: g(F)=  0.101E-03 g(S)=  0.000E+00 retain N=  1 mean eig= 0.37
 eig:   0.373
 bond charge predicted
       N       E                     dE             d eps       ncg     rms          rms(c)
DAV:   1    -0.332849108387E+04   -0.12944E-03   -0.46836E-02  7264   0.113E-01    0.283E-02
DAV:   2    -0.332849111218E+04   -0.28303E-04   -0.40710E-04  7008   0.789E-03    0.142E-02
DAV:   3    -0.332849111938E+04   -0.71978E-05   -0.88877E-06  6208   0.170E-03    0.682E-03
DAV:   4    -0.332849112189E+04   -0.25138E-05   -0.20454E-06  5952   0.984E-04    0.207E-03
DAV:   5    -0.332849112206E+04   -0.16810E-06   -0.22369E-07  5280   0.374E-04
  36 F= -.33426796E+04 E0= -.33426796E+04  d E =-.125179E-03  mag=     1.0000
 BRION: g(F)=  0.130E-03 g(S)=  0.000E+00 retain N=  2 mean eig= 0.67
 eig:   0.465  0.880
 bond charge predicted
       N       E                     dE             d eps       ncg     rms          rms(c)
DAV:   1    -0.332849116782E+04   -0.45932E-04   -0.41853E-03  6752   0.340E-02    0.895E-03
DAV:   2    -0.332849117117E+04   -0.33521E-05   -0.47885E-05  6656   0.260E-03    0.469E-03
DAV:   3    -0.332849117149E+04   -0.31653E-06   -0.11345E-06  5536   0.580E-04
  37 F= -.33426796E+04 E0= -.33426796E+04  d E =-.381075E-04  mag=     1.0000
 BRION: g(F)=  0.127E-03 g(S)=  0.000E+00 retain N=  2 mean eig= 1.46
 eig:   0.717  2.201
 bond charge predicted
       N       E                     dE             d eps       ncg     rms          rms(c)
DAV:   1    -0.332849060180E+04    0.56937E-03   -0.24208E-01  7200   0.258E-01    0.634E-02
DAV:   2    -0.332849074211E+04   -0.14031E-03   -0.20696E-03  7488   0.176E-02    0.316E-02
DAV:   3    -0.332849078201E+04   -0.39896E-04   -0.44594E-05  7072   0.346E-03    0.147E-02
DAV:   4    -0.332849079680E+04   -0.14793E-04   -0.10205E-05  6368   0.198E-03    0.435E-03
DAV:   5    -0.332849079714E+04   -0.34296E-06   -0.13361E-06  5856   0.758E-04
  38 F= -.33426793E+04 E0= -.33426793E+04  d E =0.284458E-03  mag=     1.0000
 BRION: g(F)=  0.880E-04 g(S)=  0.000E+00 retain N=  2 mean eig= 0.55
 eig:   0.218  0.887
 bond charge predicted
       N       E                     dE             d eps       ncg     rms          rms(c)
DAV:   1    -0.332849050071E+04    0.29609E-03   -0.92291E-02  7264   0.159E-01    0.402E-02
DAV:   2    -0.332849055678E+04   -0.56067E-04   -0.84840E-04  7584   0.111E-02    0.197E-02
DAV:   3    -0.332849057381E+04   -0.17028E-04   -0.17983E-05  6624   0.225E-03    0.963E-03
DAV:   4    -0.332849058043E+04   -0.66262E-05   -0.42197E-06  6112   0.132E-03    0.278E-03
DAV:   5    -0.332849058065E+04   -0.21793E-06   -0.53833E-07  5568   0.517E-04
  39 F= -.33426792E+04 E0= -.33426792E+04  d E =0.169257E-03  mag=     1.0000
 BRION: g(F)=  0.957E-04 g(S)=  0.000E+00 retain N=  1 mean eig= 0.39
 eig:   0.390
 bond charge predicted
       N       E                     dE             d eps       ncg     rms          rms(c)
DAV:   1    -0.332849072965E+04   -0.14921E-03   -0.22307E-01  7200   0.248E-01    0.620E-02
DAV:   2    -0.332849086651E+04   -0.13687E-03   -0.20342E-03  7680   0.173E-02    0.311E-02
DAV:   3    -0.332849090416E+04   -0.37648E-04   -0.48141E-05  7104   0.379E-03    0.157E-02
DAV:   4    -0.332849091950E+04   -0.15335E-04   -0.11644E-05  6496   0.216E-03    0.461E-03
DAV:   5    -0.332849092064E+04   -0.11435E-05   -0.18324E-06  5792   0.861E-04    0.239E-03
DAV:   6    -0.332849092147E+04   -0.83365E-06   -0.12920E-07  5216   0.319E-04
  40 F= -.33426794E+04 E0= -.33426794E+04  d E =-.261333E-03  mag=     1.0000
 BRION: g(F)=  0.113E-03 g(S)=  0.000E+00 retain N=  1 mean eig= 0.20
 eig:   0.199
 bond charge predicted
       N       E                     dE             d eps       ncg     rms          rms(c)
DAV:   1    -0.332849080737E+04    0.11327E-03   -0.19737E-02  7296   0.738E-02    0.187E-02
DAV:   2    -0.332849082140E+04   -0.14022E-04   -0.19362E-04  7072   0.525E-03    0.917E-03
DAV:   3    -0.332849082514E+04   -0.37391E-05   -0.41374E-06  6048   0.104E-03    0.442E-03
DAV:   4    -0.332849082679E+04   -0.16534E-05   -0.79336E-07  5536   0.576E-04    0.102E-03
DAV:   5    -0.332849082692E+04   -0.12643E-06    0.98974E-09  4640   0.216E-04
  41 F= -.33426794E+04 E0= -.33426794E+04  d E =0.765128E-04  mag=     1.0000
 BRION: g(F)=  0.104E-03 g(S)=  0.000E+00 retain N=  2 mean eig= 0.38
 eig:   0.048  0.712
 bond charge predicted
       N       E                     dE             d eps       ncg     rms          rms(c)
DAV:   1    -0.332849082101E+04    0.57762E-05   -0.23543E-04  6688   0.783E-03    0.280E-03
DAV:   2    -0.332849082145E+04   -0.44028E-06   -0.51050E-06  5792   0.946E-04
  42 F= -.33426793E+04 E0= -.33426793E+04  d E =0.505354E-05  mag=     1.0000
 BRION: g(F)=  0.956E-04 g(S)=  0.000E+00 retain N=  2 mean eig= 3.54
 eig:   0.651  6.435
 bond charge predicted
       N       E                     dE             d eps       ncg     rms          rms(c)
DAV:   1    -0.332849075081E+04    0.70200E-04   -0.11868E-02  7136   0.573E-02    0.145E-02
DAV:   2    -0.332849075765E+04   -0.68411E-05   -0.10630E-04  6784   0.396E-03    0.707E-03
DAV:   3    -0.332849076011E+04   -0.24543E-05   -0.21161E-06  5664   0.743E-04    0.324E-03
DAV:   4    -0.332849076084E+04   -0.73388E-06   -0.27384E-07  5312   0.413E-04
  43 F= -.33426793E+04 E0= -.33426793E+04  d E =0.583740E-04  mag=     1.0000
 BRION: g(F)=  0.965E-04 g(S)=  0.000E+00 retain N=  2 mean eig= 0.53
 eig:   0.140  0.915
 bond charge predicted
       N       E                     dE             d eps       ncg     rms          rms(c)
DAV:   1    -0.332849089902E+04   -0.13891E-03   -0.15565E-01  7200   0.206E-01    0.511E-02
DAV:   2    -0.332849098564E+04   -0.86621E-04   -0.13140E-03  7616   0.141E-02    0.253E-02
DAV:   3    -0.332849101389E+04   -0.28248E-04   -0.27623E-05  6624   0.270E-03    0.115E-02
DAV:   4    -0.332849102158E+04   -0.76896E-05   -0.54621E-06  6048   0.146E-03    0.318E-03
DAV:   5    -0.332849102183E+04   -0.25018E-06   -0.64290E-07  5600   0.569E-04
  44 F= -.33426795E+04 E0= -.33426795E+04  d E =-.220798E-03  mag=     1.0000
 BRION: g(F)=  0.115E-03 g(S)=  0.000E+00 retain N=  2 mean eig= 1.41
 eig:   0.801  2.025
 bond charge predicted
       N       E                     dE             d eps       ncg     rms          rms(c)
DAV:   1    -0.332849070497E+04    0.31660E-03   -0.14484E-01  7168   0.201E-01    0.494E-02
DAV:   2    -0.332849080065E+04   -0.95681E-04   -0.13412E-03  7808   0.140E-02    0.239E-02
DAV:   3    -0.332849082350E+04   -0.22850E-04   -0.26760E-05  6752   0.251E-03    0.115E-02
DAV:   4    -0.332849083322E+04   -0.97165E-05   -0.56477E-06  6176   0.155E-03    0.351E-03
DAV:   5    -0.332849083355E+04   -0.33306E-06   -0.84094E-07  5600   0.643E-04
  45 F= -.33426793E+04 E0= -.33426793E+04  d E =0.201325E-03  mag=     1.0000
 BRION: g(F)=  0.119E-03 g(S)=  0.000E+00 retain N=  2 mean eig= 0.69
 eig:   0.557  0.833
 bond charge predicted
       N       E                     dE             d eps       ncg     rms          rms(c)
DAV:   1    -0.332849090436E+04   -0.71139E-04   -0.64613E-02  7168   0.134E-01    0.332E-02
DAV:   2    -0.332849094616E+04   -0.41806E-04   -0.59732E-04  7424   0.945E-03    0.163E-02
DAV:   3    -0.332849095716E+04   -0.10999E-04   -0.12947E-05  6272   0.191E-03    0.789E-03
DAV:   4    -0.332849096079E+04   -0.36262E-05   -0.28586E-06  6048   0.119E-03    0.281E-03
DAV:   5    -0.332849096104E+04   -0.24866E-06   -0.43607E-07  5408   0.481E-04
  46 F= -.33426794E+04 E0= -.33426794E+04  d E =-.133712E-03  mag=     1.0000
 BRION: g(F)=  0.124E-03 g(S)=  0.000E+00 retain N=  1 mean eig= 0.14
 eig:   0.144
 bond charge predicted
       N       E                     dE             d eps       ncg     rms          rms(c)
DAV:   1    -0.332849100531E+04   -0.44523E-04   -0.40266E-03  6720   0.346E-02    0.115E-02
DAV:   2    -0.332849100928E+04   -0.39688E-05   -0.68804E-05  6848   0.335E-03    0.597E-03
DAV:   3    -0.332849100865E+04    0.63621E-06   -0.15572E-06  5696   0.886E-04
  47 F= -.33426795E+04 E0= -.33426795E+04  d E =-.159804E-04  mag=     1.0000
 BRION: g(F)=  0.124E-03 g(S)=  0.000E+00 retain N=  2 mean eig= 0.08
 eig:   0.079  0.079
 bond charge predicted
       N       E                     dE             d eps       ncg     rms          rms(c)
DAV:   1    -0.332849103487E+04   -0.25593E-04   -0.83525E-04  6656   0.148E-02    0.577E-03
DAV:   2    -0.332849103690E+04   -0.20207E-05   -0.19378E-05  6208   0.180E-03    0.320E-03
DAV:   3    -0.332849103735E+04   -0.45099E-06   -0.41418E-07  5408   0.488E-04
  48 F= -.33426795E+04 E0= -.33426795E+04  d E =-.186684E-04  mag=     1.0000
 BRION: g(F)=  0.962E-04 g(S)=  0.000E+00 retain N=  2 mean eig= 1.48
 eig:   0.324  2.635
 bond charge predicted
       N       E                     dE             d eps       ncg     rms          rms(c)
DAV:   1    -0.332849116882E+04   -0.13192E-03   -0.35923E-02  7200   0.996E-02    0.261E-02
DAV:   2    -0.332849119564E+04   -0.26818E-04   -0.37469E-04  7296   0.739E-03    0.130E-02
DAV:   3    -0.332849120095E+04   -0.53078E-05   -0.74948E-06  6272   0.152E-03    0.630E-03
DAV:   4    -0.332849120320E+04   -0.22554E-05   -0.17510E-06  5856   0.844E-04    0.175E-03
DAV:   5    -0.332849120330E+04   -0.97672E-07   -0.14510E-07  5280   0.338E-04
  49 F= -.33426796E+04 E0= -.33426796E+04  d E =-.113829E-03  mag=     1.0000
 BRION: g(F)=  0.991E-04 g(S)=  0.000E+00 retain N=  2 mean eig= 0.80
 eig:   0.295  1.314
 bond charge predicted
       N       E                     dE             d eps       ncg     rms          rms(c)
DAV:   1    -0.332849120817E+04   -0.49715E-05   -0.86294E-04  6528   0.157E-02    0.427E-03
DAV:   2    -0.332849120902E+04   -0.84459E-06   -0.12368E-05  6080   0.143E-03    0.265E-03
DAV:   3    -0.332849120898E+04    0.33295E-07   -0.28383E-07  5440   0.376E-04
  50 F= -.33426796E+04 E0= -.33426796E+04  d E =-.113781E-04  mag=     1.0000
 BRION: g(F)=  0.123E-03 g(S)=  0.000E+00 retain N=  2 mean eig= 4.22
 eig:   0.753  7.683
 bond charge predicted
       N       E                     dE             d eps       ncg     rms          rms(c)
DAV:   1    -0.332849107517E+04    0.13384E-03   -0.17274E-02  7200   0.696E-02    0.183E-02
DAV:   2    -0.332849108928E+04   -0.14102E-04   -0.19096E-04  6752   0.534E-03    0.931E-03
DAV:   3    -0.332849109128E+04   -0.20009E-05   -0.44122E-06  6016   0.120E-03    0.464E-03
DAV:   4    -0.332849109235E+04   -0.10749E-05   -0.12202E-06  5664   0.679E-04    0.127E-03
DAV:   5    -0.332849109254E+04   -0.19046E-06   -0.61097E-08  5088   0.279E-04
  51 F= -.33426795E+04 E0= -.33426795E+04  d E =0.767998E-04  mag=     1.0000
 BRION: g(F)=  0.122E-03 g(S)=  0.000E+00 retain N=  2 mean eig= 0.43
 eig:   0.317  0.549
 bond charge predicted
       N       E                     dE             d eps       ncg     rms          rms(c)
DAV:   1    -0.332849127192E+04   -0.17957E-03   -0.75693E-02  7200   0.145E-01    0.377E-02
DAV:   2    -0.332849132567E+04   -0.53753E-04   -0.77032E-04  7456   0.109E-02    0.194E-02
DAV:   3    -0.332849133510E+04   -0.94252E-05   -0.18584E-05  6752   0.254E-03    0.998E-03
DAV:   4    -0.332849134014E+04   -0.50429E-05   -0.49577E-06  6240   0.141E-03    0.299E-03
DAV:   5    -0.332849134056E+04   -0.42049E-06   -0.72712E-07  5632   0.558E-04
  52 F= -.33426797E+04 E0= -.33426797E+04  d E =-.166775E-03  mag=     1.0000
 BRION: g(F)=  0.103E-03 g(S)=  0.000E+00 retain N=  2 mean eig= 0.36
 eig:   0.537  0.179
 bond charge predicted
       N       E                     dE             d eps       ncg     rms          rms(c)
DAV:   1    -0.332849139251E+04   -0.52370E-04   -0.71540E-03  6944   0.444E-02    0.115E-02
DAV:   2    -0.332849139748E+04   -0.49676E-05   -0.69876E-05  6912   0.318E-03    0.554E-03
DAV:   3    -0.332849139861E+04   -0.11368E-05   -0.12764E-06  5664   0.652E-04    0.273E-03
DAV:   4    -0.332849139913E+04   -0.51886E-06   -0.18129E-07  5344   0.371E-04
  53 F= -.33426797E+04 E0= -.33426797E+04  d E =-.512725E-04  mag=     1.0000
 BRION: g(F)=  0.103E-03 g(S)=  0.000E+00 retain N=  1 mean eig= 6.00
 eig:   6.004
 bond charge predicted
       N       E                     dE             d eps       ncg     rms          rms(c)
DAV:   1    -0.332849149412E+04   -0.95510E-04   -0.67848E-01  7168   0.431E-01    0.107E-01
DAV:   2    -0.332849187204E+04   -0.37791E-03   -0.55181E-03  7552   0.292E-02    0.537E-02
DAV:   3    -0.332849196033E+04   -0.88298E-04   -0.12766E-04  7296   0.591E-03    0.248E-02
DAV:   4    -0.332849198748E+04   -0.27149E-04   -0.26311E-05  6784   0.307E-03    0.682E-03
DAV:   5    -0.332849198859E+04   -0.11097E-05   -0.32673E-06  6048   0.117E-03    0.381E-03
DAV:   6    -0.332849198957E+04   -0.97917E-06   -0.35329E-07  5280   0.468E-04
  54 F= -.33426802E+04 E0= -.33426802E+04  d E =-.497613E-03  mag=     1.0000
 BRION: g(F)=  0.232E-03 g(S)=  0.000E+00 retain N=  2 mean eig= 2.74
 eig:   4.848  0.633
 bond charge predicted
       N       E                     dE             d eps       ncg     rms          rms(c)
DAV:   1    -0.332849208885E+04   -0.10025E-03   -0.56285E-01  7168   0.393E-01    0.983E-02
DAV:   2    -0.332849244861E+04   -0.35977E-03   -0.50402E-03  7680   0.273E-02    0.490E-02
DAV:   3    -0.332849251048E+04   -0.61866E-04   -0.11067E-04  7328   0.568E-03    0.244E-02
DAV:   4    -0.332849253601E+04   -0.25528E-04   -0.26180E-05  6976   0.325E-03    0.726E-03
DAV:   5    -0.332849253803E+04   -0.20266E-05   -0.41562E-06  6144   0.127E-03    0.356E-03
DAV:   6    -0.332849253967E+04   -0.16361E-05   -0.38942E-07  5248   0.452E-04    0.172E-03
DAV:   7    -0.332849254135E+04   -0.16800E-05   -0.13272E-07  5216   0.287E-04    0.419E-04
DAV:   8    -0.332849254202E+04   -0.66962E-06    0.89003E-08  4448   0.138E-04
  55 F= -.33426807E+04 E0= -.33426807E+04  d E =-.483002E-03  mag=     1.0000
 BRION: g(F)=  0.121E-03 g(S)=  0.000E+00 retain N=  1 mean eig= 0.62
 eig:   0.620
 bond charge predicted
       N       E                     dE             d eps       ncg     rms          rms(c)
DAV:   1    -0.332849272891E+04   -0.18756E-03   -0.18665E-01  7200   0.226E-01    0.565E-02
DAV:   2    -0.332849284087E+04   -0.11196E-03   -0.16156E-03  7648   0.155E-02    0.286E-02
DAV:   3    -0.332849285944E+04   -0.18573E-04   -0.38508E-05  7040   0.349E-03    0.143E-02
DAV:   4    -0.332849286732E+04   -0.78827E-05   -0.95579E-06  6400   0.194E-03    0.409E-03
DAV:   5    -0.332849286837E+04   -0.10511E-05   -0.13598E-06  5696   0.724E-04    0.211E-03
DAV:   6    -0.332849286947E+04   -0.10969E-05   -0.71841E-08  4992   0.281E-04    0.975E-04
DAV:   7    -0.332849287053E+04   -0.10604E-05    0.33686E-08  4512   0.182E-04    0.260E-04
DAV:   8    -0.332849287101E+04   -0.47870E-06    0.10058E-07  4480   0.964E-05
  56 F= -.33426810E+04 E0= -.33426810E+04  d E =-.274613E-03  mag=     1.0000
 BRION: g(F)=  0.123E-03 g(S)=  0.000E+00 retain N=  2 mean eig= 1.77
 eig:   3.051  0.481
 bond charge predicted
       N       E                     dE             d eps       ncg     rms          rms(c)
DAV:   1    -0.332849292529E+04   -0.54757E-04   -0.48690E-03  6880   0.363E-02    0.987E-03
DAV:   2    -0.332849292971E+04   -0.44176E-05   -0.54434E-05  6752   0.289E-03    0.512E-03
DAV:   3    -0.332849293058E+04   -0.87032E-06   -0.10912E-06  5792   0.694E-04
  57 F= -.33426810E+04 E0= -.33426810E+04  d E =-.475382E-04  mag=     1.0000
 BRION: g(F)=  0.108E-03 g(S)=  0.000E+00 retain N=  2 mean eig= 2.19
 eig:   0.858  3.512
 bond charge predicted
       N       E                     dE             d eps       ncg     rms          rms(c)
DAV:   1    -0.332849310806E+04   -0.17836E-03   -0.11074E-01  7168   0.174E-01    0.450E-02
DAV:   2    -0.332849317843E+04   -0.70365E-04   -0.10082E-03  7584   0.122E-02    0.226E-02
DAV:   3    -0.332849318981E+04   -0.11379E-04   -0.22868E-05  6752   0.270E-03    0.111E-02
DAV:   4    -0.332849319439E+04   -0.45863E-05   -0.55601E-06  6208   0.146E-03    0.311E-03
DAV:   5    -0.332849319476E+04   -0.36787E-06   -0.69235E-07  5632   0.548E-04
  58 F= -.33426813E+04 E0= -.33426813E+04  d E =-.210878E-03  mag=     1.0000
 BRION: g(F)=  0.126E-03 g(S)=  0.000E+00 retain N=  2 mean eig= 0.66
 eig:   0.011  1.310
 bond charge predicted
       N       E                     dE             d eps       ncg     rms          rms(c)
DAV:   1    -0.332849304685E+04    0.14754E-03   -0.27395E-02  7168   0.866E-02    0.218E-02
DAV:   2    -0.332849306540E+04   -0.18551E-04   -0.24661E-04  6816   0.596E-03    0.108E-02
DAV:   3    -0.332849306871E+04   -0.33005E-05   -0.52173E-06  6080   0.123E-03    0.505E-03
DAV:   4    -0.332849307022E+04   -0.15153E-05   -0.11129E-06  5632   0.672E-04    0.142E-03
DAV:   5    -0.332849307040E+04   -0.18114E-06   -0.42880E-08  4832   0.270E-04
  59 F= -.33426812E+04 E0= -.33426812E+04  d E =0.101455E-03  mag=     1.0000
 BRION: g(F)=  0.110E-03 g(S)=  0.000E+00 retain N=  1 mean eig= 0.55
 eig:   0.553
 bond charge predicted
       N       E                     dE             d eps       ncg     rms          rms(c)
DAV:   1    -0.332849318925E+04   -0.11903E-03   -0.29350E-02  7168   0.895E-02    0.232E-02
DAV:   2    -0.332849320885E+04   -0.19597E-04   -0.27400E-04  6848   0.646E-03    0.120E-02
DAV:   3    -0.332849321192E+04   -0.30729E-05   -0.62323E-06  6208   0.156E-03    0.603E-03
DAV:   4    -0.332849321329E+04   -0.13630E-05   -0.14640E-06  5952   0.842E-04    0.164E-03
DAV:   5    -0.332849321343E+04   -0.14470E-06   -0.12966E-07  5088   0.303E-04
  60 F= -.33426813E+04 E0= -.33426813E+04  d E =-.110602E-03  mag=     1.0000
 BRION: g(F)=  0.115E-03 g(S)=  0.000E+00 retain N=  2 mean eig= 0.84
 eig:   0.754  0.920
 bond charge predicted
       N       E                     dE             d eps       ncg     rms          rms(c)
DAV:   1    -0.332849326283E+04   -0.49549E-04   -0.47119E-03  6752   0.361E-02    0.996E-03
DAV:   2    -0.332849326651E+04   -0.36790E-05   -0.54307E-05  6720   0.277E-03    0.492E-03
DAV:   3    -0.332849326666E+04   -0.14470E-06   -0.12021E-06  5664   0.699E-04
  61 F= -.33426813E+04 E0= -.33426813E+04  d E =-.427099E-04  mag=     1.0000
 BRION: g(F)=  0.108E-03 g(S)=  0.000E+00 retain N=  1 mean eig= 0.56
 eig:   0.564
 bond charge predicted
       N       E                     dE             d eps       ncg     rms          rms(c)
DAV:   1    -0.332849337761E+04   -0.11110E-03   -0.26140E-02  7168   0.847E-02    0.226E-02
DAV:   2    -0.332849339580E+04   -0.18186E-04   -0.25785E-04  7008   0.609E-03    0.113E-02
DAV:   3    -0.332849339847E+04   -0.26698E-05   -0.55470E-06  6080   0.143E-03    0.570E-03
DAV:   4    -0.332849339969E+04   -0.12183E-05   -0.13327E-06  5824   0.762E-04    0.155E-03
DAV:   5    -0.332849339982E+04   -0.13295E-06   -0.92146E-08  5056   0.291E-04
  62 F= -.33426814E+04 E0= -.33426814E+04  d E =-.103304E-03  mag=     1.0000
 BRION: g(F)=  0.111E-03 g(S)=  0.000E+00 retain N=  2 mean eig= 0.71
 eig:   0.710  0.710
 bond charge predicted
       N       E                     dE             d eps       ncg     rms          rms(c)
DAV:   1    -0.332849342376E+04   -0.24074E-04   -0.92337E-04  6528   0.159E-02    0.448E-03
DAV:   2    -0.332849342457E+04   -0.81200E-06   -0.10942E-05  5888   0.132E-03    0.242E-03
DAV:   3    -0.332849342469E+04   -0.11537E-06   -0.16652E-07  5184   0.386E-04
  63 F= -.33426814E+04 E0= -.33426814E+04  d E =-.196776E-04  mag=     1.0000
 BRION: g(F)=  0.107E-03 g(S)=  0.000E+00 retain N=  1 mean eig= 0.04
 eig:   0.038
 bond charge predicted
       N       E                     dE             d eps       ncg     rms          rms(c)
DAV:   1    -0.332849353999E+04   -0.11542E-03   -0.28165E-02  7168   0.879E-02    0.230E-02
DAV:   2    -0.332849355744E+04   -0.17448E-04   -0.25440E-04  6752   0.621E-03    0.117E-02
DAV:   3    -0.332849356009E+04   -0.26491E-05   -0.61003E-06  6112   0.155E-03    0.600E-03
DAV:   4    -0.332849356128E+04   -0.11901E-05   -0.14808E-06  5856   0.811E-04    0.159E-03
DAV:   5    -0.332849356144E+04   -0.16205E-06   -0.10653E-07  4928   0.288E-04
  64 F= -.33426815E+04 E0= -.33426815E+04  d E =-.106713E-03  mag=     1.0000
 BRION: g(F)=  0.107E-03 g(S)=  0.000E+00 retain N=  1 mean eig= 3.15
 eig:   3.149
 bond charge predicted
       N       E                     dE             d eps       ncg     rms          rms(c)
DAV:   1    -0.332849366903E+04   -0.10775E-03   -0.23868E-02  7168   0.808E-02    0.212E-02
DAV:   2    -0.332849368378E+04   -0.14757E-04   -0.21296E-04  6784   0.575E-03    0.109E-02
DAV:   3    -0.332849368609E+04   -0.23077E-05   -0.52597E-06  6016   0.149E-03    0.566E-03
DAV:   4    -0.332849368714E+04   -0.10453E-05   -0.12104E-06  5632   0.773E-04    0.148E-03
DAV:   5    -0.332849368732E+04   -0.18347E-06   -0.71133E-08  4640   0.260E-04
  65 F= -.33426816E+04 E0= -.33426816E+04  d E =-.982975E-04  mag=     1.0000
 BRION: g(F)=  0.111E-03 g(S)=  0.000E+00 retain N=  1 mean eig= 0.46
 eig:   0.463
 bond charge predicted
       N       E                     dE             d eps       ncg     rms          rms(c)
DAV:   1    -0.332849372417E+04   -0.37037E-04   -0.23174E-03  6592   0.253E-02    0.670E-03
DAV:   2    -0.332849372582E+04   -0.16489E-05   -0.23761E-05  6016   0.187E-03    0.341E-03
DAV:   3    -0.332849372599E+04   -0.16706E-06   -0.46414E-07  5440   0.435E-04
  66 F= -.33426817E+04 E0= -.33426817E+04  d E =-.302938E-04  mag=     1.0000
 BRION: g(F)=  0.106E-03 g(S)=  0.000E+00 retain N=  1 mean eig= 0.35
 eig:   0.346
 bond charge predicted
       N       E                     dE             d eps       ncg     rms          rms(c)
DAV:   1    -0.332849383480E+04   -0.10898E-03   -0.25312E-02  7168   0.833E-02    0.218E-02
DAV:   2    -0.332849385083E+04   -0.16028E-04   -0.23121E-04  6688   0.594E-03    0.112E-02
DAV:   3    -0.332849385301E+04   -0.21777E-05   -0.57361E-06  6144   0.153E-03    0.588E-03
DAV:   4    -0.332849385411E+04   -0.11013E-05   -0.13589E-06  5760   0.789E-04    0.153E-03
DAV:   5    -0.332849385428E+04   -0.17136E-06   -0.96859E-08  4864   0.278E-04
  67 F= -.33426818E+04 E0= -.33426818E+04  d E =-.100569E-03  mag=     1.0000
 BRION: g(F)=  0.105E-03 g(S)=  0.000E+00 retain N=  1 mean eig= 0.52
 eig:   0.521
 bond charge predicted
       N       E                     dE             d eps       ncg     rms          rms(c)
DAV:   1    -0.332849396576E+04   -0.11165E-03   -0.26050E-02  7168   0.844E-02    0.220E-02
DAV:   2    -0.332849398154E+04   -0.15777E-04   -0.22855E-04  6784   0.593E-03    0.112E-02
DAV:   3    -0.332849398391E+04   -0.23717E-05   -0.54341E-06  6048   0.149E-03    0.569E-03
DAV:   4    -0.332849398503E+04   -0.11191E-05   -0.12528E-06  5856   0.763E-04    0.145E-03
DAV:   5    -0.332849398519E+04   -0.15914E-06   -0.68668E-08  4768   0.264E-04
  68 F= -.33426819E+04 E0= -.33426819E+04  d E =-.101906E-03  mag=     1.0000
 BRION: g(F)=  0.107E-03 g(S)=  0.000E+00 retain N=  1 mean eig= 0.22
 eig:   0.217
 bond charge predicted
       N       E                     dE             d eps       ncg     rms          rms(c)
DAV:   1    -0.332849402701E+04   -0.41979E-04   -0.32471E-03  6624   0.299E-02    0.821E-03
DAV:   2    -0.332849402964E+04   -0.26248E-05   -0.36634E-05  6464   0.231E-03    0.424E-03
DAV:   3    -0.332849402977E+04   -0.13784E-06   -0.80753E-07  5632   0.647E-04
  69 F= -.33426819E+04 E0= -.33426819E+04  d E =-.354842E-04  mag=     1.0000
 BRION: g(F)=  0.104E-03 g(S)=  0.000E+00 retain N=  1 mean eig= 0.15
 eig:   0.149
 bond charge predicted
       N       E                     dE             d eps       ncg     rms          rms(c)
DAV:   1    -0.332849413583E+04   -0.10620E-03   -0.24963E-02  7168   0.828E-02    0.221E-02
DAV:   2    -0.332849415265E+04   -0.16814E-04   -0.23984E-04  6816   0.591E-03    0.112E-02
DAV:   3    -0.332849415474E+04   -0.20902E-05   -0.56423E-06  6080   0.149E-03    0.578E-03
DAV:   4    -0.332849415580E+04   -0.10654E-05   -0.13675E-06  5888   0.765E-04    0.152E-03
DAV:   5    -0.332849415597E+04   -0.16682E-06   -0.90669E-08  4800   0.280E-04
  70 F= -.33426820E+04 E0= -.33426820E+04  d E =-.989354E-04  mag=     1.0000
 BRION: g(F)=  0.106E-03 g(S)=  0.000E+00 retain N=  2 mean eig= 0.82
 eig:   0.825  0.825
 bond charge predicted
       N       E                     dE             d eps       ncg     rms          rms(c)
DAV:   1    -0.332849419748E+04   -0.41673E-04   -0.29320E-03  6624   0.283E-02    0.774E-03
DAV:   2    -0.332849419979E+04   -0.23131E-05   -0.30256E-05  6400   0.220E-03    0.413E-03
DAV:   3    -0.332849420012E+04   -0.33143E-06   -0.67017E-07  5728   0.620E-04
  71 F= -.33426820E+04 E0= -.33426820E+04  d E =-.346241E-04  mag=     1.0000
 BRION: g(F)=  0.104E-03 g(S)=  0.000E+00 retain N=  1 mean eig= 0.10
 eig:   0.103
 bond charge predicted
       N       E                     dE             d eps       ncg     rms          rms(c)
DAV:   1    -0.332849430000E+04   -0.10021E-03   -0.21887E-02  7168   0.775E-02    0.207E-02
DAV:   2    -0.332849431454E+04   -0.14540E-04   -0.20747E-04  6784   0.557E-03    0.106E-02
DAV:   3    -0.332849431618E+04   -0.16385E-05   -0.51644E-06  6048   0.146E-03    0.560E-03
DAV:   4    -0.332849431708E+04   -0.89419E-06   -0.12339E-06  5728   0.742E-04
  72 F= -.33426821E+04 E0= -.33426821E+04  d E =-.920812E-04  mag=     1.0000
 BRION: g(F)=  0.103E-03 g(S)=  0.000E+00 retain N=  2 mean eig= 2.11
 eig:   0.097  4.130
 bond charge predicted
       N       E                     dE             d eps       ncg     rms          rms(c)
DAV:   1    -0.332849439416E+04   -0.77981E-04   -0.11702E-02  7040   0.566E-02    0.151E-02
DAV:   2    -0.332849440215E+04   -0.79912E-05   -0.11137E-04  6624   0.409E-03    0.767E-03
DAV:   3    -0.332849440319E+04   -0.10324E-05   -0.24889E-06  5888   0.104E-03    0.395E-03
DAV:   4    -0.332849440378E+04   -0.58976E-06   -0.49821E-07  5632   0.523E-04
  73 F= -.33426822E+04 E0= -.33426822E+04  d E =-.678950E-04  mag=     1.0000
 BRION: g(F)=  0.103E-03 g(S)=  0.000E+00 retain N=  2 mean eig= 1.20
 eig:   1.204  1.204
 bond charge predicted
       N       E                     dE             d eps       ncg     rms          rms(c)
DAV:   1    -0.332849449023E+04   -0.87041E-04   -0.16216E-02  7168   0.667E-02    0.178E-02
DAV:   2    -0.332849450175E+04   -0.11520E-04   -0.15940E-04  6784   0.489E-03    0.936E-03
DAV:   3    -0.332849450281E+04   -0.10604E-05   -0.40333E-06  5984   0.136E-03    0.505E-03
DAV:   4    -0.332849450356E+04   -0.75647E-06   -0.86591E-07  5760   0.661E-04
  74 F= -.33426823E+04 E0= -.33426823E+04  d E =-.788779E-04  mag=     1.0000
 BRION: g(F)=  0.106E-03 g(S)=  0.000E+00 retain N=  1 mean eig= 0.16
 eig:   0.164
 bond charge predicted
       N       E                     dE             d eps       ncg     rms          rms(c)
DAV:   1    -0.332849455858E+04   -0.55776E-04   -0.59291E-03  6720   0.404E-02    0.108E-02
DAV:   2    -0.332849456291E+04   -0.43226E-05   -0.60247E-05  6496   0.296E-03    0.544E-03
DAV:   3    -0.332849456328E+04   -0.37975E-06   -0.12896E-06  5600   0.726E-04
  75 F= -.33426823E+04 E0= -.33426823E+04  d E =-.471517E-04  mag=     1.0000
 BRION: g(F)=  0.101E-03 g(S)=  0.000E+00 retain N=  2 mean eig= 2.00
 eig:   0.810  3.200
 bond charge predicted
       N       E                     dE             d eps       ncg     rms          rms(c)
DAV:   1    -0.332849464560E+04   -0.82693E-04   -0.14035E-02  7168   0.619E-02    0.169E-02
DAV:   2    -0.332849465602E+04   -0.10418E-04   -0.14211E-04  6848   0.463E-03    0.888E-03
DAV:   3    -0.332849465728E+04   -0.12667E-05   -0.33385E-06  6016   0.123E-03    0.467E-03
DAV:   4    -0.332849465804E+04   -0.75868E-06   -0.71514E-07  5728   0.626E-04
  76 F= -.33426824E+04 E0= -.33426824E+04  d E =-.742155E-04  mag=     1.0000
 BRION: g(F)=  0.103E-03 g(S)=  0.000E+00 retain N=  2 mean eig= 1.72
 eig:   0.621  2.819
 bond charge predicted
       N       E                     dE             d eps       ncg     rms          rms(c)
DAV:   1    -0.332849473441E+04   -0.77124E-04   -0.13107E-02  7104   0.600E-02    0.162E-02
DAV:   2    -0.332849474447E+04   -0.10068E-04   -0.13846E-04  6816   0.446E-03    0.837E-03
DAV:   3    -0.332849474512E+04   -0.64936E-06   -0.33510E-06  5952   0.123E-03
  77 F= -.33426825E+04 E0= -.33426825E+04  d E =-.691680E-04  mag=     1.0000
 BRION: g(F)=  0.101E-03 g(S)=  0.000E+00 retain N=  2 mean eig= 0.45
 eig:   0.513  0.388
 bond charge predicted
       N       E                     dE             d eps       ncg     rms          rms(c)
DAV:   1    -0.332849477945E+04   -0.34977E-04   -0.22670E-03  6688   0.249E-02    0.772E-03
DAV:   2    -0.332849478165E+04   -0.21935E-05   -0.29709E-05  6272   0.205E-03    0.411E-03
DAV:   3    -0.332849478196E+04   -0.31549E-06   -0.55286E-07  5440   0.488E-04
  78 F= -.33426825E+04 E0= -.33426825E+04  d E =-.285707E-04  mag=     1.0000
 BRION: g(F)=  0.106E-03 g(S)=  0.000E+00 retain N=  2 mean eig= 1.11
 eig:   1.112  1.112
 bond charge predicted
       N       E                     dE             d eps       ncg     rms          rms(c)
DAV:   1    -0.332849489365E+04   -0.11201E-03   -0.30367E-02  7168   0.911E-02    0.243E-02
DAV:   2    -0.332849491444E+04   -0.20781E-04   -0.28675E-04  7008   0.662E-03    0.127E-02
DAV:   3    -0.332849491662E+04   -0.21808E-05   -0.73057E-06  6048   0.179E-03    0.674E-03
DAV:   4    -0.332849491793E+04   -0.13123E-05   -0.15989E-06  5824   0.877E-04    0.169E-03
DAV:   5    -0.332849491818E+04   -0.24762E-06   -0.15305E-07  4928   0.288E-04
  79 F= -.33426826E+04 E0= -.33426826E+04  d E =-.107555E-03  mag=     1.0000
 BRION: g(F)=  0.983E-04 g(S)=  0.000E+00 retain N=  1 mean eig= 0.39
 eig:   0.394
 bond charge predicted
       N       E                     dE             d eps       ncg     rms          rms(c)
DAV:   1    -0.332849499960E+04   -0.81673E-04   -0.17678E-02  7168   0.698E-02    0.191E-02
DAV:   2    -0.332849501263E+04   -0.13031E-04   -0.18671E-04  6880   0.520E-03    0.976E-03
DAV:   3    -0.332849501289E+04   -0.25274E-06   -0.47147E-06  6016   0.143E-03
  80 F= -.33426827E+04 E0= -.33426827E+04  d E =-.753805E-04  mag=     1.0000
 BRION: g(F)=  0.105E-03 g(S)=  0.000E+00 retain N=  2 mean eig= 0.50
 eig:   0.395  0.607
 bond charge predicted
       N       E                     dE             d eps       ncg     rms          rms(c)
DAV:   1    -0.332849506826E+04   -0.55624E-04   -0.59395E-03  6784   0.402E-02    0.125E-02
DAV:   2    -0.332849507459E+04   -0.63285E-05   -0.80653E-05  6816   0.336E-03    0.648E-03
DAV:   3    -0.332849507546E+04   -0.87381E-06   -0.15785E-06  5696   0.892E-04
  81 F= -.33426827E+04 E0= -.33426827E+04  d E =-.486533E-04  mag=     1.0000
 BRION: g(F)=  0.976E-04 g(S)=  0.000E+00 retain N=  2 mean eig= 0.72
 eig:   0.216  1.232
 bond charge predicted
       N       E                     dE             d eps       ncg     rms          rms(c)
DAV:   1    -0.332849510788E+04   -0.33297E-04   -0.20023E-03  6784   0.234E-02    0.732E-03
DAV:   2    -0.332849511014E+04   -0.22546E-05   -0.27397E-05  6432   0.207E-03    0.418E-03
DAV:   3    -0.332849511041E+04   -0.27183E-06   -0.66998E-07  5696   0.649E-04
  82 F= -.33426828E+04 E0= -.33426828E+04  d E =-.280475E-04  mag=     1.0000
 BRION: g(F)=  0.963E-04 g(S)=  0.000E+00 retain N=  2 mean eig= 1.07
 eig:   0.433  1.708
 bond charge predicted
       N       E                     dE             d eps       ncg     rms          rms(c)
DAV:   1    -0.332849519842E+04   -0.88286E-04   -0.18495E-02  7168   0.712E-02    0.194E-02
DAV:   2    -0.332849521105E+04   -0.12626E-04   -0.17984E-04  6848   0.512E-03    0.993E-03
DAV:   3    -0.332849521234E+04   -0.12873E-05   -0.44658E-06  6016   0.137E-03    0.521E-03
DAV:   4    -0.332849521313E+04   -0.79360E-06   -0.10307E-06  5792   0.678E-04
  83 F= -.33426828E+04 E0= -.33426828E+04  d E =-.810804E-04  mag=     1.0000
 BRION: g(F)=  0.927E-04 g(S)=  0.000E+00 retain N=  2 mean eig= 0.57
 eig:   0.570  0.570
 bond charge predicted
       N       E                     dE             d eps       ncg     rms          rms(c)
DAV:   1    -0.332849540323E+04   -0.19090E-03   -0.22817E-01  7200   0.249E-01    0.663E-02
DAV:   2    -0.332849554629E+04   -0.14305E-03   -0.20069E-03  7616   0.176E-02    0.343E-02
DAV:   3    -0.332849556066E+04   -0.14374E-04   -0.53133E-05  7008   0.472E-03    0.181E-02
DAV:   4    -0.332849556896E+04   -0.82955E-05   -0.12482E-05  6496   0.224E-03    0.440E-03
DAV:   5    -0.332849556984E+04   -0.88476E-06   -0.16720E-06  5536   0.687E-04
  84 F= -.33426831E+04 E0= -.33426831E+04  d E =-.278942E-03  mag=     1.0000
 BRION: g(F)=  0.970E-04 g(S)=  0.000E+00 retain N=  2 mean eig= 0.71
 eig:   1.201  0.224
 bond charge predicted
       N       E                     dE             d eps       ncg     rms          rms(c)
DAV:   1    -0.332849546273E+04    0.10622E-03   -0.14820E-02  7168   0.634E-02    0.175E-02
DAV:   2    -0.332849547651E+04   -0.13774E-04   -0.17730E-04  6880   0.497E-03    0.914E-03
DAV:   3    -0.332849547751E+04   -0.10032E-05   -0.36148E-06  6016   0.122E-03    0.467E-03
DAV:   4    -0.332849547812E+04   -0.60885E-06   -0.91235E-07  5632   0.634E-04
  85 F= -.33426830E+04 E0= -.33426830E+04  d E =0.698822E-04  mag=     1.0000
 BRION: g(F)=  0.106E-03 g(S)=  0.000E+00 retain N=  1 mean eig= 0.30
 eig:   0.295
 bond charge predicted
       N       E                     dE             d eps       ncg     rms          rms(c)
DAV:   1    -0.332849559856E+04   -0.12105E-03   -0.51877E-02  7168   0.119E-01    0.317E-02
DAV:   2    -0.332849563797E+04   -0.39408E-04   -0.53326E-04  7296   0.857E-03    0.160E-02
DAV:   3    -0.332849564060E+04   -0.26352E-05   -0.12442E-05  6368   0.212E-03    0.827E-03
DAV:   4    -0.332849564246E+04   -0.18611E-05   -0.31378E-06  5888   0.104E-03    0.211E-03
DAV:   5    -0.332849564271E+04   -0.24668E-06   -0.30239E-07  5280   0.371E-04
  86 F= -.33426832E+04 E0= -.33426832E+04  d E =-.128858E-03  mag=     1.0000
 BRION: g(F)=  0.121E-03 g(S)=  0.000E+00 retain N=  2 mean eig= 0.71
 eig:   0.488  0.924
 bond charge predicted
       N       E                     dE             d eps       ncg     rms          rms(c)
DAV:   1    -0.332849566867E+04   -0.26207E-04   -0.12016E-03  6656   0.178E-02    0.601E-03
DAV:   2    -0.332849567057E+04   -0.18977E-05   -0.20659E-05  6208   0.191E-03    0.394E-03
DAV:   3    -0.332849567080E+04   -0.22992E-06   -0.44324E-07  5728   0.557E-04
  87 F= -.33426832E+04 E0= -.33426832E+04  d E =-.226578E-04  mag=     1.0000
 BRION: g(F)=  0.880E-04 g(S)=  0.000E+00 retain N=  1 mean eig= 0.11
 eig:   0.114
 bond charge predicted
       N       E                     dE             d eps       ncg     rms          rms(c)
DAV:   1    -0.332849575794E+04   -0.87370E-04   -0.21045E-02  7168   0.757E-02    0.209E-02
DAV:   2    -0.332849577425E+04   -0.16312E-04   -0.22217E-04  6944   0.564E-03    0.108E-02
DAV:   3    -0.332849577563E+04   -0.13813E-05   -0.51010E-06  6144   0.145E-03    0.554E-03
DAV:   4    -0.332849577645E+04   -0.81665E-06   -0.11870E-06  5856   0.721E-04
  88 F= -.33426833E+04 E0= -.33426833E+04  d E =-.815736E-04  mag=     1.0000
 BRION: g(F)=  0.985E-04 g(S)=  0.000E+00 retain N=  2 mean eig= 0.22
 eig:   0.104  0.344
 bond charge predicted
       N       E                     dE             d eps       ncg     rms          rms(c)
DAV:   1    -0.332849580653E+04   -0.30892E-04   -0.23106E-03  6752   0.253E-02    0.822E-03
DAV:   2    -0.332849580924E+04   -0.27156E-05   -0.36528E-05  6432   0.232E-03    0.435E-03
DAV:   3    -0.332849580920E+04    0.41560E-07   -0.78575E-07  5536   0.710E-04
  89 F= -.33426833E+04 E0= -.33426833E+04  d E =-.273432E-04  mag=     1.0000
 BRION: g(F)=  0.835E-04 g(S)=  0.000E+00 retain N=  1 mean eig= 0.23
 eig:   0.233
 bond charge predicted
       N       E                     dE             d eps       ncg     rms          rms(c)
DAV:   1    -0.332849589425E+04   -0.85011E-04   -0.20574E-02  7168   0.750E-02    0.211E-02
DAV:   2    -0.332849591022E+04   -0.15971E-04   -0.21878E-04  6976   0.556E-03    0.110E-02
DAV:   3    -0.332849591168E+04   -0.14608E-05   -0.55247E-06  6016   0.161E-03    0.594E-03
DAV:   4    -0.332849591277E+04   -0.10810E-05   -0.11739E-06  5792   0.744E-04    0.148E-03
DAV:   5    -0.332849591300E+04   -0.23819E-06   -0.91439E-08  4768   0.255E-04
 soft stop encountered!  aborting job ...
  90 F= -.33426834E+04 E0= -.33426834E+04  d E =-.815951E-04  mag=     1.0000
 BRION: g(F)=  0.826E-04 g(S)=  0.000E+00 retain N=  2 mean eig= 1.06
 eig:   0.154  1.964
 deleting file STOPCAR
 PROFILE, used timers:     329
