 running  256 mpi-ranks, with    1 threads/rank, on    7 nodes
 distrk:  each k-point on  128 cores,    2 groups
 distr:  one band on    4 cores,   32 groups
 vasp.6.4.1 05Apr23 (build May 18 2023 13:19:41) complex                         
 POSCAR found type information on POSCAR C S O H 
 POSCAR found :  4 types and     368 ions
 Reading from existing POTCAR
 scaLAPACK will be used
 Reading from existing POTCAR
 -----------------------------------------------------------------------------
|                                                                             |
|               ----> ADVICE to this user running VASP <----                  |
|                                                                             |
|     You have a (more or less) 'large supercell' and for larger cells it     |
|     might be more efficient to use real-space projection operators.         |
|     Therefore, try LREAL= Auto in the INCAR file.                           |
|     Mind: If you want to do very accurate calculations, keep the            |
|     reciprocal projection scheme (i.e. LREAL=.FALSE.).                      |
|                                                                             |
 -----------------------------------------------------------------------------

 LDA part: xc-table for Pade appr. of Perdew
 POSCAR, INCAR and KPOINTS ok, starting setup
 FFT: planning ... GRIDC
 FFT: planning ... GRID_SOFT
 FFT: planning ... GRID
 WAVECAR not read
 charge-density read from file: 01_AOPT                                 
 magnetization density read from file 1
 WARNING: random wavefunctions but no delay for mixing, default for NELMDL
 entering main loop
       N       E                     dE             d eps       ncg     rms          rms(c)
DAV:   1     0.113510045130E+05    0.11351E+05   -0.41741E+05  8576   0.939E+02
DAV:   2     0.409612405987E+03   -0.10941E+05   -0.10187E+05 11296   0.213E+02
DAV:   3    -0.301879080980E+04   -0.34284E+04   -0.32766E+04  9216   0.116E+02
DAV:   4    -0.331695108746E+04   -0.29816E+03   -0.28952E+03  8992   0.389E+01
DAV:   5    -0.332817882869E+04   -0.11228E+02   -0.11005E+02 10208   0.701E+00    0.133E-01
DAV:   6    -0.332840760805E+04   -0.22878E+00   -0.22609E+00  9408   0.103E+00    0.774E-02
DAV:   7    -0.332841538013E+04   -0.77721E-02   -0.77253E-02 10048   0.198E-01    0.494E-02
DAV:   8    -0.332841562436E+04   -0.24423E-03   -0.29550E-03  9536   0.376E-02    0.371E-02
DAV:   9    -0.332841561938E+04    0.49787E-05   -0.14092E-04  9504   0.859E-03    0.303E-02
DAV:  10    -0.332841559541E+04    0.23967E-04   -0.16066E-05  8000   0.433E-03    0.201E-02
DAV:  11    -0.332841558058E+04    0.14829E-04   -0.88073E-06  8288   0.321E-03    0.121E-02
DAV:  12    -0.332841557209E+04    0.84972E-05   -0.20419E-06  6304   0.165E-03    0.801E-03
DAV:  13    -0.332841556046E+04    0.11627E-04   -0.15512E-06  6336   0.151E-03    0.324E-03
DAV:  14    -0.332841555519E+04    0.52680E-05   -0.66518E-07  5216   0.100E-03    0.112E-03
DAV:  15    -0.332841555371E+04    0.14758E-05   -0.14239E-07  5088   0.587E-04    0.444E-04
DAV:  16    -0.332841555329E+04    0.42515E-06    0.13422E-09  4992   0.354E-04
   1 F= -.33426113E+04 E0= -.33426113E+04  d E =-.334261E+04  mag=     1.0000
 BRION: g(F)=  0.415E-03 g(S)=  0.000E+00
 bond charge predicted
       N       E                     dE             d eps       ncg     rms          rms(c)
DAV:   1    -0.332841579419E+04   -0.24047E-03   -0.77804E-02  7904   0.196E-01    0.476E-02
DAV:   2    -0.332841598301E+04   -0.18882E-03   -0.22720E-03  8128   0.263E-02    0.379E-02
DAV:   3    -0.332841597130E+04    0.11707E-04   -0.46911E-05  8352   0.596E-03    0.238E-02
DAV:   4    -0.332841597537E+04   -0.40656E-05   -0.30967E-05  7456   0.402E-03    0.663E-03
DAV:   5    -0.332841597755E+04   -0.21835E-05   -0.48172E-06  6560   0.177E-03    0.262E-03
DAV:   6    -0.332841597788E+04   -0.33085E-06   -0.31171E-07  5696   0.651E-04
   2 F= -.33426116E+04 E0= -.33426116E+04  d E =-.292167E-03  mag=     1.0000
 BRION: g(F)=  0.128E-02 g(S)=  0.000E+00 retain N=  1 mean eig= 0.16
 eig:   0.165
 bond charge predicted
       N       E                     dE             d eps       ncg     rms          rms(c)
DAV:   1    -0.332841612321E+04   -0.14565E-03   -0.82688E-03  7680   0.759E-02    0.167E-02
DAV:   2    -0.332841615138E+04   -0.28171E-04   -0.32549E-04  7968   0.115E-02    0.141E-02
DAV:   3    -0.332841614992E+04    0.14587E-05   -0.75050E-06  7200   0.231E-03    0.959E-03
DAV:   4    -0.332841614869E+04    0.12252E-05   -0.37274E-06  6144   0.177E-03    0.417E-03
DAV:   5    -0.332841614853E+04    0.16554E-06   -0.16744E-06  5856   0.106E-03
   3 F= -.33426118E+04 E0= -.33426118E+04  d E =-.144952E-03  mag=     1.0000
 BRION: g(F)=  0.358E-03 g(S)=  0.000E+00 retain N=  1 mean eig= 0.17
 eig:   0.170
 bond charge predicted
       N       E                     dE             d eps       ncg     rms          rms(c)
DAV:   1    -0.332841646883E+04   -0.32014E-03   -0.71205E-02  7520   0.175E-01    0.434E-02
DAV:   2    -0.332841661934E+04   -0.15051E-03   -0.17913E-03  7744   0.215E-02    0.305E-02
DAV:   3    -0.332841661291E+04    0.64382E-05   -0.32806E-05  7328   0.476E-03    0.186E-02
DAV:   4    -0.332841662049E+04   -0.75884E-05   -0.22687E-05  7232   0.325E-03    0.515E-03
DAV:   5    -0.332841662197E+04   -0.14756E-05   -0.34257E-06  6240   0.145E-03    0.216E-03
DAV:   6    -0.332841662222E+04   -0.24925E-06   -0.20494E-07  5440   0.538E-04
   4 F= -.33426121E+04 E0= -.33426121E+04  d E =-.344570E-03  mag=     1.0000
 BRION: g(F)=  0.413E-03 g(S)=  0.000E+00 retain N=  2 mean eig= 0.49
 eig:   0.159  0.817
 bond charge predicted
       N       E                     dE             d eps       ncg     rms          rms(c)
DAV:   1    -0.332841672340E+04   -0.10143E-03   -0.44832E-03  7392   0.501E-02    0.115E-02
DAV:   2    -0.332841673347E+04   -0.10075E-04   -0.12114E-04  7872   0.664E-03    0.732E-03
DAV:   3    -0.332841673317E+04    0.29616E-06   -0.22367E-06  5984   0.136E-03
   5 F= -.33426122E+04 E0= -.33426122E+04  d E =-.831839E-04  mag=     1.0000
 BRION: g(F)=  0.350E-03 g(S)=  0.000E+00 retain N=  1 mean eig= 0.19
 eig:   0.186
 bond charge predicted
       N       E                     dE             d eps       ncg     rms          rms(c)
DAV:   1    -0.332841704514E+04   -0.31167E-03   -0.66682E-02  7424   0.167E-01    0.421E-02
DAV:   2    -0.332841717712E+04   -0.13198E-03   -0.15921E-03  7680   0.199E-02    0.279E-02
DAV:   3    -0.332841717244E+04    0.46759E-05   -0.29583E-05  7296   0.434E-03    0.169E-02
DAV:   4    -0.332841718057E+04   -0.81299E-05   -0.20229E-05  7168   0.308E-03    0.495E-03
DAV:   5    -0.332841718151E+04   -0.93610E-06   -0.34062E-06  6208   0.146E-03
   6 F= -.33426125E+04 E0= -.33426125E+04  d E =-.326763E-03  mag=     1.0000
 BRION: g(F)=  0.349E-03 g(S)=  0.000E+00 retain N=  2 mean eig= 0.24
 eig:   0.144  0.340
 bond charge predicted
       N       E                     dE             d eps       ncg     rms          rms(c)
DAV:   1    -0.332841736166E+04   -0.18109E-03   -0.15485E-02  7424   0.820E-02    0.217E-02
DAV:   2    -0.332841739624E+04   -0.34577E-04   -0.41971E-04  7712   0.105E-02    0.154E-02
DAV:   3    -0.332841739463E+04    0.16018E-05   -0.86164E-06  6592   0.243E-03    0.913E-03
DAV:   4    -0.332841739659E+04   -0.19571E-05   -0.46657E-06  6080   0.153E-03    0.269E-03
DAV:   5    -0.332841739716E+04   -0.57311E-06   -0.61222E-07  5440   0.678E-04
   7 F= -.33426127E+04 E0= -.33426127E+04  d E =-.158359E-03  mag=     1.0000
 BRION: g(F)=  0.362E-03 g(S)=  0.000E+00 retain N=  1 mean eig= 0.18
 eig:   0.178
 bond charge predicted
       N       E                     dE             d eps       ncg     rms          rms(c)
DAV:   1    -0.332841764496E+04   -0.24837E-03   -0.37030E-02  7360   0.127E-01    0.317E-02
DAV:   2    -0.332841772153E+04   -0.76567E-04   -0.92177E-04  7680   0.156E-02    0.208E-02
DAV:   3    -0.332841771921E+04    0.23176E-05   -0.16709E-05  6944   0.333E-03    0.127E-02
DAV:   4    -0.332841772355E+04   -0.43357E-05   -0.11451E-05  6624   0.240E-03    0.387E-03
DAV:   5    -0.332841772407E+04   -0.52655E-06   -0.19637E-06  6112   0.117E-03
   8 F= -.33426129E+04 E0= -.33426129E+04  d E =-.239053E-03  mag=     1.0000
 BRION: g(F)=  0.342E-03 g(S)=  0.000E+00 retain N=  2 mean eig= 2.63
 eig:   0.150  5.106
 bond charge predicted
       N       E                     dE             d eps       ncg     rms          rms(c)
DAV:   1    -0.332841791604E+04   -0.19249E-03   -0.21344E-02  7360   0.973E-02    0.245E-02
DAV:   2    -0.332841796046E+04   -0.44423E-04   -0.53494E-04  7648   0.121E-02    0.155E-02
DAV:   3    -0.332841795918E+04    0.12825E-05   -0.96236E-06  6624   0.253E-03    0.942E-03
DAV:   4    -0.332841796157E+04   -0.23964E-05   -0.63872E-06  6272   0.190E-03    0.298E-03
DAV:   5    -0.332841796183E+04   -0.26077E-06   -0.11422E-06  5856   0.948E-04
   9 F= -.33426131E+04 E0= -.33426131E+04  d E =-.173888E-03  mag=     1.0000
 BRION: g(F)=  0.364E-03 g(S)=  0.000E+00 retain N=  2 mean eig= 0.22
 eig:   0.216  0.216
 bond charge predicted
       N       E                     dE             d eps       ncg     rms          rms(c)
DAV:   1    -0.332841812743E+04   -0.16586E-03   -0.12358E-02  7360   0.723E-02    0.193E-02
DAV:   2    -0.332841815508E+04   -0.27642E-04   -0.33511E-04  7648   0.919E-03    0.139E-02
DAV:   3    -0.332841815366E+04    0.14114E-05   -0.68946E-06  6432   0.215E-03    0.839E-03
DAV:   4    -0.332841815529E+04   -0.16241E-05   -0.40538E-06  6048   0.138E-03    0.239E-03
DAV:   5    -0.332841815575E+04   -0.45809E-06   -0.48339E-07  5504   0.606E-04
  10 F= -.33426132E+04 E0= -.33426132E+04  d E =-.143026E-03  mag=     1.0000
 BRION: g(F)=  0.319E-03 g(S)=  0.000E+00 retain N=  1 mean eig= 0.17
 eig:   0.165
 bond charge predicted
       N       E                     dE             d eps       ncg     rms          rms(c)
DAV:   1    -0.332841842655E+04   -0.27127E-03   -0.55935E-02  7360   0.151E-01    0.387E-02
DAV:   2    -0.332841853925E+04   -0.11269E-03   -0.13604E-03  7680   0.182E-02    0.252E-02
DAV:   3    -0.332841853563E+04    0.36112E-05   -0.24872E-05  7168   0.391E-03    0.152E-02
DAV:   4    -0.332841854277E+04   -0.71332E-05   -0.16576E-05  7040   0.277E-03    0.462E-03
DAV:   5    -0.332841854357E+04   -0.80350E-06   -0.28592E-06  6080   0.135E-03
  11 F= -.33426135E+04 E0= -.33426135E+04  d E =-.283416E-03  mag=     1.0000
 BRION: g(F)=  0.333E-03 g(S)=  0.000E+00 retain N=  2 mean eig= 1.39
 eig:   0.135  2.647
 bond charge predicted
       N       E                     dE             d eps       ncg     rms          rms(c)
DAV:   1    -0.332841866621E+04   -0.12344E-03   -0.69625E-03  7360   0.575E-02    0.150E-02
DAV:   2    -0.332841868146E+04   -0.15247E-04   -0.18827E-04  7648   0.748E-03    0.998E-03
DAV:   3    -0.332841868080E+04    0.66159E-06   -0.38171E-06  6240   0.171E-03
  12 F= -.33426136E+04 E0= -.33426136E+04  d E =-.101418E-03  mag=     1.0000
 BRION: g(F)=  0.321E-03 g(S)=  0.000E+00 retain N=  2 mean eig= 1.94
 eig:   0.198  3.692
 bond charge predicted
       N       E                     dE             d eps       ncg     rms          rms(c)
DAV:   1    -0.332841882728E+04   -0.14582E-03   -0.98489E-03  7360   0.640E-02    0.176E-02
DAV:   2    -0.332841884587E+04   -0.18588E-04   -0.23850E-04  7616   0.776E-03    0.118E-02
DAV:   3    -0.332841884535E+04    0.51688E-06   -0.48988E-06  6080   0.180E-03
  13 F= -.33426137E+04 E0= -.33426137E+04  d E =-.120415E-03  mag=     1.0000
 BRION: g(F)=  0.313E-03 g(S)=  0.000E+00 retain N=  2 mean eig= 0.16
 eig:   0.179  0.134
 bond charge predicted
       N       E                     dE             d eps       ncg     rms          rms(c)
DAV:   1    -0.332841909541E+04   -0.24954E-03   -0.41620E-02  7360   0.130E-01    0.346E-02
DAV:   2    -0.332841917395E+04   -0.78536E-04   -0.98340E-04  7584   0.153E-02    0.224E-02
DAV:   3    -0.332841917192E+04    0.20240E-05   -0.19322E-05  7008   0.344E-03    0.134E-02
DAV:   4    -0.332841917851E+04   -0.65902E-05   -0.12500E-05  6720   0.238E-03    0.397E-03
DAV:   5    -0.332841917922E+04   -0.70920E-06   -0.20068E-06  6048   0.114E-03
  14 F= -.33426140E+04 E0= -.33426140E+04  d E =-.245231E-03  mag=     1.0000
 BRION: g(F)=  0.301E-03 g(S)=  0.000E+00 retain N=  3 mean eig= 1.62
 eig:   3.629  0.180  1.045
 bond charge predicted
       N       E                     dE             d eps       ncg     rms          rms(c)
DAV:   1    -0.332840352434E+04    0.15654E-01   -0.95377E+00  7168   0.195E+00    0.513E-01
DAV:   2    -0.332842386240E+04   -0.20338E-01   -0.23725E-01  7520   0.235E-01    0.340E-01
DAV:   3    -0.332842299372E+04    0.86868E-03   -0.45581E-03  7872   0.525E-02    0.205E-01
DAV:   4    -0.332842375291E+04   -0.75919E-03   -0.26534E-03  7936   0.336E-02    0.587E-02
DAV:   5    -0.332842396201E+04   -0.20910E-03   -0.42164E-04  7904   0.155E-02    0.246E-02
DAV:   6    -0.332842399370E+04   -0.31690E-04   -0.41592E-05  8032   0.540E-03    0.184E-02
DAV:   7    -0.332842399753E+04   -0.38308E-05   -0.90040E-06  6592   0.286E-03    0.832E-03
DAV:   8    -0.332842400428E+04   -0.67540E-05   -0.81377E-06  6624   0.201E-03    0.294E-03
DAV:   9    -0.332842400665E+04   -0.23621E-05   -0.75593E-07  5536   0.805E-04    0.174E-03
DAV:  10    -0.332842400920E+04   -0.25510E-05   -0.15082E-07  5216   0.421E-04    0.757E-04
DAV:  11    -0.332842401118E+04   -0.19842E-05    0.50846E-08  4448   0.239E-04    0.377E-04
DAV:  12    -0.332842401327E+04   -0.20852E-05    0.31532E-08  4672   0.181E-04    0.315E-04
DAV:  13    -0.332842401547E+04   -0.22029E-05    0.57771E-08  4576   0.146E-04    0.223E-04
DAV:  14    -0.332842401692E+04   -0.14538E-05    0.64578E-08  4544   0.123E-04    0.988E-05
DAV:  15    -0.332842401786E+04   -0.93807E-06    0.96163E-08  4320   0.889E-05
  15 F= -.33426175E+04 E0= -.33426175E+04  d E =-.352339E-02  mag=     1.0000
 BRION: g(F)=  0.571E-03 g(S)=  0.000E+00 retain N=  4 mean eig= 2.38
 eig:   4.308  4.308  0.180  0.706
 bond charge predicted
       N       E                     dE             d eps       ncg     rms          rms(c)
DAV:   1    -0.332841419658E+04    0.98203E-02   -0.64667E+00  7168   0.159E+00    0.419E-01
DAV:   2    -0.332842766222E+04   -0.13466E-01   -0.15868E-01  7520   0.191E-01    0.279E-01
DAV:   3    -0.332842710415E+04    0.55807E-03   -0.30261E-03  7904   0.426E-02    0.168E-01
DAV:   4    -0.332842771416E+04   -0.61001E-03   -0.18053E-03  7872   0.275E-02    0.479E-02
DAV:   5    -0.332842783354E+04   -0.11939E-03   -0.29026E-04  7936   0.127E-02    0.202E-02
DAV:   6    -0.332842785243E+04   -0.18892E-04   -0.27459E-05  7648   0.443E-03    0.152E-02
DAV:   7    -0.332842785574E+04   -0.33031E-05   -0.56566E-06  6560   0.231E-03    0.722E-03
DAV:   8    -0.332842786100E+04   -0.52659E-05   -0.58028E-06  6336   0.172E-03    0.240E-03
DAV:   9    -0.332842786300E+04   -0.19971E-05   -0.55606E-07  5568   0.692E-04    0.147E-03
DAV:  10    -0.332842786500E+04   -0.20046E-05   -0.68153E-08  5088   0.354E-04    0.663E-04
DAV:  11    -0.332842786648E+04   -0.14723E-05    0.67975E-08  4448   0.213E-04    0.317E-04
DAV:  12    -0.332842786800E+04   -0.15207E-05    0.59151E-08  4576   0.159E-04    0.274E-04
DAV:  13    -0.332842786963E+04   -0.16344E-05    0.80071E-08  4544   0.126E-04    0.183E-04
DAV:  14    -0.332842787079E+04   -0.11576E-05    0.84784E-08  4480   0.104E-04    0.806E-05
DAV:  15    -0.332842787161E+04   -0.82143E-06    0.10051E-07  4320   0.794E-05
  16 F= -.33426203E+04 E0= -.33426203E+04  d E =-.275415E-02  mag=     1.0000
 BRION: g(F)=  0.303E-03 g(S)=  0.000E+00 retain N=  3 mean eig= 5.08
 eig:   7.158  7.158  0.926
 bond charge predicted
       N       E                     dE             d eps       ncg     rms          rms(c)
DAV:   1    -0.332840786504E+04    0.20006E-01   -0.73263E+00  7168   0.169E+00    0.452E-01
DAV:   2    -0.332842377344E+04   -0.15908E-01   -0.18556E-01  7552   0.205E-01    0.307E-01
DAV:   3    -0.332842296137E+04    0.81207E-03   -0.37179E-03  7872   0.466E-02    0.184E-01
DAV:   4    -0.332842356610E+04   -0.60473E-03   -0.23820E-03  7936   0.321E-02    0.567E-02
DAV:   5    -0.332842369616E+04   -0.13006E-03   -0.40515E-04  7904   0.154E-02    0.218E-02
DAV:   6    -0.332842372975E+04   -0.33592E-04   -0.41300E-05  7712   0.523E-03    0.159E-02
DAV:   7    -0.332842373342E+04   -0.36726E-05   -0.60535E-06  6496   0.238E-03    0.904E-03
DAV:   8    -0.332842373848E+04   -0.50566E-05   -0.70963E-06  6304   0.198E-03    0.223E-03
DAV:   9    -0.332842374051E+04   -0.20288E-05   -0.81746E-07  5696   0.794E-04    0.142E-03
DAV:  10    -0.332842374267E+04   -0.21572E-05   -0.68776E-08  5088   0.369E-04    0.780E-04
DAV:  11    -0.332842374455E+04   -0.18831E-05    0.42608E-08  4480   0.242E-04    0.400E-04
DAV:  12    -0.332842374639E+04   -0.18424E-05    0.27807E-08  4768   0.181E-04    0.272E-04
DAV:  13    -0.332842374819E+04   -0.18009E-05    0.61031E-08  4480   0.138E-04    0.198E-04
DAV:  14    -0.332842374958E+04   -0.13894E-05    0.61889E-08  4544   0.118E-04    0.111E-04
DAV:  15    -0.332842375050E+04   -0.91828E-06    0.93897E-08  4416   0.875E-05
  17 F= -.33426173E+04 E0= -.33426173E+04  d E =0.294013E-02  mag=     1.0000
 BRION: g(F)=  0.597E-03 g(S)=  0.000E+00 retain N=  3 mean eig= 4.35
 eig:   6.088  6.088  0.875
 bond charge predicted
       N       E                     dE             d eps       ncg     rms          rms(c)
DAV:   1    -0.332840681668E+04    0.16933E-01   -0.10247E+01  7168   0.200E+00    0.527E-01
DAV:   2    -0.332842831814E+04   -0.21501E-01   -0.25130E-01  7552   0.238E-01    0.347E-01
DAV:   3    -0.332842743431E+04    0.88384E-03   -0.47544E-03  7968   0.531E-02    0.209E-01
DAV:   4    -0.332842830801E+04   -0.87371E-03   -0.27645E-03  7936   0.340E-02    0.592E-02
DAV:   5    -0.332842849652E+04   -0.18851E-03   -0.44923E-04  8032   0.157E-02    0.255E-02
DAV:   6    -0.332842852368E+04   -0.27161E-04   -0.41962E-05  7968   0.545E-03    0.189E-02
DAV:   7    -0.332842852745E+04   -0.37709E-05   -0.90409E-06  6656   0.286E-03    0.866E-03
DAV:   8    -0.332842853437E+04   -0.69194E-05   -0.84681E-06  6592   0.207E-03    0.299E-03
DAV:   9    -0.332842853701E+04   -0.26322E-05   -0.78351E-07  5600   0.823E-04    0.179E-03
DAV:  10    -0.332842853983E+04   -0.28281E-05   -0.18534E-07  5376   0.438E-04    0.785E-04
DAV:  11    -0.332842854187E+04   -0.20376E-05    0.46104E-08  4320   0.249E-04    0.399E-04
DAV:  12    -0.332842854412E+04   -0.22531E-05    0.24246E-08  4736   0.189E-04    0.328E-04
DAV:  13    -0.332842854649E+04   -0.23704E-05    0.41136E-08  4480   0.159E-04    0.227E-04
DAV:  14    -0.332842854803E+04   -0.15367E-05    0.75777E-08  4544   0.125E-04    0.993E-05
DAV:  15    -0.332842854915E+04   -0.11229E-05    0.88871E-08  4384   0.976E-05    0.991E-05
DAV:  16    -0.332842854982E+04   -0.66566E-06    0.10510E-07  4384   0.727E-05
  18 F= -.33426207E+04 E0= -.33426207E+04  d E =-.343750E-02  mag=     1.0000
 BRION: g(F)=  0.344E-03 g(S)=  0.000E+00 retain N=  4 mean eig= 4.44
 eig:   7.859  7.859  0.763  1.262
 bond charge predicted
       N       E                     dE             d eps       ncg     rms          rms(c)
DAV:   1    -0.332841997327E+04    0.85759E-02   -0.57132E+00  7168   0.148E+00    0.394E-01
DAV:   2    -0.332843167280E+04   -0.11700E-01   -0.13892E-01  7552   0.177E-01    0.262E-01
DAV:   3    -0.332843118011E+04    0.49270E-03   -0.26513E-03  7968   0.397E-02    0.157E-01
DAV:   4    -0.332843171157E+04   -0.53146E-03   -0.15387E-03  7904   0.251E-02    0.443E-02
DAV:   5    -0.332843181864E+04   -0.10707E-03   -0.24169E-04  8000   0.113E-02    0.191E-02
DAV:   6    -0.332843183326E+04   -0.14621E-04   -0.21302E-05  7360   0.390E-03    0.140E-02
DAV:   7    -0.332843183472E+04   -0.14635E-05   -0.43966E-06  6240   0.207E-03    0.670E-03
DAV:   8    -0.332843183757E+04   -0.28505E-05   -0.49627E-06  6176   0.159E-03    0.216E-03
DAV:   9    -0.332843183894E+04   -0.13640E-05   -0.49566E-07  5344   0.643E-04    0.137E-03
DAV:  10    -0.332843184034E+04   -0.13987E-05   -0.31609E-08  4832   0.316E-04    0.647E-04
DAV:  11    -0.332843184145E+04   -0.11160E-05    0.73339E-08  4352   0.194E-04    0.302E-04
DAV:  12    -0.332843184256E+04   -0.11113E-05    0.65479E-08  4512   0.143E-04    0.241E-04
DAV:  13    -0.332843184372E+04   -0.11504E-05    0.88497E-08  4416   0.107E-04    0.177E-04
DAV:  14    -0.332843184459E+04   -0.87928E-06    0.89893E-08  4416   0.922E-05
  19 F= -.33426230E+04 E0= -.33426230E+04  d E =-.226129E-02  mag=     1.0000
 BRION: g(F)=  0.214E-03 g(S)=  0.000E+00 retain N=  3 mean eig= 4.42
 eig:   6.148  6.148  0.961
 bond charge predicted
       N       E                     dE             d eps       ncg     rms          rms(c)
DAV:   1    -0.332843014830E+04    0.16954E-02   -0.16302E+00  7168   0.766E-01    0.213E-01
DAV:   2    -0.332843337599E+04   -0.32277E-02   -0.38786E-02  7584   0.904E-02    0.138E-01
DAV:   3    -0.332843325079E+04    0.12521E-03   -0.72310E-04  7936   0.201E-02    0.824E-02
DAV:   4    -0.332843341310E+04   -0.16231E-03   -0.46048E-04  7904   0.132E-02    0.236E-02
DAV:   5    -0.332843344011E+04   -0.27009E-04   -0.72905E-05  7872   0.604E-03    0.100E-02
DAV:   6    -0.332843344403E+04   -0.39267E-05   -0.59099E-06  6336   0.200E-03    0.723E-03
DAV:   7    -0.332843344458E+04   -0.54587E-06   -0.10295E-06  5568   0.101E-03
  20 F= -.33426241E+04 E0= -.33426241E+04  d E =-.108962E-02  mag=     1.0000
 BRION: g(F)=  0.338E-03 g(S)=  0.000E+00 retain N=  3 mean eig= 2.75
 eig:   3.798  3.798  0.666
 bond charge predicted
       N       E                     dE             d eps       ncg     rms          rms(c)
DAV:   1    -0.332843132390E+04    0.21201E-02   -0.56404E-01  7168   0.465E-01    0.125E-01
DAV:   2    -0.332843248868E+04   -0.11648E-02   -0.13867E-02  7648   0.563E-02    0.837E-02
DAV:   3    -0.332843243996E+04    0.48722E-04   -0.26586E-04  7936   0.125E-02    0.503E-02
DAV:   4    -0.332843249518E+04   -0.55221E-04   -0.17492E-04  7648   0.853E-03    0.149E-02
DAV:   5    -0.332843250427E+04   -0.90947E-05   -0.28677E-05  7680   0.402E-03    0.598E-03
DAV:   6    -0.332843250606E+04   -0.17891E-05   -0.27769E-06  6240   0.144E-03    0.452E-03
DAV:   7    -0.332843250631E+04   -0.25064E-06   -0.36028E-07  5248   0.705E-04
  21 F= -.33426235E+04 E0= -.33426235E+04  d E =0.607938E-03  mag=     1.0000
 BRION: g(F)=  0.236E-03 g(S)=  0.000E+00 retain N=  2 mean eig= 1.88
 eig:   0.383  3.371
 bond charge predicted
       N       E                     dE             d eps       ncg     rms          rms(c)
DAV:   1    -0.332843261387E+04   -0.10780E-03   -0.12807E-02  7296   0.688E-02    0.201E-02
DAV:   2    -0.332843263924E+04   -0.25377E-04   -0.31830E-04  7936   0.848E-03    0.121E-02
DAV:   3    -0.332843263879E+04    0.45134E-06   -0.59462E-06  6400   0.178E-03
  22 F= -.33426236E+04 E0= -.33426236E+04  d E =-.103022E-03  mag=     1.0000
 BRION: g(F)=  0.223E-03 g(S)=  0.000E+00 retain N=  3 mean eig= 2.09
 eig:   5.390  0.579  0.311
 bond charge predicted
       N       E                     dE             d eps       ncg     rms          rms(c)
DAV:   1    -0.332843273622E+04   -0.96978E-04   -0.79137E-03  7392   0.506E-02    0.170E-02
DAV:   2    -0.332843275022E+04   -0.14000E-04   -0.19005E-04  7232   0.598E-03    0.108E-02
DAV:   3    -0.332843275024E+04   -0.18976E-07   -0.43973E-06  6272   0.158E-03
  23 F= -.33426237E+04 E0= -.33426237E+04  d E =-.844732E-04  mag=     1.0000
 BRION: g(F)=  0.199E-03 g(S)=  0.000E+00 retain N=  3 mean eig= 1.21
 eig:   3.097  0.458  0.071
 bond charge predicted
       N       E                     dE             d eps       ncg     rms          rms(c)
DAV:   1    -0.332843292625E+04   -0.17603E-03   -0.49699E-02  7296   0.126E-01    0.390E-02
DAV:   2    -0.332843301258E+04   -0.86337E-04   -0.11081E-03  7680   0.142E-02    0.235E-02
DAV:   3    -0.332843301223E+04    0.35693E-06   -0.21099E-05  6816   0.320E-03    0.136E-02
DAV:   4    -0.332843301936E+04   -0.71365E-05   -0.12242E-05  6464   0.205E-03    0.381E-03
DAV:   5    -0.332843302001E+04   -0.64727E-06   -0.18514E-06  5856   0.958E-04
  24 F= -.33426239E+04 E0= -.33426239E+04  d E =-.203632E-03  mag=     1.0000
 BRION: g(F)=  0.193E-03 g(S)=  0.000E+00 retain N=  4 mean eig= 3.30
 eig:   6.533  5.923  0.652  0.104
 bond charge predicted
       N       E                     dE             d eps       ncg     rms          rms(c)
DAV:   1    -0.332842888728E+04    0.41321E-02   -0.31571E+00  7168   0.998E-01    0.305E-01
DAV:   2    -0.332843480015E+04   -0.59129E-02   -0.72025E-02  7584   0.113E-01    0.183E-01
DAV:   3    -0.332843467911E+04    0.12104E-03   -0.13510E-03  7776   0.254E-02    0.106E-01
DAV:   4    -0.332843499676E+04   -0.31765E-03   -0.69755E-04  7744   0.150E-02    0.297E-02
DAV:   5    -0.332843504769E+04   -0.50933E-04   -0.11077E-04  7936   0.674E-03    0.136E-02
DAV:   6    -0.332843505428E+04   -0.65898E-05   -0.72427E-06  6496   0.217E-03    0.906E-03
DAV:   7    -0.332843505605E+04   -0.17681E-05   -0.15673E-06  5888   0.119E-03    0.459E-03
DAV:   8    -0.332843505864E+04   -0.25852E-05   -0.17963E-06  5856   0.933E-04    0.104E-03
DAV:   9    -0.332843506016E+04   -0.15260E-05   -0.13643E-07  5184   0.392E-04    0.726E-04
DAV:  10    -0.332843506172E+04   -0.15571E-05    0.65043E-08  4352   0.186E-04    0.474E-04
DAV:  11    -0.332843506317E+04   -0.14508E-05    0.76199E-08  4512   0.138E-04    0.279E-04
DAV:  12    -0.332843506471E+04   -0.15391E-05    0.63789E-08  4512   0.128E-04    0.182E-04
DAV:  13    -0.332843506591E+04   -0.12034E-05    0.85201E-08  4480   0.977E-05    0.167E-04
DAV:  14    -0.332843506669E+04   -0.78243E-06    0.98445E-08  4352   0.765E-05
  25 F= -.33426254E+04 E0= -.33426254E+04  d E =-.156113E-02  mag=     1.0000
 BRION: g(F)=  0.248E-03 g(S)=  0.000E+00 retain N=  5 mean eig= 4.30
 eig:   7.789  7.789  5.216  0.627  0.101
 bond charge predicted
       N       E                     dE             d eps       ncg     rms          rms(c)
DAV:   1    -0.332843089948E+04    0.41664E-02   -0.31549E+00  7168   0.994E-01    0.303E-01
DAV:   2    -0.332843678203E+04   -0.58826E-02   -0.71546E-02  7616   0.112E-01    0.182E-01
DAV:   3    -0.332843666062E+04    0.12141E-03   -0.13226E-03  7776   0.250E-02    0.105E-01
DAV:   4    -0.332843697610E+04   -0.31548E-03   -0.69848E-04  7808   0.149E-02    0.293E-02
DAV:   5    -0.332843702053E+04   -0.44432E-04   -0.11174E-04  7904   0.669E-03    0.136E-02
DAV:   6    -0.332843702676E+04   -0.62273E-05   -0.71948E-06  6432   0.212E-03    0.903E-03
DAV:   7    -0.332843702821E+04   -0.14484E-05   -0.15146E-06  5728   0.115E-03    0.462E-03
DAV:   8    -0.332843703053E+04   -0.23192E-05   -0.17502E-06  5920   0.919E-04    0.101E-03
DAV:   9    -0.332843703196E+04   -0.14292E-05   -0.13619E-07  5184   0.392E-04    0.713E-04
DAV:  10    -0.332843703341E+04   -0.14537E-05    0.66520E-08  4352   0.186E-04    0.467E-04
DAV:  11    -0.332843703476E+04   -0.13484E-05    0.79120E-08  4512   0.135E-04    0.281E-04
DAV:  12    -0.332843703627E+04   -0.15164E-05    0.64583E-08  4480   0.129E-04    0.176E-04
DAV:  13    -0.332843703745E+04   -0.11739E-05    0.85736E-08  4416   0.972E-05    0.170E-04
DAV:  14    -0.332843703821E+04   -0.75821E-06    0.99251E-08  4416   0.751E-05
  26 F= -.33426269E+04 E0= -.33426269E+04  d E =-.148274E-02  mag=     1.0000
 BRION: g(F)=  0.202E-03 g(S)=  0.000E+00 retain N=  2 mean eig= 4.40
 eig:   4.400  4.400
 bond charge predicted
       N       E                     dE             d eps       ncg     rms          rms(c)
DAV:   1    -0.332843079805E+04    0.62394E-02   -0.22970E+00  7168   0.853E-01    0.261E-01
DAV:   2    -0.332843521146E+04   -0.44134E-02   -0.53436E-02  7584   0.972E-02    0.159E-01
DAV:   3    -0.332843505450E+04    0.15696E-03   -0.10170E-03  7872   0.218E-02    0.922E-02
DAV:   4    -0.332843529725E+04   -0.24275E-03   -0.58458E-04  7744   0.140E-02    0.277E-02
DAV:   5    -0.332843532718E+04   -0.29925E-04   -0.10018E-04  7872   0.684E-03    0.116E-02
DAV:   6    -0.332843533289E+04   -0.57128E-05   -0.83308E-06  6400   0.223E-03    0.777E-03
DAV:   7    -0.332843533406E+04   -0.11652E-05   -0.11303E-06  5600   0.999E-04    0.471E-03
DAV:   8    -0.332843533575E+04   -0.16964E-05   -0.14401E-06  5600   0.900E-04    0.873E-04
DAV:   9    -0.332843533663E+04   -0.87672E-06   -0.13836E-07  5152   0.372E-04
  27 F= -.33426257E+04 E0= -.33426257E+04  d E =0.126837E-02  mag=     1.0000
 BRION: g(F)=  0.340E-03 g(S)=  0.000E+00 retain N=  3 mean eig= 4.81
 eig:   6.906  6.906  0.617
 bond charge predicted
       N       E                     dE             d eps       ncg     rms          rms(c)
DAV:   1    -0.332840108748E+04    0.34248E-01   -0.19081E+01  7168   0.244E+00    0.747E-01
DAV:   2    -0.332843926864E+04   -0.38181E-01   -0.45085E-01  7520   0.277E-01    0.449E-01
DAV:   3    -0.332843815980E+04    0.11088E-02   -0.84140E-03  7840   0.630E-02    0.260E-01
DAV:   4    -0.332843954976E+04   -0.13900E-02   -0.39527E-03  7872   0.354E-02    0.724E-02
DAV:   5    -0.332843986383E+04   -0.31406E-03   -0.63277E-04  7904   0.154E-02    0.337E-02
DAV:   6    -0.332843989659E+04   -0.32760E-04   -0.41352E-05  8032   0.518E-03    0.223E-02
DAV:   7    -0.332843990843E+04   -0.11840E-04   -0.12540E-05  6656   0.301E-03    0.977E-03
DAV:   8    -0.332843992020E+04   -0.11769E-04   -0.10232E-05  6752   0.210E-03    0.301E-03
DAV:   9    -0.332843992599E+04   -0.57990E-05   -0.95651E-07  5568   0.849E-04    0.181E-03
DAV:  10    -0.332843993145E+04   -0.54576E-05   -0.20667E-07  5504   0.433E-04    0.104E-03
DAV:  11    -0.332843993587E+04   -0.44203E-05   -0.19169E-08  4768   0.278E-04    0.624E-04
DAV:  12    -0.332843994128E+04   -0.54046E-05   -0.12583E-07  5152   0.271E-04    0.401E-04
DAV:  13    -0.332843994567E+04   -0.43928E-05   -0.41403E-08  4832   0.205E-04    0.339E-04
DAV:  14    -0.332843994857E+04   -0.28968E-05    0.39950E-08  4768   0.157E-04    0.150E-04
DAV:  15    -0.332843995035E+04   -0.17843E-05    0.77607E-08  4576   0.118E-04    0.121E-04
DAV:  16    -0.332843995136E+04   -0.10082E-05    0.98837E-08  4352   0.863E-05    0.815E-05
DAV:  17    -0.332843995233E+04   -0.97393E-06    0.10101E-07  4416   0.793E-05
  28 F= -.33426291E+04 E0= -.33426291E+04  d E =-.342095E-02  mag=     1.0000
 BRION: g(F)=  0.197E-03 g(S)=  0.000E+00 retain N=  1 mean eig= 5.77
 eig:   5.768
 bond charge predicted
       N       E                     dE             d eps       ncg     rms          rms(c)
DAV:   1    -0.332843743789E+04    0.25135E-02   -0.75762E-01  7168   0.501E-01    0.153E-01
DAV:   2    -0.332843897296E+04   -0.15351E-02   -0.18582E-02  7584   0.600E-02    0.987E-02
DAV:   3    -0.332843890605E+04    0.66904E-04   -0.37066E-04  7968   0.140E-02    0.572E-02
DAV:   4    -0.332843897123E+04   -0.65176E-04   -0.19879E-04  7488   0.837E-03    0.164E-02
DAV:   5    -0.332843898558E+04   -0.14353E-04   -0.29739E-05  7360   0.379E-03    0.691E-03
DAV:   6    -0.332843898839E+04   -0.28129E-05   -0.22653E-06  6048   0.128E-03    0.467E-03
DAV:   7    -0.332843898978E+04   -0.13853E-05   -0.32414E-07  5280   0.685E-04    0.251E-03
DAV:   8    -0.332843899124E+04   -0.14658E-05   -0.49552E-07  5376   0.571E-04    0.548E-04
DAV:   9    -0.332843899197E+04   -0.72527E-06    0.25565E-08  4640   0.240E-04
  29 F= -.33426284E+04 E0= -.33426284E+04  d E =0.693018E-03  mag=     1.0000
 BRION: g(F)=  0.108E-02 g(S)=  0.000E+00 retain N=  2 mean eig= 2.99
 eig:   5.836  0.153
 bond charge predicted
       N       E                     dE             d eps       ncg     rms          rms(c)
DAV:   1    -0.332843915710E+04   -0.16586E-03   -0.24887E-02  7296   0.102E-01    0.303E-02
DAV:   2    -0.332843922660E+04   -0.69493E-04   -0.83711E-04  7744   0.146E-02    0.235E-02
DAV:   3    -0.332843922260E+04    0.39919E-05   -0.18018E-05  7072   0.343E-03    0.145E-02
DAV:   4    -0.332843922331E+04   -0.70769E-06   -0.10738E-05  6368   0.218E-03    0.417E-03
DAV:   5    -0.332843922400E+04   -0.69092E-06   -0.18388E-06  5728   0.977E-04
  30 F= -.33426286E+04 E0= -.33426286E+04  d E =-.196177E-03  mag=     1.0000
 BRION: g(F)=  0.168E-03 g(S)=  0.000E+00 retain N=  1 mean eig= 0.16
 eig:   0.159
 bond charge predicted
       N       E                     dE             d eps       ncg     rms          rms(c)
DAV:   1    -0.332843925579E+04   -0.32480E-04   -0.26625E-02  7360   0.107E-01    0.324E-02
DAV:   2    -0.332843931758E+04   -0.61785E-04   -0.78467E-04  7904   0.149E-02    0.194E-02
DAV:   3    -0.332843931369E+04    0.38847E-05   -0.18023E-05  7296   0.324E-03    0.109E-02
DAV:   4    -0.332843931184E+04    0.18509E-05   -0.53253E-06  6176   0.191E-03    0.344E-03
DAV:   5    -0.332843931243E+04   -0.59395E-06   -0.12722E-06  5632   0.977E-04
  31 F= -.33426287E+04 E0= -.33426287E+04  d E =-.757616E-04  mag=     1.0000
 BRION: g(F)=  0.529E-03 g(S)=  0.000E+00 retain N=  2 mean eig= 0.19
 eig:   0.190  0.190
 bond charge predicted
       N       E                     dE             d eps       ncg     rms          rms(c)
DAV:   1    -0.332843938137E+04   -0.69533E-04   -0.53767E-03  7456   0.624E-02    0.156E-02
DAV:   2    -0.332843939598E+04   -0.14609E-04   -0.17632E-04  8000   0.917E-03    0.106E-02
DAV:   3    -0.332843939564E+04    0.34145E-06   -0.50515E-06  6368   0.220E-03
  32 F= -.33426287E+04 E0= -.33426287E+04  d E =-.759964E-04  mag=     1.0000
 BRION: g(F)=  0.137E-03 g(S)=  0.000E+00 retain N=  1 mean eig= 0.19
 eig:   0.186
 bond charge predicted
       N       E                     dE             d eps       ncg     rms          rms(c)
DAV:   1    -0.332843946783E+04   -0.71852E-04   -0.32752E-02  7392   0.110E-01    0.325E-02
DAV:   2    -0.332843952812E+04   -0.60289E-04   -0.75598E-04  7968   0.131E-02    0.180E-02
DAV:   3    -0.332843952642E+04    0.17076E-05   -0.14994E-05  7008   0.287E-03    0.104E-02
DAV:   4    -0.332843952901E+04   -0.25925E-05   -0.96860E-06  6368   0.205E-03    0.328E-03
DAV:   5    -0.332843952965E+04   -0.63935E-06   -0.16008E-06  5664   0.889E-04
  33 F= -.33426288E+04 E0= -.33426288E+04  d E =-.110504E-03  mag=     1.0000
 BRION: g(F)=  0.270E-03 g(S)=  0.000E+00 retain N=  2 mean eig= 0.16
 eig:   0.164  0.164
 bond charge predicted
       N       E                     dE             d eps       ncg     rms          rms(c)
DAV:   1    -0.332843957004E+04   -0.41028E-04   -0.21078E-03  7424   0.404E-02    0.101E-02
DAV:   2    -0.332843957546E+04   -0.54218E-05   -0.67695E-05  8192   0.598E-03    0.641E-03
DAV:   3    -0.332843957553E+04   -0.68336E-07   -0.17756E-06  5664   0.136E-03
  34 F= -.33426289E+04 E0= -.33426289E+04  d E =-.444797E-04  mag=     1.0000
 BRION: g(F)=  0.127E-03 g(S)=  0.000E+00 retain N=  1 mean eig= 0.24
 eig:   0.236
 bond charge predicted
       N       E                     dE             d eps       ncg     rms          rms(c)
DAV:   1    -0.332843965491E+04   -0.79449E-04   -0.26194E-02  7360   0.886E-02    0.300E-02
DAV:   2    -0.332843970427E+04   -0.49360E-04   -0.62353E-04  7904   0.106E-02    0.170E-02
DAV:   3    -0.332843970395E+04    0.31712E-06   -0.12677E-05  6816   0.237E-03    0.949E-03
DAV:   4    -0.332843970605E+04   -0.21029E-05   -0.46744E-06  6016   0.135E-03    0.276E-03
DAV:   5    -0.332843970654E+04   -0.48825E-06   -0.73179E-07  5408   0.642E-04
  35 F= -.33426290E+04 E0= -.33426290E+04  d E =-.113074E-03  mag=     1.0000
 BRION: g(F)=  0.196E-03 g(S)=  0.000E+00 retain N=  2 mean eig= 0.21
 eig:   0.207  0.207
 bond charge predicted
       N       E                     dE             d eps       ncg     rms          rms(c)
DAV:   1    -0.332843974128E+04   -0.35224E-04   -0.23169E-03  7424   0.288E-02    0.927E-03
DAV:   2    -0.332843974714E+04   -0.58617E-05   -0.67995E-05  7648   0.380E-03    0.573E-03
DAV:   3    -0.332843974700E+04    0.13656E-06   -0.13776E-06  5536   0.867E-04
  36 F= -.33426290E+04 E0= -.33426290E+04  d E =-.350236E-04  mag=     1.0000
 BRION: g(F)=  0.122E-03 g(S)=  0.000E+00 retain N=  1 mean eig= 0.21
 eig:   0.213
 bond charge predicted
       N       E                     dE             d eps       ncg     rms          rms(c)
DAV:   1    -0.332843982586E+04   -0.78718E-04   -0.27626E-02  7264   0.936E-02    0.297E-02
DAV:   2    -0.332843987573E+04   -0.49878E-04   -0.62380E-04  7872   0.107E-02    0.163E-02
DAV:   3    -0.332843987529E+04    0.44634E-06   -0.12322E-05  6720   0.239E-03    0.935E-03
DAV:   4    -0.332843987809E+04   -0.28018E-05   -0.63427E-06  6144   0.154E-03    0.279E-03
DAV:   5    -0.332843987839E+04   -0.30501E-06   -0.94213E-07  5504   0.682E-04
  37 F= -.33426292E+04 E0= -.33426292E+04  d E =-.113190E-03  mag=     1.0000
 BRION: g(F)=  0.167E-03 g(S)=  0.000E+00 retain N=  2 mean eig= 0.21
 eig:   0.203  0.215
 bond charge predicted
       N       E                     dE             d eps       ncg     rms          rms(c)
DAV:   1    -0.332843990977E+04   -0.31682E-04   -0.14801E-03  7424   0.297E-02    0.781E-03
DAV:   2    -0.332843991311E+04   -0.33412E-05   -0.42228E-05  8096   0.415E-03    0.461E-03
DAV:   3    -0.332843991311E+04    0.16298E-08   -0.86758E-07  5344   0.908E-04
  38 F= -.33426292E+04 E0= -.33426292E+04  d E =-.307711E-04  mag=     1.0000
 BRION: g(F)=  0.117E-03 g(S)=  0.000E+00 retain N=  1 mean eig= 0.23
 eig:   0.232
 bond charge predicted
       N       E                     dE             d eps       ncg     rms          rms(c)
DAV:   1    -0.332843999760E+04   -0.84491E-04   -0.25596E-02  7232   0.863E-02    0.282E-02
DAV:   2    -0.332844004167E+04   -0.44068E-04   -0.55204E-04  7872   0.962E-03    0.152E-02
DAV:   3    -0.332844004190E+04   -0.22398E-06   -0.10623E-05  6592   0.201E-03    0.856E-03
DAV:   4    -0.332844004441E+04   -0.25148E-05   -0.44619E-06  6080   0.124E-03    0.247E-03
DAV:   5    -0.332844004462E+04   -0.21234E-06   -0.70298E-07  5344   0.621E-04
  39 F= -.33426293E+04 E0= -.33426293E+04  d E =-.113267E-03  mag=     1.0000
 BRION: g(F)=  0.128E-03 g(S)=  0.000E+00 retain N=  2 mean eig= 0.36
 eig:   0.365  0.365
 bond charge predicted
       N       E                     dE             d eps       ncg     rms          rms(c)
DAV:   1    -0.332844007449E+04   -0.30077E-04   -0.16829E-03  7296   0.245E-02    0.788E-03
DAV:   2    -0.332844007797E+04   -0.34865E-05   -0.42233E-05  6976   0.299E-03    0.434E-03
DAV:   3    -0.332844007799E+04   -0.20606E-07   -0.80339E-07  5440   0.778E-04
  40 F= -.33426293E+04 E0= -.33426293E+04  d E =-.287051E-04  mag=     1.0000
 BRION: g(F)=  0.115E-03 g(S)=  0.000E+00 retain N=  2 mean eig= 3.90
 eig:   0.480  7.322
 bond charge predicted
       N       E                     dE             d eps       ncg     rms          rms(c)
DAV:   1    -0.332844015724E+04   -0.79261E-04   -0.20424E-02  7232   0.759E-02    0.246E-02
DAV:   2    -0.332844019045E+04   -0.33212E-04   -0.41645E-04  7520   0.804E-03    0.132E-02
DAV:   3    -0.332844019082E+04   -0.36845E-06   -0.78578E-06  6208   0.168E-03
  41 F= -.33426294E+04 E0= -.33426294E+04  d E =-.964176E-04  mag=     1.0000
 BRION: g(F)=  0.120E-03 g(S)=  0.000E+00 retain N=  2 mean eig= 0.34
 eig:   0.341  0.341
 bond charge predicted
       N       E                     dE             d eps       ncg     rms          rms(c)
DAV:   1    -0.332844024772E+04   -0.57276E-04   -0.70823E-03  7232   0.481E-02    0.166E-02
DAV:   2    -0.332844026025E+04   -0.12523E-04   -0.16679E-04  7552   0.576E-03    0.931E-03
DAV:   3    -0.332844026041E+04   -0.16810E-06   -0.35048E-06  6144   0.134E-03
  42 F= -.33426295E+04 E0= -.33426295E+04  d E =-.601496E-04  mag=     1.0000
 BRION: g(F)=  0.124E-03 g(S)=  0.000E+00 retain N=  1 mean eig= 0.12
 eig:   0.122
 bond charge predicted
       N       E                     dE             d eps       ncg     rms          rms(c)
DAV:   1    -0.332844032702E+04   -0.66772E-04   -0.12558E-02  7232   0.658E-02    0.209E-02
DAV:   2    -0.332844034941E+04   -0.22391E-04   -0.28764E-04  7840   0.779E-03    0.115E-02
DAV:   3    -0.332844034943E+04   -0.18743E-07   -0.57326E-06  6272   0.171E-03
  43 F= -.33426296E+04 E0= -.33426296E+04  d E =-.752217E-04  mag=     1.0000
 BRION: g(F)=  0.137E-03 g(S)=  0.000E+00 retain N=  2 mean eig= 0.14
 eig:   0.142  0.142
 bond charge predicted
       N       E                     dE             d eps       ncg     rms          rms(c)
DAV:   1    -0.332844037368E+04   -0.24273E-04   -0.83134E-04  7296   0.215E-02    0.643E-03
DAV:   2    -0.332844037513E+04   -0.14460E-05   -0.21291E-05  7552   0.295E-03    0.371E-03
DAV:   3    -0.332844037519E+04   -0.62864E-07   -0.51470E-07  5312   0.702E-04
  44 F= -.33426296E+04 E0= -.33426296E+04  d E =-.227739E-04  mag=     1.0000
 BRION: g(F)=  0.110E-03 g(S)=  0.000E+00 retain N=  2 mean eig= 2.01
 eig:   0.042  3.985
 bond charge predicted
       N       E                     dE             d eps       ncg     rms          rms(c)
DAV:   1    -0.332844046767E+04   -0.92540E-04   -0.45646E-02  7232   0.112E-01    0.366E-02
DAV:   2    -0.332844054145E+04   -0.73783E-04   -0.91657E-04  7680   0.119E-02    0.196E-02
DAV:   3    -0.332844054216E+04   -0.70885E-06   -0.17637E-05  6688   0.248E-03    0.109E-02
DAV:   4    -0.332844054655E+04   -0.43869E-05   -0.70219E-06  6048   0.144E-03    0.311E-03
DAV:   5    -0.332844054680E+04   -0.25064E-06   -0.11300E-06  5344   0.710E-04
  45 F= -.33426297E+04 E0= -.33426297E+04  d E =-.147556E-03  mag=     1.0000
 BRION: g(F)=  0.110E-03 g(S)=  0.000E+00 retain N=  3 mean eig= 2.13
 eig:   4.916  0.048  1.441
 bond charge predicted
       N       E                     dE             d eps       ncg     rms          rms(c)
DAV:   1    -0.332844058700E+04   -0.40456E-04   -0.33924E-03  7232   0.316E-02    0.106E-02
DAV:   2    -0.332844059300E+04   -0.59955E-05   -0.74561E-05  7040   0.350E-03    0.544E-03
DAV:   3    -0.332844059312E+04   -0.12550E-06   -0.13110E-06  5504   0.808E-04
  46 F= -.33426298E+04 E0= -.33426298E+04  d E =-.393695E-04  mag=     1.0000
 BRION: g(F)=  0.106E-03 g(S)=  0.000E+00 retain N=  3 mean eig= 1.74
 eig:   0.209  2.508  2.508
 bond charge predicted
       N       E                     dE             d eps       ncg     rms          rms(c)
DAV:   1    -0.332843915283E+04    0.14402E-02   -0.13540E+00  7168   0.611E-01    0.196E-01
DAV:   2    -0.332844135382E+04   -0.22010E-02   -0.26776E-02  7680   0.635E-02    0.104E-01
DAV:   3    -0.332844137006E+04   -0.16239E-04   -0.50086E-04  7680   0.131E-02    0.582E-02
DAV:   4    -0.332844147904E+04   -0.10898E-03   -0.19330E-04  7264   0.752E-03    0.159E-02
DAV:   5    -0.332844148853E+04   -0.94948E-05   -0.32882E-05  6848   0.338E-03    0.825E-03
DAV:   6    -0.332844149006E+04   -0.15304E-05   -0.22579E-06  6016   0.108E-03    0.497E-03
DAV:   7    -0.332844149079E+04   -0.73388E-06   -0.55511E-07  5312   0.683E-04
  47 F= -.33426305E+04 E0= -.33426305E+04  d E =-.758840E-03  mag=     1.0000
 BRION: g(F)=  0.180E-03 g(S)=  0.000E+00 retain N=  2 mean eig= 0.77
 eig:   0.437  1.096
 bond charge predicted
       N       E                     dE             d eps       ncg     rms          rms(c)
DAV:   1    -0.332843936731E+04    0.21227E-02   -0.80356E-01  7168   0.472E-01    0.153E-01
DAV:   2    -0.332844072552E+04   -0.13582E-02   -0.16467E-02  7776   0.495E-02    0.829E-02
DAV:   3    -0.332844072344E+04    0.20838E-05   -0.31831E-04  7424   0.105E-02    0.461E-02
DAV:   4    -0.332844079394E+04   -0.70499E-04   -0.13255E-04  7104   0.627E-03    0.137E-02
DAV:   5    -0.332844080074E+04   -0.68006E-05   -0.23625E-05  6656   0.302E-03    0.647E-03
DAV:   6    -0.332844080253E+04   -0.17893E-05   -0.15460E-06  5824   0.935E-04    0.396E-03
DAV:   7    -0.332844080292E+04   -0.38743E-06   -0.25179E-07  5184   0.523E-04
  48 F= -.33426299E+04 E0= -.33426299E+04  d E =0.580867E-03  mag=     1.0000
 BRION: g(F)=  0.133E-03 g(S)=  0.000E+00 retain N=  2 mean eig= 4.29
 eig:   0.962  7.614
 bond charge predicted
       N       E                     dE             d eps       ncg     rms          rms(c)
DAV:   1    -0.332844083326E+04   -0.30734E-04   -0.18848E-03  7424   0.317E-02    0.810E-03
DAV:   2    -0.332844083728E+04   -0.40126E-05   -0.48377E-05  8000   0.417E-03    0.496E-03
DAV:   3    -0.332844083732E+04   -0.39698E-07   -0.98445E-07  5344   0.963E-04
  49 F= -.33426300E+04 E0= -.33426300E+04  d E =-.299738E-04  mag=     1.0000
 BRION: g(F)=  0.108E-03 g(S)=  0.000E+00 retain N=  2 mean eig= 0.59
 eig:   0.591  0.591
 bond charge predicted
       N       E                     dE             d eps       ncg     rms          rms(c)
DAV:   1    -0.332844092200E+04   -0.84728E-04   -0.78040E-02  7168   0.147E-01    0.476E-02
DAV:   2    -0.332844104916E+04   -0.12715E-03   -0.15633E-03  7776   0.155E-02    0.255E-02
DAV:   3    -0.332844105039E+04   -0.12356E-05   -0.29440E-05  6848   0.318E-03    0.142E-02
DAV:   4    -0.332844105769E+04   -0.72947E-05   -0.11917E-05  6336   0.188E-03    0.395E-03
DAV:   5    -0.332844105803E+04   -0.34459E-06   -0.20198E-06  5728   0.905E-04
  50 F= -.33426302E+04 E0= -.33426302E+04  d E =-.187816E-03  mag=     1.0000
 BRION: g(F)=  0.105E-03 g(S)=  0.000E+00 retain N=  3 mean eig= 0.87
 eig:   0.945  0.023  1.652
 bond charge predicted
       N       E                     dE             d eps       ncg     rms          rms(c)
DAV:   1    -0.332844109183E+04   -0.34141E-04   -0.23836E-03  7168   0.267E-02    0.922E-03
DAV:   2    -0.332844109615E+04   -0.43230E-05   -0.53936E-05  7072   0.303E-03    0.466E-03
DAV:   3    -0.332844109622E+04   -0.68103E-07   -0.92292E-07  5312   0.715E-04
  51 F= -.33426302E+04 E0= -.33426302E+04  d E =-.323253E-04  mag=     1.0000
 BRION: g(F)=  0.998E-04 g(S)=  0.000E+00 retain N=  3 mean eig= 0.80
 eig:   0.170  0.542  1.680
 bond charge predicted
       N       E                     dE             d eps       ncg     rms          rms(c)
DAV:   1    -0.332844055232E+04    0.54383E-03   -0.69107E-01  7168   0.436E-01    0.139E-01
DAV:   2    -0.332844165901E+04   -0.11067E-02   -0.13439E-02  7680   0.449E-02    0.738E-02
DAV:   3    -0.332844166594E+04   -0.69333E-05   -0.24938E-04  7264   0.907E-03    0.410E-02
DAV:   4    -0.332844171869E+04   -0.52751E-04   -0.98140E-05  7072   0.528E-03    0.110E-02
DAV:   5    -0.332844172208E+04   -0.33887E-05   -0.16830E-05  6496   0.246E-03    0.580E-03
DAV:   6    -0.332844172295E+04   -0.86438E-06   -0.10076E-06  5664   0.761E-04
  52 F= -.33426307E+04 E0= -.33426307E+04  d E =-.526996E-03  mag=     1.0000
 BRION: g(F)=  0.156E-03 g(S)=  0.000E+00 retain N=  3 mean eig= 2.44
 eig:   3.161  3.161  0.986
 bond charge predicted
       N       E                     dE             d eps       ncg     rms          rms(c)
DAV:   1    -0.332844177507E+04   -0.52987E-04   -0.13792E-02  7264   0.691E-02    0.223E-02
DAV:   2    -0.332844180607E+04   -0.31001E-04   -0.36743E-04  7744   0.869E-03    0.131E-02
DAV:   3    -0.332844180572E+04    0.34773E-06   -0.73542E-06  6464   0.201E-03
  53 F= -.33426308E+04 E0= -.33426308E+04  d E =-.703571E-04  mag=     1.0000
 BRION: g(F)=  0.170E-03 g(S)=  0.000E+00 retain N=  3 mean eig= 2.96
 eig:   7.587  0.649  0.649
 bond charge predicted
       N       E                     dE             d eps       ncg     rms          rms(c)
DAV:   1    -0.332844137094E+04    0.43513E-03   -0.99715E-02  7168   0.178E-01    0.543E-02
DAV:   2    -0.332844156747E+04   -0.19653E-03   -0.23264E-03  7744   0.208E-02    0.302E-02
DAV:   3    -0.332844156358E+04    0.38914E-05   -0.43697E-05  7232   0.444E-03    0.173E-02
DAV:   4    -0.332844157156E+04   -0.79793E-05   -0.20979E-05  6816   0.277E-03    0.523E-03
DAV:   5    -0.332844157292E+04   -0.13650E-05   -0.35302E-06  5984   0.130E-03    0.231E-03
DAV:   6    -0.332844157332E+04   -0.40059E-06   -0.14734E-07  5216   0.436E-04
  54 F= -.33426306E+04 E0= -.33426306E+04  d E =0.195843E-03  mag=     1.0000
 BRION: g(F)=  0.174E-03 g(S)=  0.000E+00 retain N=  2 mean eig= 0.36
 eig:   0.141  0.579
 bond charge predicted
       N       E                     dE             d eps       ncg     rms          rms(c)
DAV:   1    -0.332844159868E+04   -0.25756E-04   -0.10305E-01  7168   0.184E-01    0.565E-02
DAV:   2    -0.332844179760E+04   -0.19892E-03   -0.24007E-03  7808   0.216E-02    0.319E-02
DAV:   3    -0.332844179434E+04    0.32586E-05   -0.46087E-05  7424   0.467E-03    0.183E-02
DAV:   4    -0.332844180231E+04   -0.79734E-05   -0.22856E-05  6816   0.295E-03    0.538E-03
DAV:   5    -0.332844180317E+04   -0.85519E-06   -0.37505E-06  5920   0.131E-03
  55 F= -.33426308E+04 E0= -.33426308E+04  d E =-.192206E-03  mag=     1.0000
 BRION: g(F)=  0.291E-03 g(S)=  0.000E+00 retain N=  3 mean eig= 0.59
 eig:   0.079  0.852  0.852
 bond charge predicted
       N       E                     dE             d eps       ncg     rms          rms(c)
DAV:   1    -0.332844183976E+04   -0.37441E-04   -0.19906E-03  7296   0.413E-02    0.922E-03
DAV:   2    -0.332844184480E+04   -0.50445E-05   -0.65889E-05  8064   0.608E-03    0.634E-03
DAV:   3    -0.332844184441E+04    0.39220E-06   -0.18351E-06  5536   0.137E-03
  56 F= -.33426308E+04 E0= -.33426308E+04  d E =-.381970E-04  mag=     1.0000
 BRION: g(F)=  0.892E-04 g(S)=  0.000E+00 retain N=  2 mean eig= 3.29
 eig:   0.041  6.541
 bond charge predicted
       N       E                     dE             d eps       ncg     rms          rms(c)
DAV:   1    -0.332844192310E+04   -0.78298E-04   -0.41219E-02  7200   0.106E-01    0.347E-02
DAV:   2    -0.332844198961E+04   -0.66511E-04   -0.81865E-04  7744   0.111E-02    0.184E-02
DAV:   3    -0.332844199019E+04   -0.58569E-06   -0.15500E-05  6592   0.232E-03    0.103E-02
DAV:   4    -0.332844199333E+04   -0.31337E-05   -0.61419E-06  6048   0.135E-03    0.284E-03
DAV:   5    -0.332844199350E+04   -0.17032E-06   -0.96598E-07  5280   0.648E-04
  57 F= -.33426310E+04 E0= -.33426310E+04  d E =-.125763E-03  mag=     1.0000
 BRION: g(F)=  0.924E-04 g(S)=  0.000E+00 retain N=  2 mean eig= 0.51
 eig:   0.204  0.821
 bond charge predicted
       N       E                     dE             d eps       ncg     rms          rms(c)
DAV:   1    -0.332844183139E+04    0.16193E-03   -0.24766E-02  7232   0.848E-02    0.267E-02
DAV:   2    -0.332844187582E+04   -0.44424E-04   -0.53159E-04  7808   0.933E-03    0.148E-02
DAV:   3    -0.332844187539E+04    0.42724E-06   -0.98110E-06  6464   0.195E-03
  58 F= -.33426309E+04 E0= -.33426309E+04  d E =0.100502E-03  mag=     1.0000
 BRION: g(F)=  0.101E-03 g(S)=  0.000E+00 retain N=  3 mean eig= 0.45
 eig:   0.204  0.205  0.955
 bond charge predicted
       N       E                     dE             d eps       ncg     rms          rms(c)
DAV:   1    -0.332844187692E+04   -0.11068E-05   -0.38657E-06  5920   0.129E-03    0.258E-03
DAV:   2    -0.332844187722E+04   -0.29057E-06   -0.68001E-07  5344   0.604E-04
  59 F= -.33426309E+04 E0= -.33426309E+04  d E =-.187123E-05  mag=     1.0000
 BRION: g(F)=  0.980E-04 g(S)=  0.000E+00 retain N=  4 mean eig= 1.22
 eig:   1.526  0.207  1.573  1.573
 bond charge predicted
       N       E                     dE             d eps       ncg     rms          rms(c)
DAV:   1    -0.332844187311E+04    0.38112E-05   -0.25944E-03  7296   0.372E-02    0.122E-02
DAV:   2    -0.332844187870E+04   -0.55868E-05   -0.96520E-05  8192   0.573E-03    0.910E-03
DAV:   3    -0.332844187756E+04    0.11425E-05   -0.25949E-06  5952   0.124E-03    0.546E-03
DAV:   4    -0.332844187681E+04    0.74261E-06   -0.14336E-06  5600   0.101E-03
  60 F= -.33426308E+04 E0= -.33426308E+04  d E =0.222504E-04  mag=     1.0000
 BRION: g(F)=  0.225E-03 g(S)=  0.000E+00 retain N=  5 mean eig= 1.05
 eig:   1.623  1.630  1.630  0.178  0.170
 bond charge predicted
       N       E                     dE             d eps       ncg     rms          rms(c)
DAV:   1    -0.332844193331E+04   -0.55749E-04   -0.77615E-03  7360   0.569E-02    0.145E-02
DAV:   2    -0.332844194916E+04   -0.15851E-04   -0.18346E-04  7904   0.706E-03    0.923E-03
DAV:   3    -0.332844194889E+04    0.26927E-06   -0.37192E-06  6240   0.144E-03
  61 F= -.33426309E+04 E0= -.33426309E+04  d E =-.531610E-04  mag=     1.0000
 BRION: g(F)=  0.118E-03 g(S)=  0.000E+00 retain N=  5 mean eig= 2.38
 eig:   7.976  1.192  1.192  1.052  0.507
 bond charge predicted
       N       E                     dE             d eps       ncg     rms          rms(c)
DAV:   1    -0.332844202229E+04   -0.73137E-04   -0.23723E-02  7296   0.864E-02    0.256E-02
DAV:   2    -0.332844206090E+04   -0.38609E-04   -0.47450E-04  7936   0.916E-03    0.152E-02
DAV:   3    -0.332844206023E+04    0.67626E-06   -0.82316E-06  6816   0.191E-03
  62 F= -.33426310E+04 E0= -.33426310E+04  d E =-.732883E-04  mag=     1.0000
 BRION: g(F)=  0.164E-03 g(S)=  0.000E+00 retain N=  3 mean eig= 1.68
 eig:   3.811  0.086  1.155
 bond charge predicted
       N       E                     dE             d eps       ncg     rms          rms(c)
DAV:   1    -0.332844200351E+04    0.57394E-04   -0.12210E-02  7360   0.693E-02    0.206E-02
DAV:   2    -0.332844202090E+04   -0.17387E-04   -0.26904E-04  8288   0.835E-03    0.137E-02
DAV:   3    -0.332844201924E+04    0.16587E-05   -0.72200E-06  6752   0.182E-03    0.824E-03
DAV:   4    -0.332844202032E+04   -0.10820E-05   -0.51031E-06  5920   0.143E-03    0.252E-03
DAV:   5    -0.332844202036E+04   -0.40978E-07   -0.74839E-07  5408   0.695E-04
  63 F= -.33426310E+04 E0= -.33426310E+04  d E =-.651315E-05  mag=     1.0000
 BRION: g(F)=  0.114E-03 g(S)=  0.000E+00 retain N=  3 mean eig= 2.41
 eig:   0.075  0.687  6.460
 bond charge predicted
       N       E                     dE             d eps       ncg     rms          rms(c)
DAV:   1    -0.332844206981E+04   -0.49494E-04   -0.12946E-02  7296   0.859E-02    0.197E-02
DAV:   2    -0.332844209390E+04   -0.24085E-04   -0.30312E-04  8096   0.112E-02    0.122E-02
DAV:   3    -0.332844209281E+04    0.10929E-05   -0.69687E-06  7104   0.236E-03    0.728E-03
DAV:   4    -0.332844209321E+04   -0.40093E-06   -0.34658E-06  5952   0.168E-03
  64 F= -.33426310E+04 E0= -.33426310E+04  d E =-.470851E-04  mag=     1.0000
 BRION: g(F)=  0.247E-03 g(S)=  0.000E+00 retain N=  3 mean eig= 2.59
 eig:   7.328  0.129  0.312
 bond charge predicted
       N       E                     dE             d eps       ncg     rms          rms(c)
DAV:   1    -0.332844212942E+04   -0.36617E-04   -0.28717E-03  7328   0.513E-02    0.113E-02
DAV:   2    -0.332844213551E+04   -0.60872E-05   -0.85551E-05  8128   0.743E-03    0.748E-03
DAV:   3    -0.332844213501E+04    0.50338E-06   -0.27360E-06  5824   0.180E-03
  65 F= -.33426311E+04 E0= -.33426311E+04  d E =-.410414E-04  mag=     1.0000
 BRION: g(F)=  0.960E-04 g(S)=  0.000E+00 retain N=  1 mean eig= 0.18
 eig:   0.178
 bond charge predicted
       N       E                     dE             d eps       ncg     rms          rms(c)
DAV:   1    -0.332844218217E+04   -0.46655E-04   -0.17391E-02  7296   0.832E-02    0.244E-02
DAV:   2    -0.332844221725E+04   -0.35089E-04   -0.43276E-04  7936   0.105E-02    0.138E-02
DAV:   3    -0.332844221667E+04    0.58650E-06   -0.85609E-06  6560   0.222E-03
  66 F= -.33426311E+04 E0= -.33426311E+04  d E =-.691534E-04  mag=     1.0000
 BRION: g(F)=  0.187E-03 g(S)=  0.000E+00 retain N=  2 mean eig= 0.22
 eig:   0.195  0.253
 bond charge predicted
       N       E                     dE             d eps       ncg     rms          rms(c)
DAV:   1    -0.332844224622E+04   -0.28961E-04   -0.13832E-03  7488   0.354E-02    0.833E-03
DAV:   2    -0.332844224905E+04   -0.28386E-05   -0.39776E-05  8064   0.521E-03    0.535E-03
DAV:   3    -0.332844224896E+04    0.92783E-07   -0.12272E-06  5344   0.126E-03
  67 F= -.33426311E+04 E0= -.33426311E+04  d E =-.279670E-04  mag=     1.0000
 BRION: g(F)=  0.866E-04 g(S)=  0.000E+00 retain N=  1 mean eig= 0.17
 eig:   0.174
 bond charge predicted
       N       E                     dE             d eps       ncg     rms          rms(c)
DAV:   1    -0.332844230478E+04   -0.55723E-04   -0.19593E-02  7296   0.807E-02    0.249E-02
DAV:   2    -0.332844234196E+04   -0.37183E-04   -0.45277E-04  7904   0.950E-03    0.136E-02
DAV:   3    -0.332844234149E+04    0.46962E-06   -0.86952E-06  6496   0.200E-03
  68 F= -.33426312E+04 E0= -.33426312E+04  d E =-.765073E-04  mag=     1.0000
 BRION: g(F)=  0.126E-03 g(S)=  0.000E+00 retain N=  2 mean eig= 0.22
 eig:   0.222  0.222
 bond charge predicted
       N       E                     dE             d eps       ncg     rms          rms(c)
DAV:   1    -0.332844236605E+04   -0.24090E-04   -0.11499E-03  7392   0.282E-02    0.777E-03
DAV:   2    -0.332844236834E+04   -0.22885E-05   -0.33535E-05  7936   0.413E-03    0.490E-03
DAV:   3    -0.332844236829E+04    0.49942E-07   -0.87836E-07  5376   0.103E-03
  69 F= -.33426312E+04 E0= -.33426312E+04  d E =-.241612E-04  mag=     1.0000
 BRION: g(F)=  0.831E-04 g(S)=  0.000E+00 retain N=  1 mean eig= 0.18
 eig:   0.181
 bond charge predicted
       N       E                     dE             d eps       ncg     rms          rms(c)
DAV:   1    -0.332844242789E+04   -0.59552E-04   -0.17068E-02  7296   0.698E-02    0.230E-02
DAV:   2    -0.332844245766E+04   -0.29766E-04   -0.36430E-04  7616   0.771E-03    0.123E-02
DAV:   3    -0.332844245785E+04   -0.19756E-06   -0.67863E-06  6208   0.162E-03
  70 F= -.33426313E+04 E0= -.33426313E+04  d E =-.762677E-04  mag=     1.0000
 BRION: g(F)=  0.856E-04 g(S)=  0.000E+00 retain N=  2 mean eig= 0.44
 eig:   0.205  0.681
 bond charge predicted
       N       E                     dE             d eps       ncg     rms          rms(c)
DAV:   1    -0.332844249066E+04   -0.33001E-04   -0.28804E-03  7360   0.320E-02    0.111E-02
DAV:   2    -0.332844249585E+04   -0.51954E-05   -0.68184E-05  7488   0.390E-03    0.616E-03
DAV:   3    -0.332844249584E+04    0.15018E-07   -0.15756E-06  5568   0.999E-04
  71 F= -.33426314E+04 E0= -.33426314E+04  d E =-.312236E-04  mag=     1.0000
 BRION: g(F)=  0.855E-04 g(S)=  0.000E+00 retain N=  1 mean eig= 0.09
 eig:   0.092
 bond charge predicted
       N       E                     dE             d eps       ncg     rms          rms(c)
DAV:   1    -0.332844255070E+04   -0.54851E-04   -0.12088E-02  7296   0.581E-02    0.191E-02
DAV:   2    -0.332844257068E+04   -0.19980E-04   -0.24636E-04  7136   0.615E-03    0.102E-02
DAV:   3    -0.332844257081E+04   -0.13097E-06   -0.46073E-06  6048   0.132E-03
  72 F= -.33426314E+04 E0= -.33426314E+04  d E =-.626845E-04  mag=     1.0000
 BRION: g(F)=  0.827E-04 g(S)=  0.000E+00 retain N=  2 mean eig= 0.27
 eig:   0.274  0.274
 bond charge predicted
       N       E                     dE             d eps       ncg     rms          rms(c)
DAV:   1    -0.332844259779E+04   -0.27109E-04   -0.18569E-03  7296   0.254E-02    0.906E-03
DAV:   2    -0.332844260142E+04   -0.36283E-05   -0.47926E-05  6944   0.329E-03    0.527E-03
DAV:   3    -0.332844260142E+04   -0.19791E-08   -0.10202E-06  5472   0.884E-04
  73 F= -.33426314E+04 E0= -.33426314E+04  d E =-.267966E-04  mag=     1.0000
 BRION: g(F)=  0.823E-04 g(S)=  0.000E+00 retain N=  1 mean eig= 0.16
 eig:   0.162
 bond charge predicted
       N       E                     dE             d eps       ncg     rms          rms(c)
DAV:   1    -0.332844265372E+04   -0.52302E-04   -0.11965E-02  7296   0.583E-02    0.194E-02
DAV:   2    -0.332844267440E+04   -0.20675E-04   -0.25446E-04  7296   0.643E-03    0.104E-02
DAV:   3    -0.332844267448E+04   -0.82073E-07   -0.47813E-06  6176   0.137E-03
  74 F= -.33426315E+04 E0= -.33426315E+04  d E =-.621652E-04  mag=     1.0000
 BRION: g(F)=  0.828E-04 g(S)=  0.000E+00 retain N=  2 mean eig= 0.36
 eig:   0.365  0.365
 bond charge predicted
       N       E                     dE             d eps       ncg     rms          rms(c)
DAV:   1    -0.332844270203E+04   -0.27634E-04   -0.20772E-03  7360   0.270E-02    0.948E-03
DAV:   2    -0.332844270589E+04   -0.38606E-05   -0.49985E-05  6976   0.330E-03    0.526E-03
DAV:   3    -0.332844270588E+04    0.14552E-07   -0.11762E-06  5408   0.908E-04
  75 F= -.33426315E+04 E0= -.33426315E+04  d E =-.257715E-04  mag=     1.0000
 BRION: g(F)=  0.791E-04 g(S)=  0.000E+00 retain N=  1 mean eig= 0.10
 eig:   0.100
 bond charge predicted
       N       E                     dE             d eps       ncg     rms          rms(c)
DAV:   1    -0.332844275935E+04   -0.53455E-04   -0.13198E-02  7296   0.606E-02    0.198E-02
DAV:   2    -0.332844278108E+04   -0.21730E-04   -0.26668E-04  7232   0.634E-03    0.106E-02
DAV:   3    -0.332844278113E+04   -0.54715E-07   -0.50050E-06  6144   0.136E-03
  76 F= -.33426316E+04 E0= -.33426316E+04  d E =-.626379E-04  mag=     1.0000
 BRION: g(F)=  0.802E-04 g(S)=  0.000E+00 retain N=  2 mean eig= 0.26
 eig:   0.261  0.261
 bond charge predicted
       N       E                     dE             d eps       ncg     rms          rms(c)
DAV:   1    -0.332844280647E+04   -0.25399E-04   -0.17332E-03  7360   0.240E-02    0.883E-03
DAV:   2    -0.332844280998E+04   -0.35069E-05   -0.46049E-05  6944   0.315E-03    0.529E-03
DAV:   3    -0.332844280999E+04   -0.41910E-08   -0.98459E-07  5472   0.854E-04
  77 F= -.33426316E+04 E0= -.33426316E+04  d E =-.254812E-04  mag=     1.0000
 BRION: g(F)=  0.778E-04 g(S)=  0.000E+00 retain N=  1 mean eig= 0.17
 eig:   0.172
 bond charge predicted
       N       E                     dE             d eps       ncg     rms          rms(c)
DAV:   1    -0.332844286039E+04   -0.50404E-04   -0.11655E-02  7296   0.570E-02    0.190E-02
DAV:   2    -0.332844288005E+04   -0.19665E-04   -0.24242E-04  7264   0.618E-03    0.102E-02
DAV:   3    -0.332844288019E+04   -0.14005E-06   -0.45309E-06  6176   0.130E-03
  78 F= -.33426317E+04 E0= -.33426317E+04  d E =-.597711E-04  mag=     1.0000
 BRION: g(F)=  0.774E-04 g(S)=  0.000E+00 retain N=  2 mean eig= 0.37
 eig:   0.366  0.366
 bond charge predicted
       N       E                     dE             d eps       ncg     rms          rms(c)
DAV:   1    -0.332844290756E+04   -0.27507E-04   -0.22315E-03  7360   0.269E-02    0.968E-03
DAV:   2    -0.332844291163E+04   -0.40764E-05   -0.52258E-05  6912   0.316E-03    0.533E-03
DAV:   3    -0.332844291162E+04    0.16764E-07   -0.12128E-06  5408   0.875E-04
  79 F= -.33426317E+04 E0= -.33426317E+04  d E =-.256906E-04  mag=     1.0000
 BRION: g(F)=  0.744E-04 g(S)=  0.000E+00 retain N=  1 mean eig= 0.09
 eig:   0.087
 bond charge predicted
       N       E                     dE             d eps       ncg     rms          rms(c)
DAV:   1    -0.332844296218E+04   -0.50546E-04   -0.12056E-02  7296   0.576E-02    0.189E-02
DAV:   2    -0.332844298159E+04   -0.19413E-04   -0.23903E-04  7136   0.594E-03    0.101E-02
DAV:   3    -0.332844298172E+04   -0.12782E-06   -0.44672E-06  6176   0.128E-03
  80 F= -.33426318E+04 E0= -.33426318E+04  d E =-.584220E-04  mag=     1.0000
 BRION: g(F)=  0.747E-04 g(S)=  0.000E+00 retain N=  2 mean eig= 0.27
 eig:   0.273  0.273
 bond charge predicted
       N       E                     dE             d eps       ncg     rms          rms(c)
DAV:   1    -0.332844300611E+04   -0.24515E-04   -0.17035E-03  7328   0.228E-02    0.866E-03
DAV:   2    -0.332844300950E+04   -0.33898E-05   -0.44035E-05  6944   0.292E-03    0.517E-03
DAV:   3    -0.332844300952E+04   -0.18394E-07   -0.94550E-07  5440   0.792E-04
  81 F= -.33426318E+04 E0= -.33426318E+04  d E =-.245966E-04  mag=     1.0000
 BRION: g(F)=  0.738E-04 g(S)=  0.000E+00 retain N=  1 mean eig= 0.17
 eig:   0.171
 bond charge predicted
       N       E                     dE             d eps       ncg     rms          rms(c)
DAV:   1    -0.332844305661E+04   -0.47109E-04   -0.10615E-02  7296   0.542E-02    0.181E-02
DAV:   2    -0.332844307434E+04   -0.17734E-04   -0.21932E-04  7072   0.586E-03    0.975E-03
DAV:   3    -0.332844307450E+04   -0.16275E-06   -0.40942E-06  6112   0.125E-03
 soft stop encountered!  aborting job ...
  82 F= -.33426318E+04 E0= -.33426318E+04  d E =-.554407E-04  mag=     1.0000
 BRION: g(F)=  0.733E-04 g(S)=  0.000E+00 retain N=  2 mean eig= 0.36
 eig:   0.362  0.362
 deleting file STOPCAR
 PROFILE, used timers:     329
