 running  128 mpi-ranks, with    1 threads/rank, on    2 nodes
 distrk:  each k-point on  128 cores,    1 groups
 distr:  one band on    1 cores,  128 groups
 vasp.6.4.2 20Jul23 (build Oct 12 2023 10:31:02) complex                         
 POSCAR found type information on POSCAR GeSe
 POSCAR found :  2 types and     576 ions
 Reading from existing POTCAR
 -----------------------------------------------------------------------------
|                                                                             |
|           W    W    AA    RRRRR   N    N  II  N    N   GGGG   !!!           |
|           W    W   A  A   R    R  NN   N  II  NN   N  G    G  !!!           |
|           W    W  A    A  R    R  N N  N  II  N N  N  G       !!!           |
|           W WW W  AAAAAA  RRRRR   N  N N  II  N  N N  G  GGG   !            |
|           WW  WW  A    A  R   R   N   NN  II  N   NN  G    G                |
|           W    W  A    A  R    R  N    N  II  N    N   GGGG   !!!           |
|                                                                             |
|     You use a magnetic or noncollinear calculation, but did not specify     |
|     the initial magnetic moment with the MAGMOM tag. Note that a            |
|     default of 1 will be used for all atoms. This ferromagnetic setup       |
|     may break the symmetry of the crystal, in particular it may rule        |
|     out finding an antiferromagnetic solution. Thence, we recommend         |
|     setting the initial magnetic moment manually or verifying carefully     |
|     that this magnetic setup is desired.                                    |
|                                                                             |
 -----------------------------------------------------------------------------

 scaLAPACK will be used
 Reading from existing POTCAR
 -----------------------------------------------------------------------------
|                                                                             |
|               ----> ADVICE to this user running VASP <----                  |
|                                                                             |
|     You have a (more or less) 'large supercell' and for larger cells it     |
|     might be more efficient to use real-space projection operators.         |
|     Therefore, try LREAL= Auto in the INCAR file.                           |
|     Mind: For very accurate calculation, you might also keep the            |
|     reciprocal projection scheme (i.e. LREAL=.FALSE.).                      |
|                                                                             |
 -----------------------------------------------------------------------------

 LDA part: xc-table for Pade appr. of Perdew
 -----------------------------------------------------------------------------
|                                                                             |
|           W    W    AA    RRRRR   N    N  II  N    N   GGGG   !!!           |
|           W    W   A  A   R    R  NN   N  II  NN   N  G    G  !!!           |
|           W    W  A    A  R    R  N N  N  II  N N  N  G       !!!           |
|           W WW W  AAAAAA  RRRRR   N  N N  II  N  N N  G  GGG   !            |
|           WW  WW  A    A  R   R   N   NN  II  N   NN  G    G                |
|           W    W  A    A  R    R  N    N  II  N    N   GGGG   !!!           |
|                                                                             |
|     The number of bands has been changed from the values supplied in        |
|     the INCAR file. This is a result of running the parallel version.       |
|     The orbitals not found in the WAVECAR file will be initialized with     |
|     random numbers, which is usually adequate. For correlated               |
|     calculations, however, you should redo the groundstate calculation.     |
|     I found NBANDS = 1728. Now, NBANDS = 1792.                              |
|                                                                             |
 -----------------------------------------------------------------------------

 POSCAR, INCAR and KPOINTS ok, starting setup
 FFT: planning ... GRIDC
 FFT: planning ... GRID_SOFT
 FFT: planning ... GRID
 WAVECAR not read
 WARNING: random wavefunctions but no delay for mixing, default for NELMDL
 entering main loop
       N       E                     dE             d eps       ncg     rms          rms(c)
DAV:   1     0.144444947717E+05    0.14444E+05   -0.11353E+06  7168   0.135E+03
DAV:   2    -0.594383462692E+03   -0.15039E+05   -0.14476E+05  8448   0.202E+02
DAV:   3    -0.228599278716E+04   -0.16916E+04   -0.16552E+04  8704   0.679E+01
DAV:   4    -0.234184889107E+04   -0.55856E+02   -0.55263E+02  8576   0.126E+01
DAV:   5    -0.234420740423E+04   -0.23585E+01   -0.23542E+01  9216   0.214E+00    0.824E+01
DAV:   6    -0.225391084116E+04    0.90297E+02   -0.28551E+02  8448   0.935E+00    0.572E+01
DAV:   7    -0.228722499285E+04   -0.33314E+02   -0.54580E+01  8192   0.465E+00    0.441E+01
DAV:   8    -0.234789765108E+04   -0.60673E+02   -0.22176E+01  8064   0.343E+00    0.335E+01
DAV:   9    -0.237127350004E+04   -0.23376E+02   -0.14300E+01  8192   0.285E+00    0.286E+01
DAV:  10    -0.240352992654E+04   -0.32256E+02   -0.88270E+00  7808   0.200E+00    0.196E+01
DAV:  11    -0.243373274040E+04   -0.30203E+02   -0.22634E+01  8064   0.260E+00    0.422E+00
DAV:  12    -0.243495432715E+04   -0.12216E+01   -0.26896E+00  9088   0.112E+00    0.190E+00
DAV:  13    -0.243502616016E+04   -0.71833E-01   -0.27146E-01  9856   0.305E-01    0.881E-01
DAV:  14    -0.243504414666E+04   -0.17987E-01   -0.43551E-02  8576   0.166E-01    0.432E-01
DAV:  15    -0.243505169188E+04   -0.75452E-02   -0.87802E-03  8448   0.876E-02    0.188E-01
DAV:  16    -0.243505294300E+04   -0.12511E-02   -0.18203E-03  7936   0.308E-02    0.764E-02
DAV:  17    -0.243505296484E+04   -0.21844E-04   -0.37223E-04  8704   0.157E-02    0.270E-02
DAV:  18    -0.243505297745E+04   -0.12611E-04   -0.76164E-05  8192   0.821E-03    0.111E-02
DAV:  19    -0.243505298089E+04   -0.34413E-05   -0.60834E-06  8448   0.237E-03    0.505E-03
DAV:  20    -0.243505298308E+04   -0.21902E-05   -0.81037E-07  5248   0.106E-03    0.245E-03
DAV:  21    -0.243505298293E+04    0.15637E-06    0.25734E-07  4480   0.555E-04
   1 F= -.25636142E+04 E0= -.25636142E+04  d E =-.146515E-15  mag=     0.0000
 writing wavefunctions
