72
Lattice="12.472337003355282 4.394319837e-06 -2.6718289202e-06 4.3990201823e-06 12.485668377939172 2.5439384846e-06 -3.0368935821e-06 2.8884392761e-06 11.012836851322199" Properties=species:S:1:pos:R:3:forces:R:3:magmoms:R:1 energy=-297.8162161 stress="0.004393213500073063 -0.0003576561800745008 0.0005256126066672412 -0.0003576561800745008 -0.004123782611870203 0.00048296094198006166 0.0005256126066672412 0.00048296094198006166 -0.0042948109594584845" dipole="_JSON [[0.0, 0.0, 0.0]]" magmom=0.0017706 free_energy=-297.8162161 pbc="T T T"
Ge       1.11716164       0.21348314       1.36550854       0.11000307      -0.04038393       0.03078078       0.00000000
Ge       3.21455851      10.84402230       4.09940577       0.04117898       0.18905585       0.21373683       0.00000000
Ge       7.13241715       2.60238451       4.05254140       0.48267046      -0.06786135      -0.10097704      -0.00000000
Ge       7.27957451       6.90614992       4.10393495      -0.45591266      -0.71996197      -0.01133241      -0.00000000
Ge       7.07178408      10.93919278       4.20516607       0.40675379       0.17389866       0.00681798       0.00000000
Ge      11.43910905       2.72936268       4.45332217      -0.81682328      -0.44981689      -0.30295111      -0.00000000
Ge      11.20781271       6.92398607       4.13828833      -0.15306186      -0.43169456      -0.20971569       0.00000000
Ge      11.29094236      10.99018596       4.28556405      -0.33147288       0.22171361      -0.57547838       0.00000000
Ge       0.80545256       1.59565663       6.96703313      -0.46251288       0.35529355      -0.23090415      -0.00000000
Ge       1.10121528       6.31469763       6.77797070      -0.14823494      -0.26808351       0.66126643       0.00000000
Ge       0.87737877      10.08540799       6.88979044      -0.26936746       0.08175753       0.17733234       0.00000000
Ge       5.08726915       2.29964935       6.96264327       0.28155842      -0.06855345       0.39680540      -0.00000000
Ge       4.69402788       6.39379811       6.95353264       0.31284240      -0.62981302       0.41383335       0.00000000
Ge       4.87414922      10.23099608       6.90062667       0.02123758      -0.17226347      -0.52898338       0.00000000
Ge       9.12082742       1.83892304       7.11645344       0.13806118       0.41090734      -1.56654287      -0.00000000
Ge       9.11416164       6.22762742       6.98188116       0.33333587      -0.22143912      -0.20283329      -0.00000000
Ge       2.95061173       6.91547240       4.37592184       0.05987646      -0.01601098      -0.85638993       0.00000000
Ge       2.70360455       2.66372269       4.09926075       0.02317200      -0.00306693       0.16859093       0.00000000
Ge       9.04137640      10.37182506       6.99893840       0.29085914      -0.15005428       0.35666629       0.00000000
Ge      11.49891091       8.25928305       9.70018371       0.05346961      -0.22035334      -0.66229566       0.00000000
Ge      11.27025068      12.25384435       9.64771365      -0.54325676       0.35339092      -0.39860969       0.00000000
Ge       0.52582640       4.64524541       1.15436947      -0.12470394       0.11067638       0.17405459      -0.00000000
Ge       0.65771883       8.84166549       1.39470831       0.32741102       0.50346857       0.40570970       0.00000000
Ge       5.14931857       0.53953237       1.23036795      -0.49153105      -0.05662621       0.40543332       0.00000000
Ge       5.33384420       4.54664522       1.65626015      -0.65458510      -0.29260526      -0.01421140      -0.00000000
Ge       9.26851190       0.66393838       1.29851157       0.23134949      -0.01108929       0.28261327      -0.00000000
Ge       9.57935365       4.32450611       1.22274520      -0.02730700       0.04434782       0.77465048      -0.00000000
Ge       5.53002713       8.38743981       1.12865802      -0.13075961       0.36224288       0.53117738       0.00000000
Ge       2.92347295       3.70086341       9.42269509      -0.77213258       1.05912646       0.02164742       0.00000000
Ge       2.91044955       7.73267136      10.58478588       0.95521203      -0.01344080       0.34490993       0.00000000
Ge       3.14073109      12.27941354       9.51870516      -0.16704116       0.10147851       0.05366553       0.00000000
Ge       7.46020344       4.03608367       9.45452525      -0.73692028       0.73470104      -0.08301324       0.00000000
Ge       7.10064644       8.08895162       9.31775464       0.00374695      -0.31487477       0.20413739       0.00000000
Ge       7.13384531      12.24909948       9.76404235      -0.10589003      -0.40033659      -0.43434150       0.00000000
Ge      11.22883718       3.99279753       9.21826192       0.34383159       0.34481772       1.05984427      -0.00000000
Ge       9.16233650       8.83674277       1.55538780       0.46595251      -0.01104654      -0.26626284       0.00000000
Se      10.90661443      -0.01606769       6.84287049       0.80949903       0.03239974       0.84110821      -0.00000000
Se       2.91252365       4.33140100       6.84243743       0.10324606       0.11831032       0.53112163      -0.00000000
Se       2.89954088       8.59039115       7.47338852       0.22916493      -0.07690537      -0.16803987      -0.00000000
Se       7.17257800       0.29378203       7.17523397      -0.59676952      -0.45356141       0.30647503      -0.00000000
Se       7.01003122       4.32862426       6.90293085       0.04580908       0.08508445       0.31604568      -0.00000000
Se       7.07408159       8.47482759       6.80027657      -0.40117805      -0.03662825       0.51523808      -0.00000000
Se      11.60267231       4.53269752       6.89974505      -0.71080441       0.02277563      -0.67846939      -0.00000000
Se       8.99756199       0.27360731       3.80360892       0.35137873      -0.45690094       0.13217698      -0.00000000
Se       0.79129466      -0.02523405       3.86533819       0.24919476       0.59785654       0.56156714      -0.00000000
Se       0.60590105       4.42316448       3.80734346       0.75559257       0.31490731      -0.16395409      -0.00000000
Se       0.81146695       8.50953916       3.97587089       0.15572000       0.10385504      -0.31012342      -0.00000000
Se       5.23716277       0.13139449       3.82016291      -0.72915366       0.19049968      -0.08110010      -0.00000000
Se       4.97594588       4.14528225       4.18103461      -0.10598374       0.36821165      -0.53893155      -0.00000000
Se       5.00273122       8.51262720       3.76431174      -0.39051851      -0.20188461      -0.16467804      -0.00000000
Se       2.87486592       0.16052036       7.04377291       0.39815061      -0.18882873       0.00124832      -0.00000000
Se      11.22138781       8.22687734       7.01516440       0.26184669       0.89482596       0.54615479      -0.00000000
Se      11.22541721      10.63120766       1.56271379      -0.17280590      -0.44459765       0.30289151      -0.00000000
Se       2.86134202       2.13979366       1.64893664       0.39109585      -0.12364575      -0.48402788      -0.00000000
Se      11.33275047       2.32974240       1.59831596      -0.69812995      -0.38622833       0.33749713      -0.00000000
Se       9.23969640       4.29601542       3.86966863      -0.22255930       0.05521680      -0.38808278      -0.00000000
Se       0.59485166       2.19300481       9.42879143       0.42764577      -0.50954994      -0.17305763      -0.00000000
Se       1.07913778       6.53270585       9.58046398      -1.20479140      -0.75921715      -0.81008561      -0.00000000
Se       0.70310501      10.73307934       9.45902838       0.67821220      -0.87885113      -0.22404040      -0.00000000
Se       5.03532229       2.51355128       9.56286619       0.53734485      -1.09559367      -0.40972020      -0.00000000
Se       5.10918413       6.15912742       9.50975143      -0.39045333       0.65860410      -0.21749560      -0.00000000
Se       5.00989553      10.47890069       9.33527028       0.41919978       0.41112783       0.73814878      -0.00000000
Se       9.27932765       2.30291215       9.47266090       0.25621521      -0.41851728       0.73883054      -0.00000000
Se       9.27172804       6.44410534       9.45952809      -0.50886784      -0.03879867       0.04211942      -0.00000000
Se       9.14274668      10.46523475       9.61455568      -0.28418260       0.14755457      -0.51583576      -0.00000000
Se       2.68274177       5.79311228       1.78489015       1.08958561       1.40870198      -0.07607946      -0.00000000
Se       2.88895650      10.76122578       1.67217306      -0.26922515      -0.59228541      -0.83270560      -0.00000000
Se       7.08447803       2.24495373       1.39802801       0.02056250       0.50607563       0.28703474      -0.00000000
Se       7.13018434       6.37702062       1.51557201       0.24391383       0.18927298       0.26562380      -0.00000000
Se       7.17710693      10.38689336       1.70476789      -0.50846215       0.30219560      -0.51091282      -0.00000000
Se      11.05494730       6.51844704       1.49884146       0.52310668      -0.24508692       0.10650391      -0.00000000
Se       9.06819798       8.63222066       4.07514673       0.75639170       0.01210478      -0.06127652      -0.00000000
