72
Lattice="12.453427689411248 4.3876576074e-06 -2.6677781595e-06 4.4150673418e-06 12.53121477317819 2.5532185026e-06 -3.0569523291e-06 2.9075174792e-06 11.085576873907067" Properties=species:S:1:pos:R:3:forces:R:3:magmoms:R:1 energy=-300.57183865 stress="-0.001652324235438001 -0.0007858969002876116 -0.0017493962673107058 -0.0007858969002876116 -0.0038364937424506954 0.0011839922361698214 -0.0017493962673107058 0.0011839922361698214 -0.011741919115388456" dipole="_JSON [[0.0, 0.0, 0.0]]" magmom=0.0018719 free_energy=-300.57183865 pbc="T T T"
Ge       1.14680966       0.23403746       1.44508748      -0.13389054       0.10577252       0.28161378      -0.00000000
Ge       3.18846346      10.91547093       4.20542224      -0.41680217      -0.20895689      -0.32228728      -0.00000000
Ge       7.03911709       2.94760174       4.02096117      -0.04563342      -0.55944748       0.17401061       0.00000000
Ge       7.45165231       6.69749903       4.02736582       0.16298633      -0.20814014      -0.00856457       0.00000000
Ge       7.20344765      10.91017264       3.97882411      -0.08832919       0.48198623       0.69125534       0.00000000
Ge      11.28582267       2.39213810       4.00094860       0.55830139      -0.06141494       0.04684067      -0.00000000
Ge      11.45044015       6.74416569       4.04873606      -0.32764186      -0.28299352       0.21844776       0.00000000
Ge      11.13579009      11.02130084       3.97980378       0.19468343       0.48474119       0.00043679      -0.00000000
Ge       1.10416519       2.08703783       7.15143620      -0.45945174      -0.13732891       0.30871949      -0.00000000
Ge       1.39723294       6.51049705       7.09062690      -0.51064760      -0.45717588      -0.93954908       0.00000000
Ge       0.58961538      10.26204172       7.06277294       0.35016607       0.38337184      -0.55726867      -0.00000000
Ge       4.82322530       1.59305938       6.90351233       0.14359703       0.31546988      -0.08572055       0.00000000
Ge       5.22502344       6.23446087       6.74046258       0.01671967      -0.76358297       0.03152874       0.00000000
Ge       5.37749871      10.31593494       7.03962240      -0.25329867      -0.06562526      -0.36454280       0.00000000
Ge       9.49606305       1.99888299       7.04396102      -0.23007356       0.62103055      -0.22455762       0.00000000
Ge       9.11499301       5.90223747       6.84349884       0.00411678      -0.34976970       0.67505696       0.00000000
Ge       2.88923420       6.79275581       4.21272068      -0.33908088      -0.08505414      -0.20662151       0.00000000
Ge       2.86603603       2.65431324       4.31375031       0.01932296      -0.42632777      -0.34277100      -0.00000000
Ge       9.02023990      10.32679825       6.91305279       0.59930316      -0.21217401       0.47733156       0.00000000
Ge      11.36013128       8.17227099       9.69008950      -0.17958675       0.18075938      -0.13599089       0.00000000
Ge      11.22971695      12.29624508       9.86499865       0.00811246      -0.09477161      -0.42590802      -0.00000000
Ge       1.08355844       4.79145660       1.26244336      -0.21352381      -0.25956529       0.14415764      -0.00000000
Ge       0.94491964       8.73152771       1.80083999      -0.22970091       0.16055054      -0.83844524      -0.00000000
Ge       5.17919033       0.49850506       1.41746167      -0.39952212      -0.07454821      -0.15196567       0.00000000
Ge       4.99648054       4.47746162       1.53375747      -0.10735543       0.42689887       0.02695186       0.00000000
Ge       9.11321341       0.57141458       1.42071441       0.16478462       0.01001169      -0.50664225       0.00000000
Ge       9.50252982       4.62817992       1.38790057      -0.11944731      -0.47583623      -0.03307005       0.00000000
Ge       5.23979559       8.57535566       1.60807870      -0.16153141      -0.06602326      -0.19692241       0.00000000
Ge       3.08601403       4.01462735       9.68536647      -0.38581332       0.02431964       0.30247608       0.00000000
Ge       3.20602915       8.24524219       9.62136002      -0.11139949       0.57573149      -0.17662840       0.00000000
Ge       3.12553973      12.23798471       9.68782355      -0.19573399       0.13020213       0.36211470      -0.00000000
Ge       7.07376485       3.90689921       9.67630807       0.02059726      -0.08774995      -0.55541094       0.00000000
Ge       7.13029168       7.91733235       9.70730595       0.43164927       0.92395523       0.53426886       0.00000000
Ge       7.18792537      12.45843070       9.57427931      -0.10242106       0.39291049      -0.00035820       0.00000000
Ge      11.48615733       4.23208256       9.51562569       0.07035528       0.14663598      -0.08453673      -0.00000000
Ge       9.15019725       8.89978610       1.58381516       0.22926985      -0.30806360      -0.95559584       0.00000000
Se      11.30076163       0.33943081       7.23746748       0.48014022      -0.31584585       0.30142110      -0.00000000
Se       3.02750131       4.40439316       7.21558060       0.03373687       0.44577113      -0.38117398      -0.00000000
Se       2.74962626       8.68853317       7.07788836       0.38763093      -0.15987075       0.48642040      -0.00000000
Se       6.90016252      -0.08615855       7.01091441       0.08457945       0.42922391       0.13759711      -0.00000000
Se       6.89348676       4.12515974       6.98155348       0.24081846       0.75156032       0.34993957      -0.00000000
Se       7.22250641       8.46392019       7.22570514      -0.10231460       0.27574868      -0.42854958      -0.00000000
Se      11.21315594       4.28460290       6.99873705      -0.41708567      -0.11048170       0.17107860      -0.00000000
Se       9.06233511       0.35364688       3.86174311      -0.15802114      -0.66061635       0.67061244      -0.00000000
Se       0.63784392       0.34666341       4.00510717      -0.29241715      -0.36538463      -0.30606280      -0.00000000
Se       0.89354590       4.16172320       3.78846965      -0.35863081       0.34316431       0.03108902      -0.00000000
Se       0.74494131       8.56449538       4.23939697       0.23025831      -0.00819173       0.16824254      -0.00000000
Se       5.04106554       0.06736143       3.92992854       0.59872439      -0.00296124       0.14673620      -0.00000000
Se       4.73547903       4.42190578       4.05767952       0.49000335       0.14653430      -0.29244804      -0.00000000
Se       4.57735310       8.65639644       4.08742517       0.97299434       0.07265341      -0.07215991      -0.00000000
Se       2.73282666       0.07877887       7.25492244       0.07387027      -0.19915307      -0.46486422      -0.00000000
Se      11.29242717       8.49318589       7.15101715      -1.19799124      -0.34610398      -0.07565833      -0.00000000
Se      11.20803521      10.44974445       1.48569874      -0.10318121       0.43749755       0.23897972      -0.00000000
Se       3.03480196       2.04197961       1.72106937       0.13131194       0.18107894       0.14301518      -0.00000000
Se      11.00430079       2.30294893       1.51292513      -0.04163343       0.34733969      -0.21084968      -0.00000000
Se       9.09700650       4.46994906       3.94308275      -0.30026882       0.42874544      -0.02620517      -0.00000000
Se       0.88043575       2.44790123       9.74274886       0.21299486      -0.02408546      -0.66605056      -0.00000000
Se       0.84063804       6.47205866       9.47861411      -0.09026797      -0.32490114       0.80419215      -0.00000000
Se       0.56786208      10.40099634       9.51685679       0.25461759       0.37692794       0.79185660      -0.00000000
Se       4.71368498       2.12591394       9.43340039       0.72818963      -0.30111412       0.22483580      -0.00000000
Se       5.08603096       6.57149043       9.25501450      -0.42988243      -0.80842815       0.20540672      -0.00000000
Se       5.00554765      10.53367610       9.49604189      -0.17454491      -0.25955577       0.45055743      -0.00000000
Se       8.89430848       2.10083353       9.50967843       0.08708603       0.21616133       0.04370098      -0.00000000
Se       9.01386251       6.30577232       9.50881629       0.20217897      -0.57065976      -0.55960819      -0.00000000
Se       9.05699974      10.80121428       9.51437457       0.47394787      -0.60215879      -0.32227971      -0.00000000
Se       2.83744294       6.58332111       1.62209770       0.27474283      -0.17634480       0.08477149      -0.00000000
Se       2.65684033      10.64169226       1.62281326       0.38526247       0.10469903       0.32019134      -0.00000000
Se       7.06842506       2.26545310       1.41936140      -0.39375139       0.50063984       0.29205947      -0.00000000
Se       6.88695558       6.39221856       1.52357470      -0.05538766       0.21504261       0.32757812      -0.00000000
Se       7.04511442      10.48628522       1.58470849       0.04775973       0.00532501      -0.39493933      -0.00000000
Se      11.35484770       6.36146325       1.49371165       0.23749257       0.21296540       0.02890013      -0.00000000
Se       9.40362966       8.51302575       3.99584767      -0.47604297      -0.43501946       0.61981429      -0.00000000
