72
Lattice="12.454592135321773 4.3880678711e-06 -2.6680276076e-06 4.4081168421e-06 12.51148728131143 2.5491990521e-06 -3.0490090981e-06 2.899962542e-06 11.056771943996367" Properties=species:S:1:pos:R:3:forces:R:3:magmoms:R:1 energy=-300.62783623 stress="0.0007727183220173475 -0.00047020275431546233 -0.0003439555744639661 -0.00047020275431546233 -0.005974612321593053 0.0009250894444208832 -0.0003439555744639661 0.0009250894444208832 -0.009295547679733064" dipole="_JSON [[0.0, 0.0, 0.0]]" magmom=0.001901 free_energy=-300.62783623 pbc="T T T"
Ge       1.10466626       0.14602825       1.35897640      -0.01054009       0.40840381       0.23972337      -0.00000000
Ge       3.16239461      10.69814305       4.17238681       0.08983850       0.15553925       0.08761192      -0.00000000
Ge       7.18106999       2.78941157       4.27214013      -0.31269234       0.00992483       0.41742093       0.00000000
Ge       7.36815157       6.50914610       4.08869946      -0.31807136      -0.36351018       0.35454428       0.00000000
Ge       7.37673291      10.81569727       3.87648808      -0.45760449       0.21239195       0.64095200       0.00000000
Ge      11.35678406       2.27530597       3.82361876       0.14815256       0.59004770      -0.01326864       0.00000000
Ge      11.37672172       6.85235163       4.17343542       0.00798944      -0.09011120       0.29345247      -0.00000000
Ge      11.09218075      11.11289510       4.35452574       0.16784132      -0.21778371       0.27242507      -0.00000000
Ge       1.04337892       1.96487605       6.74531806      -0.22088733      -0.44805734       0.64202749      -0.00000000
Ge       1.19319032       6.24684714       6.84370763      -0.00722499       0.22310092      -0.42638313      -0.00000000
Ge       0.68685656      10.25348346       7.13914216       0.43272129      -0.15967646       0.07410509      -0.00000000
Ge       4.90092109       1.74989122       6.88220370      -0.18451035      -0.32580236      -0.19219051       0.00000000
Ge       5.12211560       5.97614736       6.85229883      -0.78222912       0.82823257       0.10718552       0.00000000
Ge       5.24108696      10.35639953       7.06390132      -0.13955949      -0.31521205      -0.69763358       0.00000000
Ge       9.44045708       1.84888453       6.84536712       0.28829561       0.20040919       0.14955668       0.00000000
Ge       9.24412890       5.95213068       6.99379824      -0.45618453       0.48780139      -0.02815591       0.00000000
Ge       2.84260477       6.77121661       4.27436155       0.06192285       0.51373526      -0.46209045      -0.00000000
Ge       3.14408568       2.46663815       4.24163579      -0.28254619       0.18097163      -0.57695645       0.00000000
Ge       9.13385754      10.23149125       7.03784065       0.29228524       0.38604326       0.07778624       0.00000000
Ge      11.09624411       7.98435569       9.42258078       0.41679452       0.89488031       0.07004352      -0.00000000
Ge      11.33401818      12.54375778       9.87248977       0.11330135      -0.34747436      -0.66269557       0.00000000
Ge       1.15111172       4.63565210       1.37860105      -0.38576524      -0.12663058       0.00455483       0.00000000
Ge       0.80543436       8.89370550       1.48481887      -0.15581274       0.00080571       0.15188183      -0.00000000
Ge       5.16344164       0.51740827       1.39975714      -0.58114108      -0.26798161       0.10560023       0.00000000
Ge       4.97250470       4.84517992       1.41710239      -0.27566256      -0.03863836       0.11045037       0.00000000
Ge       8.98725369       0.63407470       1.47535684       0.64531117      -0.28017330      -0.14537812       0.00000000
Ge       9.51560528       4.60105151       1.43741782       0.27681480       0.03453160      -0.37870997       0.00000000
Ge       5.26349764       8.81033971       1.53155935      -0.07754225      -0.31922477      -0.19473949       0.00000000
Ge       3.03884785       4.02153081       9.54764483      -0.19423011      -0.13496473       0.47256961       0.00000000
Ge       3.17556790       8.43300780       9.76755741       0.07648402      -0.26203437      -0.62304711      -0.00000000
Ge       2.82570138      12.20944353       9.63854997      -0.51164384       0.09111084      -0.37860758       0.00000000
Ge       6.98109086       3.83977860       9.68306064       0.08524135      -0.17637524      -0.50534219       0.00000000
Ge       6.96175375       8.18181757       9.73709113       0.33762982      -0.34961091      -0.35051664       0.00000000
Ge       7.28205090      12.56942119       9.60968551       0.63433929      -0.18229398      -0.17674840       0.00000000
Ge      11.56373640       4.33150782       9.55370751      -0.01106807      -0.18894500       0.14830214       0.00000000
Ge       9.13392143       8.85739319       1.38352288       0.27823327      -0.05706672      -0.09088482       0.00000000
Se      11.37234130       0.08101548       7.11406213       0.02450083       0.76097932       0.44285243      -0.00000000
Se       2.91898050       4.34871019       7.08725088       0.40506860      -0.03084295      -0.37915475      -0.00000000
Se       2.93183391       8.22286703       7.13661938      -0.56586709       0.70509795       0.44989426      -0.00000000
Se       6.76494894      -0.06240517       7.05936239       0.51325597       0.39182531       0.13240592      -0.00000000
Se       6.94837987       4.41778273       7.08592007       0.92554671      -1.02168767       0.57976327      -0.00000000
Se       7.19330034       8.53788349       7.19353598      -0.41892421       0.08438856       0.26962212      -0.00000000
Se      11.15875623       4.39054952       7.07606775      -0.03973299      -0.88294038      -0.24025267      -0.00000000
Se       9.16261637       0.28253117       4.01720815      -0.41515057      -0.08273456      -0.08803868      -0.00000000
Se       0.49158216       0.32708862       3.90220133       0.52376294      -0.38753297      -0.22741535      -0.00000000
Se       0.94575111       4.06892442       3.83239581       0.03999862       0.05203749       0.29988212      -0.00000000
Se       0.82607031       8.62531350       4.05140282       0.22007214      -0.41348804      -0.03827801      -0.00000000
Se       5.06916178      -0.06754922       3.89128784       0.24185528       0.18642268       0.09558236      -0.00000000
Se       4.88751198       4.39112376       3.99134725       0.25244241      -0.30271272      -0.15132973      -0.00000000
Se       4.85436934       8.75727165       3.99588362      -0.09825121      -0.57113513       0.26933432      -0.00000000
Se       2.72078396      -0.04322772       7.01128142       0.37504382       0.65129239       0.35458994      -0.00000000
Se      11.15504524       8.62372079       6.87677258      -0.29141859      -0.54820472       0.48678702      -0.00000000
Se      11.10020201      10.42982500       1.93088262       0.05201815       0.26282205      -0.81957032      -0.00000000
Se       2.89673179       2.05116639       1.64177143       0.40865428      -0.06764705       0.19887657      -0.00000000
Se      11.00758380       2.37121303       1.30449904      -0.22216881       0.08112939       0.33105605      -0.00000000
Se       9.11938402       4.45616076       3.91737751      -0.26359418       0.08945987       0.34265416      -0.00000000
Se       0.91813560       2.45698486       9.40490359       0.06990804      -0.26010064      -0.43356495      -0.00000000
Se       0.67244405       6.38735356       9.25336732       0.18333583      -0.05458498       0.75246656      -0.00000000
Se       0.65403553      10.49212827       9.70626694       0.35841349       0.27930051      -0.25126804      -0.00000000
Se       4.87656228       2.13979505       9.37315008       0.21547539       0.23560611       0.37269447      -0.00000000
Se       5.00731156       6.43754602       9.51086174       0.20175567       0.20169630      -0.03746462      -0.00000000
Se       4.78055698      10.58723147       9.48077116       0.17890151      -0.42521524       0.71571901      -0.00000000
Se       9.09983396       2.03226816       9.36000420      -0.67097564       0.27513251       0.03004027      -0.00000000
Se       9.14794767       6.46356013       9.51909657      -0.81259373      -0.52612290      -0.03260161      -0.00000000
Se       9.43388865      10.78735404       9.58066608      -0.82282982      -0.09815946      -0.12221833      -0.00000000
Se       2.87443474       6.47614317       1.67153677       0.26408648       0.11446332       0.13253481      -0.00000000
Se       2.73806075      10.70671849       1.65317006       0.00320957      -0.20678477      -0.21672195      -0.00000000
Se       7.04483151       2.15791913       1.83426707      -0.23425564       0.86384275      -0.63535975      -0.00000000
Se       6.85178973       6.56339446       1.63421541      -0.04774391       0.20497887      -0.30097628      -0.00000000
Se       7.13620252      10.63649437       1.41129646       0.16309967      -0.23930522      -0.17940556      -0.00000000
Se      11.50918032       6.38479938       1.71636692      -0.29248508      -0.35758608      -0.60191634      -0.00000000
Se       9.03639201       8.31996824       3.90616155       0.58730585       0.46994712      -0.01806377      -0.00000000
72
Lattice="12.454726641558581 4.3881152611e-06 -2.6680564216e-06 4.4069905647e-06 12.508290586222536 2.5485477297e-06 -3.0473380443e-06 2.8983731754e-06 11.05071211943369" Properties=species:S:1:pos:R:3:forces:R:3:magmoms:R:1 energy=-300.21633806 stress="-0.0026756433868442577 -0.0010878945101131761 -0.0018280569582506793 -0.0010878945101131761 -0.0044643539027729145 -0.000143746942134883 -0.0018280569582506793 -0.000143746942134883 -0.006805021530370343" dipole="_JSON [[0.0, 0.0, 0.0]]" magmom=0.0018276 free_energy=-300.21633806 pbc="T T T"
Ge       0.98205540       0.37023424       1.30765709       0.34018879      -0.56636011       0.38042126       0.00000000
Ge       3.32104790      10.67556501       4.20759287      -0.02371603      -0.15301637      -0.00846447       0.00000000
Ge       6.86504363       2.74496751       4.08986782       0.29518579      -0.23068582      -0.06759660      -0.00000000
Ge       7.43158264       6.36401850       3.98744524      -0.19417898       0.63745902      -0.02308709      -0.00000000
Ge       7.04635924      11.04515677       3.99002213       0.54334424      -0.73660849       0.40694181      -0.00000000
Ge      11.61340417       2.56514998       3.80399176      -0.21140854      -0.59038330       0.80036451       0.00000000
Ge      11.12527545       6.84133700       4.19722126       0.04426157       0.21039739      -0.12834507       0.00000000
Ge      11.13542184      11.08308481       4.36111543      -0.17488202       0.15432529      -0.48542878       0.00000000
Ge       0.94661532       1.69354447       6.68570085       0.46951453       0.10557047      -0.16975848       0.00000000
Ge       1.18979338       6.24173258       6.80026663       0.08808366       0.14247419       0.35736144       0.00000000
Ge       1.02151698       9.96961937       7.25492388      -1.37129828       1.06605553      -0.71335588       0.00000000
Ge       4.99709643       1.81257252       7.05428842       0.15391314      -0.03633853       0.25356001      -0.00000000
Ge       4.88741892       6.00695570       6.89258914       0.47957357      -0.28250005      -0.03652429      -0.00000000
Ge       5.24011577      10.32251667       7.07080938      -0.28287129       0.64769525       0.00053793      -0.00000000
Ge       9.60255784       2.29429294       6.85760661      -1.25570966      -1.24544558       0.09839530       0.00000000
Ge       9.08724878       6.17998795       6.95160525      -0.06578110      -0.49820178       0.01404312       0.00000000
Ge       2.82386724       7.13507591       3.98712237      -0.01618704      -0.91470719       0.68857026       0.00000000
Ge       2.91364857       2.50157812       4.05024746       0.26868257       0.11369130       0.57897924       0.00000000
Ge       9.18282098      10.47869953       7.01678364       0.05961453      -0.57605764       0.14824556      -0.00000000
Ge      11.30299893       8.13383138       9.70176330      -0.13083604      -0.40854308      -0.35850273       0.00000000
Ge      11.21949212      12.09398430       9.70712691       0.21533177       0.42976436       0.36793211       0.00000000
Ge       1.02956617       4.36479869       1.48761337       0.19891039       0.76431786      -0.22220555       0.00000000
Ge       0.81173197       8.91386006       1.56674509       0.21983916       0.47641308       0.02240620       0.00000000
Ge       5.14496924       0.47929586       1.33536730       0.10163354      -0.05067084      -0.05034846      -0.00000000
Ge       4.83704409       4.81558121       1.49816065       0.26530376      -0.05795689      -0.01475007       0.00000000
Ge       9.33871048       0.63167901       1.43560181      -0.55773055      -0.08973852       0.50260319       0.00000000
Ge       9.55279387       4.60784344       1.30512014      -0.44501070      -0.18480512       0.37047105       0.00000000
Ge       5.49609036       8.53942611       1.24399568      -0.09062317       0.32688099       0.48531964      -0.00000000
Ge       2.85095001       3.73964260       9.59112980       0.28327054       0.81744891      -0.10853897       0.00000000
Ge       3.30073475       8.23607786      10.03611969       0.04830386       0.03801290      -0.45111068       0.00000000
Ge       2.74576154      12.28596183       9.56808595       0.52185007      -0.29338058       0.00945126       0.00000000
Ge       6.85950336       3.98908918       9.76552337       0.05966007      -0.17896994      -0.60546579       0.00000000
Ge       7.27058025       8.10663896       9.61204129      -0.51356460       0.12130707       0.05752423      -0.00000000
Ge       7.45912076      12.64566161       9.68510104      -0.67797285      -0.03715175       0.01368221      -0.00000000
Ge      11.54925445       4.27114272       9.53899018       0.10003853      -0.13137353      -0.28439725       0.00000000
Ge       9.47728883       8.89864884       1.40310203      -0.54872028      -0.17967665      -0.06333722       0.00000000
Se      11.38322530       0.28039437       7.22705233      -0.52866616      -0.39803959      -0.34417647      -0.00000000
Se       2.94671488       4.25615908       6.97587879       0.06403327       0.34521134       0.52803864      -0.00000000
Se       2.75381631       8.40030199       7.30270141       1.02405954      -1.35897213       0.13231380      -0.00000000
Se       6.88981279      -0.01326187       7.17465970      -0.17337990      -0.08024956       0.08214001      -0.00000000
Se       7.02008085       4.18518994       7.05595671      -0.47426176       0.64423359       0.39824340      -0.00000000
Se       7.14608924       8.73693132       7.13622970       0.61707334      -0.62810752      -0.12368457      -0.00000000
Se      10.97197747       4.21401278       7.00318349       1.05888383       1.46323280       0.35969669      -0.00000000
Se       8.95760066       0.24148069       4.08737196       0.56436815       0.19998142      -0.69574792      -0.00000000
Se       0.68202045       0.18527610       3.87176361      -0.15792838       0.56928387      -0.02501204      -0.00000000
Se       1.03605832       4.30893574       3.97703393      -0.17469663      -0.10044196      -0.01373907      -0.00000000
Se       0.70857737       8.60127316       4.09333230      -0.29609067       0.28077716      -0.08688567      -0.00000000
Se       5.09131031       0.06225882       3.89824420      -0.45226437       0.53709791      -0.00135325      -0.00000000
Se       4.91552525       4.41958521       4.03983401      -0.33979857       0.06728790      -0.28912108      -0.00000000
Se       4.92281892       8.45332629       3.85235547       0.10798417       0.67473770      -0.29393369      -0.00000000
Se       2.99095332       0.02392216       7.03925651      -0.57780547       0.07433583       0.03165549      -0.00000000
Se      11.14060165       8.38384014       7.16688617      -0.16226545       0.44818447       0.12732602      -0.00000000
Se      11.17958425      10.72962580       1.64749502       0.17483237       0.15834252       0.39389034      -0.00000000
Se       2.91424560       2.08503251       1.59233601       0.01178789       0.33106682      -0.49976327      -0.00000000
Se      11.20413062       2.42902802       1.34069887       0.02057436      -0.11021052      -0.16774094      -0.00000000
Se       8.97860245       4.36082953       3.98721800       0.26807511      -0.10746717      -0.56596674      -0.00000000
Se       0.90687695       2.26033384       9.15178429      -0.46066970      -0.04430056       0.60635978      -0.00000000
Se       0.71776356       6.30386333       9.40669399      -0.10449449      -0.10458481      -0.15030857      -0.00000000
Se       0.82616522      10.45309662       9.71870630      -0.33730431      -0.06824210       0.13440237      -0.00000000
Se       4.84106693       2.14620352       9.64932315       0.20228970      -0.12518660      -0.54050572      -0.00000000
Se       5.10484874       6.44666906       9.44304507       0.04048394       0.10028348      -0.01300700      -0.00000000
Se       4.68552156      10.38692373       9.57349604       0.13075446       0.43914403      -0.00731384      -0.00000000
Se       8.79286761       2.25334211       9.42123970       0.73486553      -0.01294137      -0.01700249      -0.00000000
Se       9.02884680       6.30578247       9.47032734       0.39297253       0.01189777       0.06511974      -0.00000000
Se       9.07907010      10.62095366       9.59474550       0.47598929      -0.04240621      -0.41318775      -0.00000000
Se       2.74857054       6.45502245       1.58639068      -0.01321870      -0.22526716      -0.45080899      -0.00000000
Se       2.79293978      10.71431310       1.73466717      -0.47875380      -0.15663474      -0.42828709      -0.00000000
Se       6.89541633       2.36654736       1.51718177       0.32218626      -0.22029862       0.15161454      -0.00000000
Se       6.99607807       6.45430534       1.43036285      -0.04444182      -0.29729664       0.34441090      -0.00000000
Se       7.22576471      10.45841084       1.52946694      -0.12954065       0.07881056      -0.30485780      -0.00000000
Se      11.25765127       6.39263550       1.63546051       0.45600543      -0.11018715       0.01807120      -0.00000000
Se       9.21377931       8.63287224       3.89646991       0.04234870      -0.84231661       0.29352810      -0.00000000
72
Lattice="12.454262695970334 4.3879518013e-06 -2.667957035e-06 4.4106365052e-06 12.518638800643465 2.5506561648e-06 -3.0518465846e-06 2.9026613219e-06 11.067061661041357" Properties=species:S:1:pos:R:3:forces:R:3:magmoms:R:1 energy=-300.68043797 stress="-0.0019126225225218317 -0.0015103211896774172 0.0008196618605907947 -0.0015103211896774172 -0.004365830851100134 -0.0006951478042688464 0.0008196618605907947 -0.0006951478042688464 -0.008205686594924504" dipole="_JSON [[0.0, 0.0, 0.0]]" magmom=0.0017345 free_energy=-300.68043797 pbc="T T T"
Ge       1.09944186       0.40877129       1.44174067      -0.01416490      -0.10558805      -0.29598579       0.00000000
Ge       3.10548485      10.81133241       4.10846466       0.05487470      -0.27177703      -0.15539102       0.00000000
Ge       6.94451341       2.65662949       3.92062112      -0.31056716       0.05165782       0.85854838      -0.00000000
Ge       7.45934000       6.74544334       4.23309454       0.01932976      -0.20100335      -0.44035136       0.00000000
Ge       7.17957170      10.83844948       4.27838127      -0.18779743      -0.03048974      -0.25225620       0.00000000
Ge      11.69014670       2.38664625       4.23756365      -0.32034938       0.37377192       0.10526297       0.00000000
Ge      11.33654645       6.43506154       4.03879651      -0.01106613       0.22164454      -0.02068167       0.00000000
Ge      11.23939614      10.93225831       3.84156463      -0.33258648       0.20147939      -0.02553952       0.00000000
Ge       1.05204847       1.96378545       7.33304282      -0.11143056       0.11307022      -1.18678431       0.00000000
Ge       1.06099858       6.50956345       6.98329850      -0.32627972      -1.17902811       0.49387090       0.00000000
Ge       0.39172270      10.24534032       6.64772475       0.60436654      -0.03691478       0.21004266       0.00000000
Ge       5.07479365       2.00505243       6.83229225      -0.28600364      -0.36914216       0.39774536      -0.00000000
Ge       5.13477659       6.20602932       6.93261571      -0.34553212      -0.10937703       0.40617081      -0.00000000
Ge       5.25733114      10.53214832       6.99225529      -0.09810542      -0.18061269       0.67147397       0.00000000
Ge       9.33516219       2.22137437       7.05731774       0.22044218       0.09626825      -0.05457192       0.00000000
Ge       9.12132952       6.00938818       6.99967534      -0.26315494      -0.05993039       0.10970654       0.00000000
Ge       2.85601109       6.74837828       3.95774969       0.21686548       0.24957568       0.24584031       0.00000000
Ge       2.99612357       2.48999744       4.09594547       0.39011142       0.39568416       0.63099459       0.00000000
Ge       9.21178745      10.20982575       6.85246066       0.33127912       0.28417008       0.20535127       0.00000000
Ge      11.14402048       7.98317406       9.86217012       0.15017730       0.23494715      -0.22094651       0.00000000
Ge      11.25656989      12.19738551       9.55675132       0.32835757       0.72979079       0.11001218       0.00000000
Ge       0.95952647       4.48891850       1.45934980       0.14509784       0.21549643      -0.15314550       0.00000000
Ge       0.80551740       8.88069924       1.28939500      -0.08531162       0.14791705      -0.00062060       0.00000000
Ge       5.19337852       0.29459430       1.39094925       0.05859440       0.17853705      -0.02725871      -0.00000000
Ge       4.99639139       4.81891074       1.45004187       0.25716210      -0.15838359      -0.14932018      -0.00000000
Ge       9.24349485       0.58415005       1.33837282      -0.37142712      -0.08676022       0.59202325       0.00000000
Ge       9.35421766       4.42891323       1.47983890      -0.43743364      -0.26519387      -0.06119312       0.00000000
Ge       5.18901397       8.57666702       1.56730886       0.08367731      -0.02893195      -0.07588858      -0.00000000
Ge       3.27487837       3.98916904       9.69549205      -0.28286443       0.00204142      -0.28335714      -0.00000000
Ge       2.85619316       8.57269400       9.52256543       0.49824013      -0.21891654       0.20288725       0.00000000
Ge       3.02131229      12.28003284       9.59954805      -0.49540282       0.36564555       0.09680962      -0.00000000
Ge       6.91961214       4.09706152       9.67941009      -0.01911138      -0.29498412       0.04644780      -0.00000000
Ge       7.33019097       8.23392685       9.62016026      -0.23370257      -0.31097480       0.72769621       0.00000000
Ge       7.39363645      12.46146214       9.63882631      -0.44612214       0.53104709      -0.04663398      -0.00000000
Ge      11.41448621       4.14584530       9.74061173       0.15149183       0.13527741      -0.71579566       0.00000000
Ge       9.37017480       8.77551895       1.53451315      -0.51189585      -0.21758549      -0.03508172       0.00000000
Se      11.29645616       0.40073688       7.07081757       0.03500397      -0.21985598       0.14657555      -0.00000000
Se       3.07117747       4.49291565       7.14422195      -0.06185034       0.12664752       0.28319587      -0.00000000
Se       2.69938268       8.26743382       7.03357186       0.40115389       1.15942636      -0.10000006      -0.00000000
Se       6.84240834      -0.01823808       7.09965113       0.32767698       0.42692995       0.08558442      -0.00000000
Se       6.89325786       4.30607528       7.13745873       0.52700338       0.05997355      -0.06188107      -0.00000000
Se       7.22956620       8.72097103       7.20504202      -0.49301033      -0.39754415      -0.64306942      -0.00000000
Se      11.01839792       4.37973599       7.05468047       0.08187852      -0.74002421       0.55346842      -0.00000000
Se       9.05141875      -0.00952616       3.99365065       0.50935623       0.32593216      -0.55867405      -0.00000000
Se       0.64593544       0.31540735       3.93315496       0.22034368      -0.25237039       0.18286092      -0.00000000
Se       1.11347753       4.35137279       3.96054057      -0.49575653      -0.59686428       0.23930084      -0.00000000
Se       0.67863488       8.26745502       3.79423400       0.28093536       0.32159840       0.07736418      -0.00000000
Se       5.04255285      -0.00783478       3.90430441       0.21193708      -0.05615767       0.27754875      -0.00000000
Se       4.90055391       4.45774912       3.95066825       0.03802337      -0.55320471       0.05121429      -0.00000000
Se       4.74774969       8.73992180       4.06401564      -0.39375833      -0.51068945      -0.04742314      -0.00000000
Se       2.92699843       0.17670219       7.12411720       0.19956398       0.24703687      -0.20406988      -0.00000000
Se      11.19126260       8.41054941       7.22794996      -0.46705969       0.03330461       0.14931359      -0.00000000
Se      11.12080269      10.60817373       1.25192292       0.42362228       0.16499825       0.68290923      -0.00000000
Se       3.10167436       2.04446186       1.68736818       0.01395204       0.10557647      -0.80896531      -0.00000000
Se      10.99400053       2.39063341       1.73263898       0.17863610       0.01807634      -0.08294988      -0.00000000
Se       8.78334057       4.40901195       3.99507599       0.36659410       0.41237733       0.04709472      -0.00000000
Se       0.86637286       2.35348270       9.69142339       0.29013390       0.20671812       0.70466396      -0.00000000
Se       0.58215199       6.31286580       9.66991362       0.30561861      -0.19139877      -0.62156165      -0.00000000
Se       0.86712166      10.62804929       9.17221137      -0.13397164      -0.15408135       0.08854453      -0.00000000
Se       5.06517073       2.13631027       9.45891653      -0.26240420       0.37797253      -0.21862922      -0.00000000
Se       5.20676083       6.61876291       9.53104559      -0.24589679       0.13253389      -0.34590629      -0.00000000
Se       4.77948690      10.53395794       9.67450032       0.26929688      -0.60655494      -0.74410423      -0.00000000
Se       8.86541431       2.17993353       9.57295663       0.22009252      -0.02480953      -0.13151535      -0.00000000
Se       9.21577618       6.31477006       9.55514544      -0.63582129       0.14196091      -0.23662715      -0.00000000
Se       9.17848986      10.74878433       9.44359287       0.31112425      -0.68076025      -0.36663464      -0.00000000
Se       2.90278589       6.31241260       1.47143984      -0.30281651       0.39034755      -0.23107395      -0.00000000
Se       2.59097016      10.75614211       1.52829094       0.05460115      -0.18178510       0.23221705      -0.00000000
Se       7.03942459       2.20191634       1.52960539      -0.07912836      -0.27643636      -0.66658073      -0.00000000
Se       6.93708432       6.59685817       1.60102446      -0.16693267      -0.00556510       0.48764262      -0.00000000
Se       7.10397188      10.26102685       1.79068514       0.42809183       0.48303091      -0.20422166      -0.00000000
Se      11.18562786       6.15231618       1.50239719       0.48946416       0.23198645       0.25106397      -0.00000000
Se       9.55471178       8.44111713       4.08772018      -0.46545582      -0.32075399      -0.17675581      -0.00000000
72
Lattice="12.455014262200573 4.3882165971e-06 -2.6681180358e-06 4.411657494e-06 12.521536656952636 2.5512465992e-06 -3.0527549073e-06 2.9035252426e-06 11.070355556627723" Properties=species:S:1:pos:R:3:forces:R:3:magmoms:R:1 energy=-300.94150195 stress="-0.0009537082180346842 -0.0006070206164376457 -0.0015628881095204657 -0.0006070206164376457 -0.006754928726020267 0.0009699101458764714 -0.0015628881095204657 0.0009699101458764714 -0.009613664767064862" dipole="_JSON [[0.0, 0.0, 0.0]]" magmom=0.0016384 free_energy=-300.94150195 pbc="T T T"
Ge       0.99257959       0.35901113       1.27718974       0.33431907       0.08805635       0.50197531       0.00000000
Ge       3.08094120      10.61080030       4.16559842       0.05243519       0.03360266      -0.11304322       0.00000000
Ge       6.65298203       2.66992242       3.95579058       0.89296427      -0.23239509      -0.07075653       0.00000000
Ge       7.46746402       6.54322728       4.06240550       0.07202380       0.29405104       0.83334554       0.00000000
Ge       7.19249566      11.00205124       4.15284324       0.17362742      -0.18925016      -0.04884454       0.00000000
Ge      11.63148975       2.47921442       4.35807712      -0.27458716      -0.69889850      -0.48340726       0.00000000
Ge      11.22619744       6.59763191       4.05341123       0.14425470       0.10838132       0.02693999       0.00000000
Ge      11.22034310      11.07967743       3.87691975       0.12675172      -0.09324205       0.47449409       0.00000000
Ge       1.09350141       1.90093501       6.98487580      -0.39404063       0.08827146       0.34097796       0.00000000
Ge       0.97239355       6.20074523       7.06669420       0.33995943       0.15480320      -0.39661937       0.00000000
Ge       0.68436656      10.09445526       6.75872903      -0.03753016      -0.32334753      -0.10355235       0.00000000