72
Lattice="12.454592135321773 4.3880678711e-06 -2.6680276076e-06 4.4081168421e-06 12.51148728131143 2.5491990521e-06 -3.0490090981e-06 2.899962542e-06 11.056771943996367" Properties=species:S:1:pos:R:3:forces:R:3:magmoms:R:1 energy=-300.62783623 stress="0.0007727183220173475 -0.00047020275431546233 -0.0003439555744639661 -0.00047020275431546233 -0.005974612321593053 0.0009250894444208832 -0.0003439555744639661 0.0009250894444208832 -0.009295547679733064" dipole="_JSON [[0.0, 0.0, 0.0]]" magmom=0.001901 free_energy=-300.62783623 pbc="T T T"
Ge       1.10466626       0.14602825       1.35897640      -0.01054009       0.40840381       0.23972337      -0.00000000
Ge       3.16239461      10.69814305       4.17238681       0.08983850       0.15553925       0.08761192      -0.00000000
Ge       7.18106999       2.78941157       4.27214013      -0.31269234       0.00992483       0.41742093       0.00000000
Ge       7.36815157       6.50914610       4.08869946      -0.31807136      -0.36351018       0.35454428       0.00000000
Ge       7.37673291      10.81569727       3.87648808      -0.45760449       0.21239195       0.64095200       0.00000000
Ge      11.35678406       2.27530597       3.82361876       0.14815256       0.59004770      -0.01326864       0.00000000
Ge      11.37672172       6.85235163       4.17343542       0.00798944      -0.09011120       0.29345247      -0.00000000
Ge      11.09218075      11.11289510       4.35452574       0.16784132      -0.21778371       0.27242507      -0.00000000
Ge       1.04337892       1.96487605       6.74531806      -0.22088733      -0.44805734       0.64202749      -0.00000000
Ge       1.19319032       6.24684714       6.84370763      -0.00722499       0.22310092      -0.42638313      -0.00000000
Ge       0.68685656      10.25348346       7.13914216       0.43272129      -0.15967646       0.07410509      -0.00000000
Ge       4.90092109       1.74989122       6.88220370      -0.18451035      -0.32580236      -0.19219051       0.00000000
Ge       5.12211560       5.97614736       6.85229883      -0.78222912       0.82823257       0.10718552       0.00000000
Ge       5.24108696      10.35639953       7.06390132      -0.13955949      -0.31521205      -0.69763358       0.00000000
Ge       9.44045708       1.84888453       6.84536712       0.28829561       0.20040919       0.14955668       0.00000000
Ge       9.24412890       5.95213068       6.99379824      -0.45618453       0.48780139      -0.02815591       0.00000000
Ge       2.84260477       6.77121661       4.27436155       0.06192285       0.51373526      -0.46209045      -0.00000000
Ge       3.14408568       2.46663815       4.24163579      -0.28254619       0.18097163      -0.57695645       0.00000000
Ge       9.13385754      10.23149125       7.03784065       0.29228524       0.38604326       0.07778624       0.00000000
Ge      11.09624411       7.98435569       9.42258078       0.41679452       0.89488031       0.07004352      -0.00000000
Ge      11.33401818      12.54375778       9.87248977       0.11330135      -0.34747436      -0.66269557       0.00000000
Ge       1.15111172       4.63565210       1.37860105      -0.38576524      -0.12663058       0.00455483       0.00000000
Ge       0.80543436       8.89370550       1.48481887      -0.15581274       0.00080571       0.15188183      -0.00000000
Ge       5.16344164       0.51740827       1.39975714      -0.58114108      -0.26798161       0.10560023       0.00000000
Ge       4.97250470       4.84517992       1.41710239      -0.27566256      -0.03863836       0.11045037       0.00000000
Ge       8.98725369       0.63407470       1.47535684       0.64531117      -0.28017330      -0.14537812       0.00000000
Ge       9.51560528       4.60105151       1.43741782       0.27681480       0.03453160      -0.37870997       0.00000000
Ge       5.26349764       8.81033971       1.53155935      -0.07754225      -0.31922477      -0.19473949       0.00000000
Ge       3.03884785       4.02153081       9.54764483      -0.19423011      -0.13496473       0.47256961       0.00000000
Ge       3.17556790       8.43300780       9.76755741       0.07648402      -0.26203437      -0.62304711      -0.00000000
Ge       2.82570138      12.20944353       9.63854997      -0.51164384       0.09111084      -0.37860758       0.00000000
Ge       6.98109086       3.83977860       9.68306064       0.08524135      -0.17637524      -0.50534219       0.00000000
Ge       6.96175375       8.18181757       9.73709113       0.33762982      -0.34961091      -0.35051664       0.00000000
Ge       7.28205090      12.56942119       9.60968551       0.63433929      -0.18229398      -0.17674840       0.00000000
Ge      11.56373640       4.33150782       9.55370751      -0.01106807      -0.18894500       0.14830214       0.00000000
Ge       9.13392143       8.85739319       1.38352288       0.27823327      -0.05706672      -0.09088482       0.00000000
Se      11.37234130       0.08101548       7.11406213       0.02450083       0.76097932       0.44285243      -0.00000000
Se       2.91898050       4.34871019       7.08725088       0.40506860      -0.03084295      -0.37915475      -0.00000000
Se       2.93183391       8.22286703       7.13661938      -0.56586709       0.70509795       0.44989426      -0.00000000
Se       6.76494894      -0.06240517       7.05936239       0.51325597       0.39182531       0.13240592      -0.00000000
Se       6.94837987       4.41778273       7.08592007       0.92554671      -1.02168767       0.57976327      -0.00000000
Se       7.19330034       8.53788349       7.19353598      -0.41892421       0.08438856       0.26962212      -0.00000000
Se      11.15875623       4.39054952       7.07606775      -0.03973299      -0.88294038      -0.24025267      -0.00000000
Se       9.16261637       0.28253117       4.01720815      -0.41515057      -0.08273456      -0.08803868      -0.00000000
Se       0.49158216       0.32708862       3.90220133       0.52376294      -0.38753297      -0.22741535      -0.00000000
Se       0.94575111       4.06892442       3.83239581       0.03999862       0.05203749       0.29988212      -0.00000000
Se       0.82607031       8.62531350       4.05140282       0.22007214      -0.41348804      -0.03827801      -0.00000000
Se       5.06916178      -0.06754922       3.89128784       0.24185528       0.18642268       0.09558236      -0.00000000
Se       4.88751198       4.39112376       3.99134725       0.25244241      -0.30271272      -0.15132973      -0.00000000
Se       4.85436934       8.75727165       3.99588362      -0.09825121      -0.57113513       0.26933432      -0.00000000
Se       2.72078396      -0.04322772       7.01128142       0.37504382       0.65129239       0.35458994      -0.00000000
Se      11.15504524       8.62372079       6.87677258      -0.29141859      -0.54820472       0.48678702      -0.00000000
Se      11.10020201      10.42982500       1.93088262       0.05201815       0.26282205      -0.81957032      -0.00000000
Se       2.89673179       2.05116639       1.64177143       0.40865428      -0.06764705       0.19887657      -0.00000000
Se      11.00758380       2.37121303       1.30449904      -0.22216881       0.08112939       0.33105605      -0.00000000
Se       9.11938402       4.45616076       3.91737751      -0.26359418       0.08945987       0.34265416      -0.00000000
Se       0.91813560       2.45698486       9.40490359       0.06990804      -0.26010064      -0.43356495      -0.00000000
Se       0.67244405       6.38735356       9.25336732       0.18333583      -0.05458498       0.75246656      -0.00000000
Se       0.65403553      10.49212827       9.70626694       0.35841349       0.27930051      -0.25126804      -0.00000000
Se       4.87656228       2.13979505       9.37315008       0.21547539       0.23560611       0.37269447      -0.00000000
Se       5.00731156       6.43754602       9.51086174       0.20175567       0.20169630      -0.03746462      -0.00000000
Se       4.78055698      10.58723147       9.48077116       0.17890151      -0.42521524       0.71571901      -0.00000000
Se       9.09983396       2.03226816       9.36000420      -0.67097564       0.27513251       0.03004027      -0.00000000
Se       9.14794767       6.46356013       9.51909657      -0.81259373      -0.52612290      -0.03260161      -0.00000000
Se       9.43388865      10.78735404       9.58066608      -0.82282982      -0.09815946      -0.12221833      -0.00000000
Se       2.87443474       6.47614317       1.67153677       0.26408648       0.11446332       0.13253481      -0.00000000
Se       2.73806075      10.70671849       1.65317006       0.00320957      -0.20678477      -0.21672195      -0.00000000
Se       7.04483151       2.15791913       1.83426707      -0.23425564       0.86384275      -0.63535975      -0.00000000
Se       6.85178973       6.56339446       1.63421541      -0.04774391       0.20497887      -0.30097628      -0.00000000
Se       7.13620252      10.63649437       1.41129646       0.16309967      -0.23930522      -0.17940556      -0.00000000
Se      11.50918032       6.38479938       1.71636692      -0.29248508      -0.35758608      -0.60191634      -0.00000000
Se       9.03639201       8.31996824       3.90616155       0.58730585       0.46994712      -0.01806377      -0.00000000
