72
Lattice="12.454262695970334 4.3879518013e-06 -2.667957035e-06 4.4106365052e-06 12.518638800643465 2.5506561648e-06 -3.0518465846e-06 2.9026613219e-06 11.067061661041357" Properties=species:S:1:pos:R:3:forces:R:3:magmoms:R:1 energy=-300.68043797 stress="-0.0019126225225218317 -0.0015103211896774172 0.0008196618605907947 -0.0015103211896774172 -0.004365830851100134 -0.0006951478042688464 0.0008196618605907947 -0.0006951478042688464 -0.008205686594924504" dipole="_JSON [[0.0, 0.0, 0.0]]" magmom=0.0017345 free_energy=-300.68043797 pbc="T T T"
Ge       1.09944186       0.40877129       1.44174067      -0.01416490      -0.10558805      -0.29598579       0.00000000
Ge       3.10548485      10.81133241       4.10846466       0.05487470      -0.27177703      -0.15539102       0.00000000
Ge       6.94451341       2.65662949       3.92062112      -0.31056716       0.05165782       0.85854838      -0.00000000
Ge       7.45934000       6.74544334       4.23309454       0.01932976      -0.20100335      -0.44035136       0.00000000
Ge       7.17957170      10.83844948       4.27838127      -0.18779743      -0.03048974      -0.25225620       0.00000000
Ge      11.69014670       2.38664625       4.23756365      -0.32034938       0.37377192       0.10526297       0.00000000
Ge      11.33654645       6.43506154       4.03879651      -0.01106613       0.22164454      -0.02068167       0.00000000
Ge      11.23939614      10.93225831       3.84156463      -0.33258648       0.20147939      -0.02553952       0.00000000
Ge       1.05204847       1.96378545       7.33304282      -0.11143056       0.11307022      -1.18678431       0.00000000
Ge       1.06099858       6.50956345       6.98329850      -0.32627972      -1.17902811       0.49387090       0.00000000
Ge       0.39172270      10.24534032       6.64772475       0.60436654      -0.03691478       0.21004266       0.00000000
Ge       5.07479365       2.00505243       6.83229225      -0.28600364      -0.36914216       0.39774536      -0.00000000
Ge       5.13477659       6.20602932       6.93261571      -0.34553212      -0.10937703       0.40617081      -0.00000000
Ge       5.25733114      10.53214832       6.99225529      -0.09810542      -0.18061269       0.67147397       0.00000000
Ge       9.33516219       2.22137437       7.05731774       0.22044218       0.09626825      -0.05457192       0.00000000
Ge       9.12132952       6.00938818       6.99967534      -0.26315494      -0.05993039       0.10970654       0.00000000
Ge       2.85601109       6.74837828       3.95774969       0.21686548       0.24957568       0.24584031       0.00000000
Ge       2.99612357       2.48999744       4.09594547       0.39011142       0.39568416       0.63099459       0.00000000
Ge       9.21178745      10.20982575       6.85246066       0.33127912       0.28417008       0.20535127       0.00000000
Ge      11.14402048       7.98317406       9.86217012       0.15017730       0.23494715      -0.22094651       0.00000000
Ge      11.25656989      12.19738551       9.55675132       0.32835757       0.72979079       0.11001218       0.00000000
Ge       0.95952647       4.48891850       1.45934980       0.14509784       0.21549643      -0.15314550       0.00000000
Ge       0.80551740       8.88069924       1.28939500      -0.08531162       0.14791705      -0.00062060       0.00000000
Ge       5.19337852       0.29459430       1.39094925       0.05859440       0.17853705      -0.02725871      -0.00000000
Ge       4.99639139       4.81891074       1.45004187       0.25716210      -0.15838359      -0.14932018      -0.00000000
Ge       9.24349485       0.58415005       1.33837282      -0.37142712      -0.08676022       0.59202325       0.00000000
Ge       9.35421766       4.42891323       1.47983890      -0.43743364      -0.26519387      -0.06119312       0.00000000
Ge       5.18901397       8.57666702       1.56730886       0.08367731      -0.02893195      -0.07588858      -0.00000000
Ge       3.27487837       3.98916904       9.69549205      -0.28286443       0.00204142      -0.28335714      -0.00000000
Ge       2.85619316       8.57269400       9.52256543       0.49824013      -0.21891654       0.20288725       0.00000000
Ge       3.02131229      12.28003284       9.59954805      -0.49540282       0.36564555       0.09680962      -0.00000000
Ge       6.91961214       4.09706152       9.67941009      -0.01911138      -0.29498412       0.04644780      -0.00000000
Ge       7.33019097       8.23392685       9.62016026      -0.23370257      -0.31097480       0.72769621       0.00000000
Ge       7.39363645      12.46146214       9.63882631      -0.44612214       0.53104709      -0.04663398      -0.00000000
Ge      11.41448621       4.14584530       9.74061173       0.15149183       0.13527741      -0.71579566       0.00000000
Ge       9.37017480       8.77551895       1.53451315      -0.51189585      -0.21758549      -0.03508172       0.00000000
Se      11.29645616       0.40073688       7.07081757       0.03500397      -0.21985598       0.14657555      -0.00000000
Se       3.07117747       4.49291565       7.14422195      -0.06185034       0.12664752       0.28319587      -0.00000000
Se       2.69938268       8.26743382       7.03357186       0.40115389       1.15942636      -0.10000006      -0.00000000
Se       6.84240834      -0.01823808       7.09965113       0.32767698       0.42692995       0.08558442      -0.00000000
Se       6.89325786       4.30607528       7.13745873       0.52700338       0.05997355      -0.06188107      -0.00000000
Se       7.22956620       8.72097103       7.20504202      -0.49301033      -0.39754415      -0.64306942      -0.00000000
Se      11.01839792       4.37973599       7.05468047       0.08187852      -0.74002421       0.55346842      -0.00000000
Se       9.05141875      -0.00952616       3.99365065       0.50935623       0.32593216      -0.55867405      -0.00000000
Se       0.64593544       0.31540735       3.93315496       0.22034368      -0.25237039       0.18286092      -0.00000000
Se       1.11347753       4.35137279       3.96054057      -0.49575653      -0.59686428       0.23930084      -0.00000000
Se       0.67863488       8.26745502       3.79423400       0.28093536       0.32159840       0.07736418      -0.00000000
Se       5.04255285      -0.00783478       3.90430441       0.21193708      -0.05615767       0.27754875      -0.00000000
Se       4.90055391       4.45774912       3.95066825       0.03802337      -0.55320471       0.05121429      -0.00000000
Se       4.74774969       8.73992180       4.06401564      -0.39375833      -0.51068945      -0.04742314      -0.00000000
Se       2.92699843       0.17670219       7.12411720       0.19956398       0.24703687      -0.20406988      -0.00000000
Se      11.19126260       8.41054941       7.22794996      -0.46705969       0.03330461       0.14931359      -0.00000000
Se      11.12080269      10.60817373       1.25192292       0.42362228       0.16499825       0.68290923      -0.00000000
Se       3.10167436       2.04446186       1.68736818       0.01395204       0.10557647      -0.80896531      -0.00000000
Se      10.99400053       2.39063341       1.73263898       0.17863610       0.01807634      -0.08294988      -0.00000000
Se       8.78334057       4.40901195       3.99507599       0.36659410       0.41237733       0.04709472      -0.00000000
Se       0.86637286       2.35348270       9.69142339       0.29013390       0.20671812       0.70466396      -0.00000000
Se       0.58215199       6.31286580       9.66991362       0.30561861      -0.19139877      -0.62156165      -0.00000000
Se       0.86712166      10.62804929       9.17221137      -0.13397164      -0.15408135       0.08854453      -0.00000000
Se       5.06517073       2.13631027       9.45891653      -0.26240420       0.37797253      -0.21862922      -0.00000000
Se       5.20676083       6.61876291       9.53104559      -0.24589679       0.13253389      -0.34590629      -0.00000000
Se       4.77948690      10.53395794       9.67450032       0.26929688      -0.60655494      -0.74410423      -0.00000000
Se       8.86541431       2.17993353       9.57295663       0.22009252      -0.02480953      -0.13151535      -0.00000000
Se       9.21577618       6.31477006       9.55514544      -0.63582129       0.14196091      -0.23662715      -0.00000000
Se       9.17848986      10.74878433       9.44359287       0.31112425      -0.68076025      -0.36663464      -0.00000000
Se       2.90278589       6.31241260       1.47143984      -0.30281651       0.39034755      -0.23107395      -0.00000000
Se       2.59097016      10.75614211       1.52829094       0.05460115      -0.18178510       0.23221705      -0.00000000
Se       7.03942459       2.20191634       1.52960539      -0.07912836      -0.27643636      -0.66658073      -0.00000000
Se       6.93708432       6.59685817       1.60102446      -0.16693267      -0.00556510       0.48764262      -0.00000000
Se       7.10397188      10.26102685       1.79068514       0.42809183       0.48303091      -0.20422166      -0.00000000
Se      11.18562786       6.15231618       1.50239719       0.48946416       0.23198645       0.25106397      -0.00000000
Se       9.55471178       8.44111713       4.08772018      -0.46545582      -0.32075399      -0.17675581      -0.00000000
