 running  160 mpi-ranks, with    1 threads/rank, on   10 nodes
 distrk:  each k-point on   80 cores,    2 groups
 distr:  one band on    5 cores,   16 groups
 vasp.6.4.2 20Jul23 (build Oct 12 2023 10:31:02) complex                         
 POSCAR found type information on POSCAR GeSe
 POSCAR found :  2 types and       8 ions
 Reading from existing POTCAR
 scaLAPACK will be used
 Reading from existing POTCAR
 LDA part: xc-table for Pade appr. of Perdew
 POSCAR, INCAR and KPOINTS ok, starting setup
 FFT: planning ... GRIDC
 FFT: planning ... GRID_SOFT
 FFT: planning ... GRID
 WAVECAR not read
 entering main loop
       N       E                     dE             d eps       ncg     rms          rms(c)
DAV:   1     0.132954398735E+03    0.13295E+03   -0.12874E+04  2560   0.772E+02
DAV:   2    -0.251060099601E+02   -0.15806E+03   -0.15361E+03  3760   0.139E+02
DAV:   3    -0.340253223976E+02   -0.89193E+01   -0.89016E+01  3120   0.385E+01
DAV:   4    -0.340901325651E+02   -0.64810E-01   -0.64795E-01  3440   0.375E+00
DAV:   5    -0.340905952174E+02   -0.46265E-03   -0.46263E-03  3152   0.306E-01    0.650E+00
DAV:   6    -0.337138795559E+02    0.37672E+00   -0.80659E-01  3136   0.298E+00    0.410E+00
DAV:   7    -0.337046279448E+02    0.92516E-02   -0.22501E-01  3040   0.169E+00    0.128E+00
DAV:   8    -0.337040979804E+02    0.52996E-03   -0.21364E-02  3264   0.553E-01    0.186E-01
DAV:   9    -0.337045692896E+02   -0.47131E-03   -0.36682E-03  3264   0.263E-01    0.708E-02
DAV:  10    -0.337047311831E+02   -0.16189E-03   -0.34451E-04  3360   0.788E-02    0.258E-02
DAV:  11    -0.337047752069E+02   -0.44024E-04   -0.52439E-05  3120   0.324E-02    0.126E-02
DAV:  12    -0.337047766621E+02   -0.14552E-05   -0.72746E-06  3472   0.111E-02    0.276E-03
DAV:  13    -0.337047776023E+02   -0.94019E-06   -0.14393E-06  2032   0.523E-03
   1 F= -.33704778E+02 E0= -.33704689E+02  d E =-.176479E-03
