 running  160 mpi-ranks, with    1 threads/rank, on   10 nodes
 distrk:  each k-point on   80 cores,    2 groups
 distr:  one band on    5 cores,   16 groups
 vasp.6.4.2 20Jul23 (build Oct 12 2023 10:31:02) complex                         
 POSCAR found type information on POSCAR GeSe
 POSCAR found :  2 types and       8 ions
 Reading from existing POTCAR
 scaLAPACK will be used
 Reading from existing POTCAR
 LDA part: xc-table for Pade appr. of Perdew
 POSCAR, INCAR and KPOINTS ok, starting setup
 FFT: planning ... GRIDC
 FFT: planning ... GRID_SOFT
 FFT: planning ... GRID
 WAVECAR not read
 entering main loop
       N       E                     dE             d eps       ncg     rms          rms(c)
DAV:   1     0.132453825794E+03    0.13245E+03   -0.12878E+04  2560   0.772E+02
DAV:   2    -0.251454012364E+02   -0.15760E+03   -0.15305E+03  3744   0.139E+02
DAV:   3    -0.340430585954E+02   -0.88977E+01   -0.88789E+01  3216   0.384E+01
DAV:   4    -0.341068835724E+02   -0.63825E-01   -0.63812E-01  3424   0.372E+00
DAV:   5    -0.341073450223E+02   -0.46145E-03   -0.46144E-03  3264   0.304E-01    0.648E+00
DAV:   6    -0.337337404112E+02    0.37360E+00   -0.79353E-01  3248   0.297E+00    0.409E+00
DAV:   7    -0.337245646236E+02    0.91758E-02   -0.22352E-01  3008   0.169E+00    0.127E+00
DAV:   8    -0.337240506543E+02    0.51397E-03   -0.20721E-02  3232   0.548E-01    0.186E-01
DAV:   9    -0.337245694082E+02   -0.51875E-03   -0.34773E-03  3280   0.257E-01    0.706E-02
DAV:  10    -0.337247385776E+02   -0.16917E-03   -0.33251E-04  3312   0.764E-02    0.262E-02
DAV:  11    -0.337247817051E+02   -0.43128E-04   -0.51890E-05  3184   0.316E-02    0.123E-02
DAV:  12    -0.337247836331E+02   -0.19280E-05   -0.71388E-06  3392   0.113E-02    0.289E-03
DAV:  13    -0.337247845867E+02   -0.95359E-06   -0.15522E-06  2320   0.542E-03
   1 F= -.33724785E+02 E0= -.33724783E+02  d E =-.393348E-05
