 running   32 mpi-ranks, with    1 threads/rank, on    2 nodes
 distrk:  each k-point on   16 cores,    2 groups
 distr:  one band on    1 cores,   16 groups
 vasp.6.4.2 20Jul23 (build Oct 12 2023 10:31:02) complex                         
 POSCAR found type information on POSCAR GeSe
 POSCAR found :  2 types and       4 ions
 Reading from existing POTCAR
 -----------------------------------------------------------------------------
|                                                                             |
|           W    W    AA    RRRRR   N    N  II  N    N   GGGG   !!!           |
|           W    W   A  A   R    R  NN   N  II  NN   N  G    G  !!!           |
|           W    W  A    A  R    R  N N  N  II  N N  N  G       !!!           |
|           W WW W  AAAAAA  RRRRR   N  N N  II  N  N N  G  GGG   !            |
|           WW  WW  A    A  R   R   N   NN  II  N   NN  G    G                |
|           W    W  A    A  R    R  N    N  II  N    N   GGGG   !!!           |
|                                                                             |
|     You use a magnetic or noncollinear calculation, but did not specify     |
|     the initial magnetic moment with the MAGMOM tag. Note that a            |
|     default of 1 will be used for all atoms. This ferromagnetic setup       |
|     may break the symmetry of the crystal, in particular it may rule        |
|     out finding an antiferromagnetic solution. Thence, we recommend         |
|     setting the initial magnetic moment manually or verifying carefully     |
|     that this magnetic setup is desired.                                    |
|                                                                             |
 -----------------------------------------------------------------------------

 scaLAPACK will be used
 Reading from existing POTCAR
 LDA part: xc-table for Pade appr. of Perdew
 -----------------------------------------------------------------------------
|                                                                             |
|           W    W    AA    RRRRR   N    N  II  N    N   GGGG   !!!           |
|           W    W   A  A   R    R  NN   N  II  NN   N  G    G  !!!           |
|           W    W  A    A  R    R  N N  N  II  N N  N  G       !!!           |
|           W WW W  AAAAAA  RRRRR   N  N N  II  N  N N  G  GGG   !            |
|           WW  WW  A    A  R   R   N   NN  II  N   NN  G    G                |
|           W    W  A    A  R    R  N    N  II  N    N   GGGG   !!!           |
|                                                                             |
|     The number of bands has been changed from the values supplied in        |
|     the INCAR file. This is a result of running the parallel version.       |
|     The orbitals not found in the WAVECAR file will be initialized with     |
|     random numbers, which is usually adequate. For correlated               |
|     calculations, however, you should redo the groundstate calculation.     |
|     I found NBANDS = 220. Now, NBANDS = 224.                                |
|                                                                             |
 -----------------------------------------------------------------------------

 POSCAR, INCAR and KPOINTS ok, starting setup
 FFT: planning ... GRIDC
 FFT: planning ... GRID_SOFT
 FFT: planning ... GRID
 WAVECAR not read
 WARNING: random wavefunctions but no delay for mixing, default for NELMDL
 entering main loop
       N       E                     dE             d eps       ncg     rms          rms(c)
DAV:   1     0.967340119666E+02    0.96734E+02   -0.38275E+03 28672   0.605E+01
DAV:   2    -0.107714190513E+02   -0.10751E+03   -0.96832E+02 34528   0.219E+01
DAV:   3    -0.162087961529E+02   -0.54374E+01   -0.53750E+01 34336   0.501E+00
DAV:   4    -0.162381913076E+02   -0.29395E-01   -0.29389E-01 33488   0.331E-01
DAV:   5    -0.162383267665E+02   -0.13546E-03   -0.13546E-03 33008   0.238E-02    0.684E+00
DAV:   6    -0.120938385530E+02    0.41445E+01   -0.39619E+00 31728   0.102E+00    0.449E+00
DAV:   7    -0.115334972208E+02    0.56034E+00   -0.44168E-01 31392   0.386E-01    0.306E+00
DAV:   8    -0.121069401404E+02   -0.57344E+00   -0.12804E-01 32608   0.218E-01    0.202E+00
DAV:   9    -0.130682406413E+02   -0.96130E+00   -0.10025E-01 31120   0.192E-01    0.163E+00
DAV:  10    -0.148712293219E+02   -0.18030E+01   -0.41577E-01 31056   0.365E-01    0.106E+00
DAV:  11    -0.162469586016E+02   -0.13757E+01   -0.29960E-01 31520   0.303E-01    0.493E-01
DAV:  12    -0.163633374516E+02   -0.11638E+00   -0.32362E-02 31616   0.112E-01    0.301E-01
DAV:  13    -0.166574423539E+02   -0.29410E+00   -0.79613E-03 30544   0.647E-02    0.172E-01
DAV:  14    -0.167379100796E+02   -0.80468E-01   -0.17649E-03 32288   0.306E-02    0.938E-02
DAV:  15    -0.167464551099E+02   -0.85450E-02   -0.80951E-04 31888   0.188E-02    0.543E-02
DAV:  16    -0.167534126719E+02   -0.69576E-02   -0.61849E-04 31712   0.161E-02    0.312E-02
DAV:  17    -0.167568479461E+02   -0.34353E-02   -0.12918E-04 31376   0.769E-03    0.201E-02
DAV:  18    -0.167588838905E+02   -0.20359E-02   -0.80444E-05 31440   0.631E-03    0.114E-02
DAV:  19    -0.167593871769E+02   -0.50329E-03   -0.32281E-05 30640   0.407E-03    0.766E-03
DAV:  20    -0.167596138779E+02   -0.22670E-03   -0.14488E-05 30688   0.299E-03    0.486E-03
DAV:  21    -0.167597252405E+02   -0.11136E-03   -0.74818E-06 30096   0.232E-03    0.289E-03
DAV:  22    -0.167597838700E+02   -0.58629E-04   -0.25561E-06 30384   0.142E-03    0.172E-03
DAV:  23    -0.167598202248E+02   -0.36355E-04   -0.11678E-06 30576   0.101E-03    0.949E-04
DAV:  24    -0.167598358061E+02   -0.15581E-04   -0.56721E-07 30976   0.725E-04    0.577E-04
DAV:  25    -0.167598441100E+02   -0.83038E-05   -0.19106E-07 31552   0.407E-04    0.257E-04
DAV:  26    -0.167598469865E+02   -0.28765E-05   -0.34343E-08 33120   0.154E-04    0.128E-04
DAV:  27    -0.167598477607E+02   -0.77423E-06   -0.74904E-09 32704   0.815E-05
   1 F= -.16759848E+02 E0= -.16759848E+02  d E =-.564898E-23  mag=     0.0001
 writing wavefunctions
