 running  128 mpi-ranks, with    1 threads/rank, on    2 nodes
 distrk:  each k-point on   64 cores,    2 groups
 distr:  one band on    8 cores,    8 groups
 vasp.6.4.2 20Jul23 (build Oct 12 2023 10:31:02) complex                         
 POSCAR found type information on POSCAR GeSe
 POSCAR found :  2 types and      72 ions
 Reading from existing POTCAR
 -----------------------------------------------------------------------------
|                                                                             |
|           W    W    AA    RRRRR   N    N  II  N    N   GGGG   !!!           |
|           W    W   A  A   R    R  NN   N  II  NN   N  G    G  !!!           |
|           W    W  A    A  R    R  N N  N  II  N N  N  G       !!!           |
|           W WW W  AAAAAA  RRRRR   N  N N  II  N  N N  G  GGG   !            |
|           WW  WW  A    A  R   R   N   NN  II  N   NN  G    G                |
|           W    W  A    A  R    R  N    N  II  N    N   GGGG   !!!           |
|                                                                             |
|     You use a magnetic or noncollinear calculation, but did not specify     |
|     the initial magnetic moment with the MAGMOM tag. Note that a            |
|     default of 1 will be used for all atoms. This ferromagnetic setup       |
|     may break the symmetry of the crystal, in particular it may rule        |
|     out finding an antiferromagnetic solution. Thence, we recommend         |
|     setting the initial magnetic moment manually or verifying carefully     |
|     that this magnetic setup is desired.                                    |
|                                                                             |
 -----------------------------------------------------------------------------

 scaLAPACK will be used
 Reading from existing POTCAR
 -----------------------------------------------------------------------------
|                                                                             |
|               ----> ADVICE to this user running VASP <----                  |
|                                                                             |
|     You have a (more or less) 'large supercell' and for larger cells it     |
|     might be more efficient to use real-space projection operators.         |
|     Therefore, try LREAL= Auto in the INCAR file.                           |
|     Mind: For very accurate calculation, you might also keep the            |
|     reciprocal projection scheme (i.e. LREAL=.FALSE.).                      |
|                                                                             |
 -----------------------------------------------------------------------------

 LDA part: xc-table for Pade appr. of Perdew
 -----------------------------------------------------------------------------
|                                                                             |
|           W    W    AA    RRRRR   N    N  II  N    N   GGGG   !!!           |
|           W    W   A  A   R    R  NN   N  II  NN   N  G    G  !!!           |
|           W    W  A    A  R    R  N N  N  II  N N  N  G       !!!           |
|           W WW W  AAAAAA  RRRRR   N  N N  II  N  N N  G  GGG   !            |
|           WW  WW  A    A  R   R   N   NN  II  N   NN  G    G                |
|           W    W  A    A  R    R  N    N  II  N    N   GGGG   !!!           |
|                                                                             |
|     The number of bands has been changed from the values supplied in        |
|     the INCAR file. This is a result of running the parallel version.       |
|     The orbitals not found in the WAVECAR file will be initialized with     |
|     random numbers, which is usually adequate. For correlated               |
|     calculations, however, you should redo the groundstate calculation.     |
|     I found NBANDS = 220. Now, NBANDS = 224.                                |
|                                                                             |
 -----------------------------------------------------------------------------

 POSCAR, INCAR and KPOINTS ok, starting setup
 FFT: planning ... GRIDC
 FFT: planning ... GRID_SOFT
 FFT: planning ... GRID
 WAVECAR not read
 WARNING: random wavefunctions but no delay for mixing, default for NELMDL
 entering main loop
       N       E                     dE             d eps       ncg     rms          rms(c)
DAV:   1     0.181999372182E+04    0.18200E+04   -0.14197E+05  7168   0.135E+03
DAV:   2    -0.635240670869E+02   -0.18835E+04   -0.18072E+04  8472   0.205E+02
DAV:   3    -0.282152719646E+03   -0.21863E+03   -0.21273E+03  8608   0.693E+01
DAV:   4    -0.290055418290E+03   -0.79027E+01   -0.78129E+01  8704   0.131E+01
DAV:   5    -0.290353015521E+03   -0.29760E+00   -0.29677E+00  9072   0.213E+00    0.291E+01
DAV:   6    -0.289998496789E+03    0.35452E+00   -0.26679E+01  7880   0.760E+00    0.172E+01
DAV:   7    -0.297305419434E+03   -0.73069E+01   -0.86262E+00  7984   0.448E+00    0.908E+00
DAV:   8    -0.300544198017E+03   -0.32388E+01   -0.17400E+00  8168   0.225E+00    0.327E+00
DAV:   9    -0.300921121000E+03   -0.37692E+00   -0.42238E-01  9080   0.101E+00    0.147E+00
DAV:  10    -0.301023907287E+03   -0.10279E+00   -0.93514E-02  8104   0.461E-01    0.729E-01
DAV:  11    -0.301055087976E+03   -0.31181E-01   -0.35779E-02  8896   0.279E-01    0.281E-01
DAV:  12    -0.301058376099E+03   -0.32881E-02   -0.46511E-03  8544   0.120E-01    0.102E-01
DAV:  13    -0.301058473948E+03   -0.97849E-04   -0.55700E-04  9856   0.369E-02    0.429E-02
DAV:  14    -0.301058487387E+03   -0.13439E-04   -0.89094E-05  8232   0.183E-02    0.165E-02
DAV:  15    -0.301058490315E+03   -0.29284E-05   -0.16266E-05  8616   0.884E-03    0.727E-03
DAV:  16    -0.301058490989E+03   -0.67428E-06   -0.14892E-06  4904   0.271E-03
   1 F= -.30105849E+03 E0= -.30105849E+03  d E =-.327217E-15  mag=     0.0005
