 running  128 mpi-ranks, with    1 threads/rank, on    2 nodes
 distrk:  each k-point on   64 cores,    2 groups
 distr:  one band on    8 cores,    8 groups
 vasp.6.4.2 20Jul23 (build Oct 12 2023 10:31:02) complex                         
 POSCAR found type information on POSCAR GeSe
 POSCAR found :  2 types and      72 ions
 Reading from existing POTCAR
 -----------------------------------------------------------------------------
|                                                                             |
|           W    W    AA    RRRRR   N    N  II  N    N   GGGG   !!!           |
|           W    W   A  A   R    R  NN   N  II  NN   N  G    G  !!!           |
|           W    W  A    A  R    R  N N  N  II  N N  N  G       !!!           |
|           W WW W  AAAAAA  RRRRR   N  N N  II  N  N N  G  GGG   !            |
|           WW  WW  A    A  R   R   N   NN  II  N   NN  G    G                |
|           W    W  A    A  R    R  N    N  II  N    N   GGGG   !!!           |
|                                                                             |
|     You use a magnetic or noncollinear calculation, but did not specify     |
|     the initial magnetic moment with the MAGMOM tag. Note that a            |
|     default of 1 will be used for all atoms. This ferromagnetic setup       |
|     may break the symmetry of the crystal, in particular it may rule        |
|     out finding an antiferromagnetic solution. Thence, we recommend         |
|     setting the initial magnetic moment manually or verifying carefully     |
|     that this magnetic setup is desired.                                    |
|                                                                             |
 -----------------------------------------------------------------------------

 scaLAPACK will be used
 Reading from existing POTCAR
 -----------------------------------------------------------------------------
|                                                                             |
|               ----> ADVICE to this user running VASP <----                  |
|                                                                             |
|     You have a (more or less) 'large supercell' and for larger cells it     |
|     might be more efficient to use real-space projection operators.         |
|     Therefore, try LREAL= Auto in the INCAR file.                           |
|     Mind: For very accurate calculation, you might also keep the            |
|     reciprocal projection scheme (i.e. LREAL=.FALSE.).                      |
|                                                                             |
 -----------------------------------------------------------------------------

 LDA part: xc-table for Pade appr. of Perdew
 -----------------------------------------------------------------------------
|                                                                             |
|           W    W    AA    RRRRR   N    N  II  N    N   GGGG   !!!           |
|           W    W   A  A   R    R  NN   N  II  NN   N  G    G  !!!           |
|           W    W  A    A  R    R  N N  N  II  N N  N  G       !!!           |
|           W WW W  AAAAAA  RRRRR   N  N N  II  N  N N  G  GGG   !            |
|           WW  WW  A    A  R   R   N   NN  II  N   NN  G    G                |
|           W    W  A    A  R    R  N    N  II  N    N   GGGG   !!!           |
|                                                                             |
|     The number of bands has been changed from the values supplied in        |
|     the INCAR file. This is a result of running the parallel version.       |
|     The orbitals not found in the WAVECAR file will be initialized with     |
|     random numbers, which is usually adequate. For correlated               |
|     calculations, however, you should redo the groundstate calculation.     |
|     I found NBANDS = 220. Now, NBANDS = 224.                                |
|                                                                             |
 -----------------------------------------------------------------------------

 POSCAR, INCAR and KPOINTS ok, starting setup
 FFT: planning ... GRIDC
 FFT: planning ... GRID_SOFT
 FFT: planning ... GRID
 WAVECAR not read
 WARNING: random wavefunctions but no delay for mixing, default for NELMDL
 entering main loop
       N       E                     dE             d eps       ncg     rms          rms(c)
DAV:   1     0.181611301784E+04    0.18161E+04   -0.14179E+05  7168   0.135E+03
DAV:   2    -0.638071155678E+02   -0.18799E+04   -0.18054E+04  8488   0.205E+02
DAV:   3    -0.281788207102E+03   -0.21798E+03   -0.21198E+03  8600   0.692E+01
DAV:   4    -0.289801960283E+03   -0.80138E+01   -0.79220E+01  8832   0.131E+01
DAV:   5    -0.290077554330E+03   -0.27559E+00   -0.27480E+00  8976   0.208E+00    0.292E+01
DAV:   6    -0.289782838271E+03    0.29472E+00   -0.26649E+01  7952   0.757E+00    0.173E+01
DAV:   7    -0.297017017491E+03   -0.72342E+01   -0.85482E+00  8024   0.444E+00    0.909E+00
DAV:   8    -0.300239094544E+03   -0.32221E+01   -0.17175E+00  8120   0.222E+00    0.330E+00
DAV:   9    -0.300618205306E+03   -0.37911E+00   -0.42946E-01  9088   0.101E+00    0.147E+00
DAV:  10    -0.300725694403E+03   -0.10749E+00   -0.98800E-02  8136   0.471E-01    0.727E-01
DAV:  11    -0.300756983028E+03   -0.31289E-01   -0.36140E-02  8928   0.279E-01    0.288E-01
DAV:  12    -0.300760314496E+03   -0.33315E-02   -0.45980E-03  8512   0.119E-01    0.105E-01
DAV:  13    -0.300760415222E+03   -0.10073E-03   -0.63580E-04  9952   0.390E-02    0.442E-02
DAV:  14    -0.300760430516E+03   -0.15293E-04   -0.93742E-05  8216   0.185E-02    0.166E-02
DAV:  15    -0.300760433227E+03   -0.27115E-05   -0.14884E-05  8632   0.826E-03    0.744E-03
DAV:  16    -0.300760433854E+03   -0.62651E-06   -0.14128E-06  4792   0.254E-03
   1 F= -.30076043E+03 E0= -.30076043E+03  d E =-.146687E-15  mag=     0.0004
