 vasp.6.4.2 20Jul23 (build Oct 12 2023 10:31:02) complex                         
 executed on              LinuxNV date 2025.05.19  06:39:11
 running  160 mpi-ranks, with    1 threads/rank, on   10 nodes
 distrk:  each k-point on   80 cores,    2 groups
 distr:  one band on NCORE=   5 cores,   16 groups


--------------------------------------------------------------------------------------------------------


 INCAR:
   ENCUT = 360.000000
   SIGMA = 0.050000
   EDIFF = 1.00e-06
   ALGO = Normal
   GGA = PE
   PREC = Normal
   SYSTEM = ./
   ICHARG = 2
   ISMEAR = 0
   ISPIN = 1
   ISTART = 0
   ISYM = 0
   KPAR = 2
   LMAXMIX = 4
   NELM = 100
   NPAR = 16
   LASPH = .TRUE.
   LCHARG = .FALSE.
   LWAVE = .FALSE.

 POTCAR:    PAW_PBE Ge 05Jan2001                  
 POTCAR:    PAW_PBE Se 06Sep2000                  
 POTCAR:    PAW_PBE Ge 05Jan2001                  
   VRHFIN =Ge: s2p2                                                                                 
   LEXCH  = PE                                                                                      
   EATOM  =   104.9960 eV,    7.7170 Ry                                                             
                                                                                                    
   TITEL  = PAW_PBE Ge 05Jan2001                                                                    
   LULTRA =        F    use ultrasoft PP ?                                                          
   IUNSCR =        1    unscreen: 0-lin 1-nonlin 2-no                                               
   RPACOR =    2.170    partial core radius                                                         
   POMASS =   72.610; ZVAL   =    4.000    mass and valenz                                          
   RCORE  =    2.300    outmost cutoff radius                                                       
   RWIGS  =    2.300; RWIGS  =    1.217    wigner-seitz radius (au A)                               
   ENMAX  =  173.807; ENMIN  =  130.355 eV                                                          
   ICORE  =        3    local potential                                                             
   LCOR   =        T    correct aug charges                                                         
   LPAW   =        T    paw PP                                                                      
   EAUG   =  385.843                                                                                
   DEXC   =    0.000                                                                                
   RMAX   =    2.342    core radius for proj-oper                                                   
   RAUG   =    1.300    factor for augmentation sphere                                              
   RDEP   =    2.318    radius for radial grids                                                     
   RDEPT  =    2.103    core radius for aug-charge                                                  
                                                                                                    
   Atomic configuration                                                                             
   10 entries                                                                                       
     n  l   j            E        occ.                                                              
     1  0  0.50    -10959.8463   2.0000                                                             
     2  0  0.50     -1371.6056   2.0000                                                             
     2  1  1.50     -1198.4791   6.0000                                                             
     3  0  0.50      -168.4733   2.0000                                                             
     3  1  1.50      -115.6019   6.0000                                                             
     3  2  2.50       -29.3106  10.0000                                                             
     4  0  0.50       -11.7309   2.0000                                                             
     4  1  0.50        -3.8952   2.0000                                                             
     4  2  1.50        -4.0817   0.0000                                                             
     4  3  2.50        -4.0817   0.0000                                                             
   Description                                                                                      
     l       E           TYP  RCUT    TYP  RCUT                                                     
     0    -11.7309493     23  2.300                                                                 
     0     -7.4578696     23  2.300                                                                 
     1     -3.8952261     23  2.300                                                                 
     1      6.1178114     23  2.300                                                                 
     2     -4.0817478     23  2.300                                                                 
     3     -1.3605826      7  2.300                                                                 
  local pseudopotential read in
  partial core-charges read in
  partial kinetic energy density read in
  atomic valenz-charges read in
  non local Contribution for L=            0  read in
    real space projection operators read in
  non local Contribution for L=            0  read in
    real space projection operators read in
  non local Contribution for L=            1  read in
    real space projection operators read in
  non local Contribution for L=            1  read in
    real space projection operators read in
  non local Contribution for L=            2  read in
    real space projection operators read in
    PAW grid and wavefunctions read in
 
   number of l-projection  operators is LMAX  =            5
   number of lm-projection operators is LMMAX =           13
 
 POTCAR:    PAW_PBE Se 06Sep2000                  
   VRHFIN =Se: s2p4                                                                                 
   LEXCH  = PE                                                                                      
   EATOM  =   257.1286 eV,   18.8984 Ry                                                             
                                                                                                    
   TITEL  = PAW_PBE Se 06Sep2000                                                                    
   LULTRA =        F    use ultrasoft PP ?                                                          
   IUNSCR =        1    unscreen: 0-lin 1-nonlin 2-no                                               
   RPACOR =    1.900    partial core radius                                                         
   POMASS =   78.960; ZVAL   =    6.000    mass and valenz                                          
   RCORE  =    2.100    outmost cutoff radius                                                       
   RWIGS  =    2.200; RWIGS  =    1.164    wigner-seitz radius (au A)                               
   ENMAX  =  211.555; ENMIN  =  158.666 eV                                                          
   ICORE  =        3    local potential                                                             
   LCOR   =        T    correct aug charges                                                         
   LPAW   =        T    paw PP                                                                      
   EAUG   =  446.842                                                                                
   DEXC   =    0.000                                                                                
   RMAX   =    2.147    core radius for proj-oper                                                   
   RAUG   =    1.300    factor for augmentation sphere                                              
   RDEP   =    2.177    radius for radial grids                                                     
   RDEPT  =    1.928    core radius for aug-charge                                                  
                                                                                                    
   Atomic configuration                                                                             
   10 entries                                                                                       
     n  l   j            E        occ.                                                              
     1  0  0.50    -12503.4787   2.0000                                                             
     2  0  0.50     -1606.9547   2.0000                                                             
     2  1  1.50     -1413.3140   6.0000                                                             
     3  0  0.50      -213.4885   2.0000                                                             
     3  1  1.50      -152.9538   6.0000                                                             
     3  2  2.50       -53.1221  10.0000                                                             
     4  0  0.50       -17.2865   2.0000                                                             
     4  1  0.50        -6.5110   4.0000                                                             
     4  2  2.50        -6.8029   0.0000                                                             
     4  3  2.50        -6.8029   0.0000                                                             
   Description                                                                                      
     l       E           TYP  RCUT    TYP  RCUT                                                     
     0    -17.2865377     23  2.100                                                                 
     0    -15.3094411     23  2.100                                                                 
     1     -6.5110275     23  2.100                                                                 
     1     -0.0695192     23  2.100                                                                 
     2     -6.8029130     23  2.100                                                                 
     3     -1.3605826      7  2.100                                                                 
  local pseudopotential read in
  partial core-charges read in
  partial kinetic energy density read in
  atomic valenz-charges read in
  non local Contribution for L=            0  read in
    real space projection operators read in
  non local Contribution for L=            0  read in
    real space projection operators read in
  non local Contribution for L=            1  read in
    real space projection operators read in
  non local Contribution for L=            1  read in
    real space projection operators read in
  non local Contribution for L=            2  read in
    real space projection operators read in
    PAW grid and wavefunctions read in
 
   number of l-projection  operators is LMAX  =            5
   number of lm-projection operators is LMMAX =           13
 
  PAW_PBE Ge 05Jan2001                  :
 energy of atom  1       EATOM= -104.9960
 kinetic energy error for atom=    0.0005 (will be added to EATOM!!)
  PAW_PBE Se 06Sep2000                  :
 energy of atom  2       EATOM= -257.1286
 kinetic energy error for atom=    0.0030 (will be added to EATOM!!)
 
 
 POSCAR: Ge Se
  positions in cartesian coordinates
  No initial velocities read in
 exchange correlation table for  LEXCH =        8
   RHO(1)=    0.500       N(1)  =     2000
   RHO(2)=  100.500       N(2)  =     4000
 


--------------------------------------------------------------------------------------------------------


 ion  position               nearest neighbor table
   1  0.583  0.792  0.132-   5 2.59   6 2.60   6 2.60
   2  0.083  0.292  0.368-   6 2.59   5 2.60   5 2.60
   3  0.750  0.904  0.868-   7 2.59   8 2.60   8 2.60
   4  0.250  0.404  0.632-   8 2.59   7 2.60   7 2.60
   5  0.583  0.675  0.351-   1 2.59   2 2.60   2 2.60
   6  0.083  0.175  0.149-   2 2.59   1 2.60   1 2.60
   7  0.750  0.021  0.649-   3 2.59   4 2.60   4 2.60
   8  0.250  0.521  0.851-   4 2.59   3 2.60   3 2.60
 

IMPORTANT INFORMATION: All symmetrisations will be switched off!
NOSYMM: (Re-)initialisation of all symmetry stuff for point group C_1.


----------------------------------------------------------------------------------------

                                     Primitive cell                                     

  volume of cell :     202.3233

  direct lattice vectors                    reciprocal lattice vectors
     3.858100176  0.000000000  0.000000000     0.259194929  0.000000000  0.000000000
     0.000000000  4.526575088  0.000000000     0.000000000  0.220917577  0.000000000
     0.000000000  0.000000000 11.585176468     0.000000000  0.000000000  0.086317200

  length of vectors
     3.858100176  4.526575088 11.585176468     0.259194929  0.220917577  0.086317200

  position of ions in fractional coordinates (direct lattice)
     0.583333337  0.791895531  0.131971745
     0.083333301  0.291895519  0.368028228
     0.749999855  0.903756548  0.868028249
     0.249999781  0.403756501  0.631971759
     0.583333320  0.675117879  0.351109927
     0.083333337  0.175117899  0.148890049
     0.749999761  0.020534152  0.648890076
     0.249999838  0.520534176  0.851109946

  ion indices of the primitive-cell ions
   primitive index   ion index
                 1           1
                 2           2
                 3           3
                 4           4
                 5           5
                 6           6
                 7           7
                 8           8

----------------------------------------------------------------------------------------

 
 
 KPOINTS: KPOINTS created by Atomic Simulation Env

Automatic generation of k-mesh.
 Grid dimensions read from file:
 generate k-points for:    6    6    2

 Generating k-lattice:

  Cartesian coordinates                     Fractional coordinates (reciprocal lattice)
     0.043199155  0.000000000  0.000000000     0.166666667  0.000000000  0.000000000
     0.000000000  0.036819596  0.000000000     0.000000000  0.166666667  0.000000000
     0.000000000  0.000000000  0.043158600     0.000000000  0.000000000  0.500000000

  Length of vectors
     0.043199155  0.036819596  0.043158600

  Shift w.r.t. Gamma in fractional coordinates (k-lattice)
     0.000000000  0.000000000  0.000000000

 
 Subroutine IBZKPT returns following result:
 ===========================================
 
 Found     40 irreducible k-points:
 
 Following reciprocal coordinates:
            Coordinates               Weight
  0.000000  0.000000  0.000000      1.000000
  0.166667  0.000000  0.000000      2.000000
  0.333333  0.000000  0.000000      2.000000
  0.500000  0.000000  0.000000      1.000000
  0.000000  0.166667  0.000000      2.000000
  0.166667  0.166667  0.000000      2.000000
  0.166667 -0.166667  0.000000      2.000000
  0.333333  0.166667  0.000000      2.000000
  0.333333 -0.166667  0.000000      2.000000
  0.500000  0.166667  0.000000      2.000000
  0.000000  0.333333  0.000000      2.000000
  0.166667  0.333333  0.000000      2.000000
  0.166667 -0.333333  0.000000      2.000000
  0.333333  0.333333  0.000000      2.000000
  0.333333 -0.333333  0.000000      2.000000
  0.500000  0.333333  0.000000      2.000000
  0.000000  0.500000  0.000000      1.000000
  0.166667  0.500000  0.000000      2.000000
  0.333333  0.500000  0.000000      2.000000
  0.500000  0.500000  0.000000      1.000000
  0.000000  0.000000  0.500000      1.000000
  0.166667  0.000000  0.500000      2.000000
  0.333333  0.000000  0.500000      2.000000
  0.500000  0.000000  0.500000      1.000000
  0.000000  0.166667  0.500000      2.000000
  0.166667  0.166667  0.500000      2.000000
  0.166667 -0.166667  0.500000      2.000000
  0.333333  0.166667  0.500000      2.000000
  0.333333 -0.166667  0.500000      2.000000
  0.500000  0.166667  0.500000      2.000000
  0.000000  0.333333  0.500000      2.000000
  0.166667  0.333333  0.500000      2.000000
  0.166667 -0.333333  0.500000      2.000000
  0.333333  0.333333  0.500000      2.000000
  0.333333 -0.333333  0.500000      2.000000
  0.500000  0.333333  0.500000      2.000000
  0.000000  0.500000  0.500000      1.000000
  0.166667  0.500000  0.500000      2.000000
  0.333333  0.500000  0.500000      2.000000
  0.500000  0.500000  0.500000      1.000000
 
 Following cartesian coordinates:
            Coordinates               Weight
  0.000000  0.000000  0.000000      1.000000
  0.043199  0.000000  0.000000      2.000000
  0.086398  0.000000  0.000000      2.000000
  0.129597  0.000000  0.000000      1.000000
  0.000000  0.036820  0.000000      2.000000
  0.043199  0.036820  0.000000      2.000000
  0.043199 -0.036820  0.000000      2.000000
  0.086398  0.036820  0.000000      2.000000
  0.086398 -0.036820  0.000000      2.000000
  0.129597  0.036820  0.000000      2.000000
  0.000000  0.073639  0.000000      2.000000
  0.043199  0.073639  0.000000      2.000000
  0.043199 -0.073639  0.000000      2.000000
  0.086398  0.073639  0.000000      2.000000
  0.086398 -0.073639  0.000000      2.000000
  0.129597  0.073639  0.000000      2.000000
  0.000000  0.110459  0.000000      1.000000
  0.043199  0.110459  0.000000      2.000000
  0.086398  0.110459  0.000000      2.000000
  0.129597  0.110459  0.000000      1.000000
  0.000000  0.000000  0.043159      1.000000
  0.043199  0.000000  0.043159      2.000000
  0.086398  0.000000  0.043159      2.000000
  0.129597  0.000000  0.043159      1.000000
  0.000000  0.036820  0.043159      2.000000
  0.043199  0.036820  0.043159      2.000000
  0.043199 -0.036820  0.043159      2.000000
  0.086398  0.036820  0.043159      2.000000
  0.086398 -0.036820  0.043159      2.000000
  0.129597  0.036820  0.043159      2.000000
  0.000000  0.073639  0.043159      2.000000
  0.043199  0.073639  0.043159      2.000000
  0.043199 -0.073639  0.043159      2.000000
  0.086398  0.073639  0.043159      2.000000
  0.086398 -0.073639  0.043159      2.000000
  0.129597  0.073639  0.043159      2.000000
  0.000000  0.110459  0.043159      1.000000
  0.043199  0.110459  0.043159      2.000000
  0.086398  0.110459  0.043159      2.000000
  0.129597  0.110459  0.043159      1.000000
 


--------------------------------------------------------------------------------------------------------




 Dimension of arrays:
   k-points           NKPTS =     40   k-points in BZ     NKDIM =     40   number of bands    NBANDS=     32
   number of dos      NEDOS =    301   number of ions     NIONS =      8
   non local maximal  LDIM  =      5   non local SUM 2l+1 LMDIM =     13
   total plane-waves  NPLWV =  23328
   max r-space proj   IRMAX =      1   max aug-charges    IRDMAX=   6465
   dimension x,y,z NGX =    18 NGY =   24 NGZ =   54
   dimension x,y,z NGXF=    36 NGYF=   48 NGZF=  108
   support grid    NGXF=    36 NGYF=   48 NGZF=  108
   ions per type =               4   4
   NGX,Y,Z   is equivalent  to a cutoff of   7.76,  8.81,  7.75 a.u.
   NGXF,Y,Z  is equivalent  to a cutoff of  15.51, 17.63, 15.50 a.u.

 SYSTEM =  ./                                      
 POSCAR =  Ge Se                                   

 Startparameter for this run:
   NWRITE =      2    write-flag & timer
   PREC   = normal    normal or accurate (medium, high low for compatibility)
   ISTART =      0    job   : 0-new  1-cont  2-samecut
   ICHARG =      2    charge: 1-file 2-atom 10-const
   ISPIN  =      1    spin polarized calculation?
   LNONCOLLINEAR =      F non collinear calculations
   LSORBIT =      F    spin-orbit coupling
   INIWAV =      1    electr: 0-lowe 1-rand  2-diag
   LASPH  =      T    aspherical Exc in radial PAW
 Electronic Relaxation 1
   ENCUT  =  360.0 eV  26.46 Ry    5.14 a.u.   5.97  7.00 17.92*2*pi/ulx,y,z
   ENINI  =  360.0     initial cutoff
   ENAUG  =  446.8 eV  augmentation charge cutoff
   NELM   =    100;   NELMIN=  2; NELMDL= -5     # of ELM steps 
   EDIFF  = 0.1E-05   stopping-criterion for ELM
   LREAL  =      F    real-space projection
   NLSPLINE    = F    spline interpolate recip. space projectors
   LCOMPAT=      F    compatible to vasp.4.4
   GGA_COMPAT  = T    GGA compatible to vasp.4.4-vasp.4.6
   LMAXPAW     = -100 max onsite density
   LMAXMIX     =    4 max onsite mixed and CHGCAR
   VOSKOWN=      0    Vosko Wilk Nusair interpolation
   ROPT   =    0.00000   0.00000
 Ionic relaxation
   EDIFFG = 0.1E-04   stopping-criterion for IOM
   NSW    =      0    number of steps for IOM
   NBLOCK =      1;   KBLOCK =      1    inner block; outer block 
   IBRION =     -1    ionic relax: 0-MD 1-quasi-New 2-CG
   NFREE  =      0    steps in history (QN), initial steepest desc. (CG)
   ISIF   =      2    stress and relaxation
   IWAVPR =     10    prediction:  0-non 1-charg 2-wave 3-comb
   ISYM   =      0    0-nonsym 1-usesym 2-fastsym
   LCORR  =      T    Harris-Foulkes like correction to forces

   POTIM  = 0.5000    time-step for ionic-motion
   TEIN   =    0.0    initial temperature
   TEBEG  =    0.0;   TEEND  =   0.0 temperature during run
   SMASS  =  -3.00    Nose mass-parameter (am)
   estimated Nose-frequenzy (Omega)   =  0.10E-29 period in steps = 0.13E+47 mass=  -0.340E-27a.u.
   SCALEE = 1.0000    scale energy and forces
   NPACO  =    256;   APACO  = 10.0  distance and # of slots for P.C.
   PSTRESS=    0.0 pullay stress

  Mass of Ions in am
   POMASS =  72.61 78.96
  Ionic Valenz
   ZVAL   =   4.00  6.00
  Atomic Wigner-Seitz radii
   RWIGS  =  -1.00 -1.00
  virtual crystal weights 
   VCA    =   1.00  1.00
   NELECT =      40.0000    total number of electrons
   NUPDOWN=      -1.0000    fix difference up-down

 DOS related values:
   EMIN   =  10.00;   EMAX   =-10.00  energy-range for DOS
   EFERMI =   0.00;   METHOD = LEGACY      
   ISMEAR =     0;   SIGMA  =   0.05  broadening in eV -4-tet -1-fermi 0-gaus

 Electronic relaxation 2 (details)
   IALGO  =     38    algorithm
   LDIAG  =      T    sub-space diagonalisation (order eigenvalues)
   LSUBROT=      F    optimize rotation matrix (better conditioning)
   TURBO    =      0    0=normal 1=particle mesh
   IRESTART =      0    0=no restart 2=restart with 2 vectors
   NREBOOT  =      0    no. of reboots
   NMIN     =      0    reboot dimension
   EREF     =   0.00    reference energy to select bands
   IMIX   =      4    mixing-type and parameters
     AMIX     =   0.40;   BMIX     =  1.00
     AMIX_MAG =   1.60;   BMIX_MAG =  1.00
     AMIN     =   0.10
     WC   =   100.;   INIMIX=   1;  MIXPRE=   1;  MAXMIX= -45

 Intra band minimization:
   WEIMIN = 0.0000     energy-eigenvalue tresh-hold
   EBREAK =  0.78E-08  absolut break condition
   DEPER  =   0.30     relativ break condition  

   TIME   =   0.40     timestep for ELM

  volume/ion in A,a.u.               =      25.29       170.67
  Fermi-wavevector in a.u.,A,eV,Ry     =   0.953702  1.802236 12.375155  0.909548
  Thomas-Fermi vector in A             =   2.082382
 
 Write flags
   LWAVE        =      F    write WAVECAR
   LDOWNSAMPLE  =      F    k-point downsampling of WAVECAR
   LCHARG       =      F    write CHGCAR
   LVTOT        =      F    write LOCPOT, total local potential
   LVHAR        =      F    write LOCPOT, Hartree potential only
   LELF         =      F    write electronic localiz. function (ELF)
   LORBIT       =      0    0 simple, 1 ext, 2 COOP (PROOUT), +10 PAW based schemes


 Dipole corrections
   LMONO  =      F    monopole corrections only (constant potential shift)
   LDIPOL =      F    correct potential (dipole corrections)
   IDIPOL =      0    1-x, 2-y, 3-z, 4-all directions 
   EPSILON=  1.0000000 bulk dielectric constant

 Exchange correlation treatment:
   GGA     =    PE    GGA type
   LEXCH   =     8    internal setting for exchange type
   LIBXC   =     F    Libxc                    
   VOSKOWN =     0    Vosko Wilk Nusair interpolation
   LHFCALC =     F    Hartree Fock is set to
   LHFONE  =     F    Hartree Fock one center treatment
   AEXX    =    0.0000 exact exchange contribution

 Linear response parameters
   LEPSILON=     F    determine dielectric tensor
   LRPA    =     F    only Hartree local field effects (RPA)
   LNABLA  =     F    use nabla operator in PAW spheres
   LVEL    =     F    velocity operator in full k-point grid
   CSHIFT  =0.1000    complex shift for real part using Kramers Kronig
   OMEGAMAX=  -1.0    maximum frequency
   DEG_THRESHOLD= 0.2000000E-02 threshold for treating states as degnerate
   RTIME   =   -0.100 relaxation time in fs
  (WPLASMAI=    0.000 imaginary part of plasma frequency in eV, 0.658/RTIME)
   DFIELD  = 0.0000000 0.0000000 0.0000000 field for delta impulse in time
 
  Optional k-point grid parameters
   LKPOINTS_OPT  =     F    use optional k-point grid
   KPOINTS_OPT_MODE=     1    mode for optional k-point grid
 
 Orbital magnetization related:
   ORBITALMAG=     F  switch on orbital magnetization
   LCHIMAG   =     F  perturbation theory with respect to B field
   DQ        =  0.001000  dq finite difference perturbation B field
   LLRAUG    =     F  two centre corrections for induced B field
   LBONE     =     F  B-component reconstruction in AE one-centre
   LVGVCALC  =     T  calculate vGv susceptibility
   LVGVAPPL  =     F  apply vGv susceptibility instead of pGv for G=0

 Random number generation:
   RANDOM_GENERATOR = DEFAULT
   PCG_SEED         = not used


--------------------------------------------------------------------------------------------------------


 Static calculation
 charge density and potential will be updated during run
 non-spin polarized calculation
 Variant of blocked Davidson
 Davidson routine will perform the subspace rotation
 perform sub-space diagonalisation
    after iterative eigenvector-optimisation
 modified Broyden-mixing scheme, WC =      100.0
 initial mixing is a Kerker type mixing with AMIX =  0.4000 and BMIX =      1.0000
 Hartree-type preconditioning will be used
 using additional bands            12
 reciprocal scheme for non local part
 use partial core corrections
 calculate Harris-corrections to forces 
   (improved forces if not selfconsistent)
 use gradient corrections 
 use of overlap-Matrix (Vanderbilt PP)
 Gauss-broadening in eV      SIGMA  =   0.05


--------------------------------------------------------------------------------------------------------


  energy-cutoff  :      360.00
  volume of cell :      202.32
      direct lattice vectors                 reciprocal lattice vectors
     3.858100176  0.000000000  0.000000000     0.259194929  0.000000000  0.000000000
     0.000000000  4.526575088  0.000000000     0.000000000  0.220917577  0.000000000
     0.000000000  0.000000000 11.585176468     0.000000000  0.000000000  0.086317200

  length of vectors
     3.858100176  4.526575088 11.585176468     0.259194929  0.220917577  0.086317200


 
 k-points in units of 2pi/SCALE and weight: KPOINTS created by Atomic Simulation Env
   0.00000000  0.00000000  0.00000000       0.014
   0.04319915  0.00000000  0.00000000       0.028
   0.08639831  0.00000000  0.00000000       0.028
   0.12959746  0.00000000  0.00000000       0.014
   0.00000000  0.03681960  0.00000000       0.028
   0.04319915  0.03681960  0.00000000       0.028
   0.04319915 -0.03681960  0.00000000       0.028
   0.08639831  0.03681960  0.00000000       0.028
   0.08639831 -0.03681960  0.00000000       0.028
   0.12959746  0.03681960  0.00000000       0.028
   0.00000000  0.07363919  0.00000000       0.028
   0.04319915  0.07363919  0.00000000       0.028
   0.04319915 -0.07363919  0.00000000       0.028
   0.08639831  0.07363919  0.00000000       0.028
   0.08639831 -0.07363919  0.00000000       0.028
   0.12959746  0.07363919  0.00000000       0.028
   0.00000000  0.11045879  0.00000000       0.014
   0.04319915  0.11045879  0.00000000       0.028
   0.08639831  0.11045879  0.00000000       0.028
   0.12959746  0.11045879  0.00000000       0.014
   0.00000000  0.00000000  0.04315860       0.014
   0.04319915  0.00000000  0.04315860       0.028
   0.08639831  0.00000000  0.04315860       0.028
   0.12959746  0.00000000  0.04315860       0.014
   0.00000000  0.03681960  0.04315860       0.028
   0.04319915  0.03681960  0.04315860       0.028
   0.04319915 -0.03681960  0.04315860       0.028
   0.08639831  0.03681960  0.04315860       0.028
   0.08639831 -0.03681960  0.04315860       0.028
   0.12959746  0.03681960  0.04315860       0.028
   0.00000000  0.07363919  0.04315860       0.028
   0.04319915  0.07363919  0.04315860       0.028
   0.04319915 -0.07363919  0.04315860       0.028
   0.08639831  0.07363919  0.04315860       0.028
   0.08639831 -0.07363919  0.04315860       0.028
   0.12959746  0.07363919  0.04315860       0.028
   0.00000000  0.11045879  0.04315860       0.014
   0.04319915  0.11045879  0.04315860       0.028
   0.08639831  0.11045879  0.04315860       0.028
   0.12959746  0.11045879  0.04315860       0.014
 
 k-points in reciprocal lattice and weights: KPOINTS created by Atomic Simulation Env
   0.00000000  0.00000000  0.00000000       0.014
   0.16666667  0.00000000  0.00000000       0.028
   0.33333333  0.00000000  0.00000000       0.028
   0.50000000  0.00000000  0.00000000       0.014
   0.00000000  0.16666667  0.00000000       0.028
   0.16666667  0.16666667  0.00000000       0.028
   0.16666667 -0.16666667  0.00000000       0.028
   0.33333333  0.16666667  0.00000000       0.028
   0.33333333 -0.16666667  0.00000000       0.028
   0.50000000  0.16666667  0.00000000       0.028
   0.00000000  0.33333333  0.00000000       0.028
   0.16666667  0.33333333  0.00000000       0.028
   0.16666667 -0.33333333  0.00000000       0.028
   0.33333333  0.33333333  0.00000000       0.028
   0.33333333 -0.33333333  0.00000000       0.028
   0.50000000  0.33333333  0.00000000       0.028
   0.00000000  0.50000000  0.00000000       0.014
   0.16666667  0.50000000  0.00000000       0.028
   0.33333333  0.50000000  0.00000000       0.028
   0.50000000  0.50000000  0.00000000       0.014
   0.00000000  0.00000000  0.50000000       0.014
   0.16666667  0.00000000  0.50000000       0.028
   0.33333333  0.00000000  0.50000000       0.028
   0.50000000  0.00000000  0.50000000       0.014
   0.00000000  0.16666667  0.50000000       0.028
   0.16666667  0.16666667  0.50000000       0.028
   0.16666667 -0.16666667  0.50000000       0.028
   0.33333333  0.16666667  0.50000000       0.028
   0.33333333 -0.16666667  0.50000000       0.028
   0.50000000  0.16666667  0.50000000       0.028
   0.00000000  0.33333333  0.50000000       0.028
   0.16666667  0.33333333  0.50000000       0.028
   0.16666667 -0.33333333  0.50000000       0.028
   0.33333333  0.33333333  0.50000000       0.028
   0.33333333 -0.33333333  0.50000000       0.028
   0.50000000  0.33333333  0.50000000       0.028
   0.00000000  0.50000000  0.50000000       0.014
   0.16666667  0.50000000  0.50000000       0.028
   0.33333333  0.50000000  0.50000000       0.028
   0.50000000  0.50000000  0.50000000       0.014
 
 position of ions in fractional coordinates (direct lattice) 
   0.58333334  0.79189553  0.13197174
   0.08333330  0.29189552  0.36802823
   0.74999985  0.90375655  0.86802825
   0.24999978  0.40375650  0.63197176
   0.58333332  0.67511788  0.35110993
   0.08333334  0.17511790  0.14889005
   0.74999976  0.02053415  0.64889008
   0.24999984  0.52053418  0.85110995
 
 position of ions in cartesian coordinates  (Angst):
   2.25055845  3.58457458  1.52891595
   0.32150822  1.32128698  4.26367197
   2.89357457  4.09092188 10.05626045
   0.96452420  1.82763412  7.32150435
   2.25055839  3.05597177  4.06767047
   0.32150836  0.79268432  1.72491749
   2.89357421  0.09294938  7.51750603
   0.96452442  2.35623703  9.86025892
 


--------------------------------------------------------------------------------------------------------


 k-point   1 :   0.0000 0.0000 0.0000  plane waves:    3119
 k-point   2 :   0.1667 0.0000 0.0000  plane waves:    3116
 k-point   3 :   0.3333 0.0000 0.0000  plane waves:    3142
 k-point   4 :   0.5000 0.0000 0.0000  plane waves:    3148
 k-point   5 :   0.0000 0.1667 0.0000  plane waves:    3108
 k-point   6 :   0.1667 0.1667 0.0000  plane waves:    3123
 k-point   7 :   0.1667-0.1667 0.0000  plane waves:    3123
 k-point   8 :   0.3333 0.1667 0.0000  plane waves:    3135
 k-point   9 :   0.3333-0.1667 0.0000  plane waves:    3135
 k-point  10 :   0.5000 0.1667 0.0000  plane waves:    3138
 k-point  11 :   0.0000 0.3333 0.0000  plane waves:    3116
 k-point  12 :   0.1667 0.3333 0.0000  plane waves:    3133
 k-point  13 :   0.1667-0.3333 0.0000  plane waves:    3133
 k-point  14 :   0.3333 0.3333 0.0000  plane waves:    3155
 k-point  15 :   0.3333-0.3333 0.0000  plane waves:    3155
 k-point  16 :   0.5000 0.3333 0.0000  plane waves:    3152
 k-point  17 :   0.0000 0.5000 0.0000  plane waves:    3134
 k-point  18 :   0.1667 0.5000 0.0000  plane waves:    3140
 k-point  19 :   0.3333 0.5000 0.0000  plane waves:    3144
 k-point  20 :   0.5000 0.5000 0.0000  plane waves:    3144
 k-point  21 :   0.0000 0.0000 0.5000  plane waves:    3092
 k-point  22 :   0.1667 0.0000 0.5000  plane waves:    3124
 k-point  23 :   0.3333 0.0000 0.5000  plane waves:    3140
 k-point  24 :   0.5000 0.0000 0.5000  plane waves:    3132
 k-point  25 :   0.0000 0.1667 0.5000  plane waves:    3112
 k-point  26 :   0.1667 0.1667 0.5000  plane waves:    3140
 k-point  27 :   0.1667-0.1667 0.5000  plane waves:    3140
 k-point  28 :   0.3333 0.1667 0.5000  plane waves:    3134
 k-point  29 :   0.3333-0.1667 0.5000  plane waves:    3134
 k-point  30 :   0.5000 0.1667 0.5000  plane waves:    3144
 k-point  31 :   0.0000 0.3333 0.5000  plane waves:    3130
 k-point  32 :   0.1667 0.3333 0.5000  plane waves:    3148
 k-point  33 :   0.1667-0.3333 0.5000  plane waves:    3148
 k-point  34 :   0.3333 0.3333 0.5000  plane waves:    3142
 k-point  35 :   0.3333-0.3333 0.5000  plane waves:    3142
 k-point  36 :   0.5000 0.3333 0.5000  plane waves:    3152
 k-point  37 :   0.0000 0.5000 0.5000  plane waves:    3132
 k-point  38 :   0.1667 0.5000 0.5000  plane waves:    3148
 k-point  39 :   0.3333 0.5000 0.5000  plane waves:    3140
 k-point  40 :   0.5000 0.5000 0.5000  plane waves:    3160

 maximum and minimum number of plane-waves per node :       659      606

 maximum number of plane-waves:      3160
 maximum index in each direction: 
   IXMAX=    5   IYMAX=    7   IZMAX=   17
   IXMIN=   -6   IYMIN=   -7   IZMIN=  -18


 parallel 3D FFT for wavefunctions:
    minimum data exchange during FFTs selected (reduces bandwidth)
 parallel 3D FFT for charge:
    minimum data exchange during FFTs selected (reduces bandwidth)


 total amount of memory used by VASP MPI-rank0    37119. kBytes
=======================================================================

   base      :      30000. kBytes
   nonl-proj :       5406. kBytes
   fftplans  :        334. kBytes
   grid      :        503. kBytes
   one-center:         16. kBytes
   wavefun   :        860. kBytes
 
     INWAV:  cpu time      0.0000: real time      0.0001
 Broyden mixing: mesh for mixing (old mesh)
   NGX = 11   NGY = 15   NGZ = 35
  (NGX  = 36   NGY  = 48   NGZ  =108)
  gives a total of   5775 points

 initial charge density was supplied:
 charge density of overlapping atoms calculated
 number of electron      40.0000000 magnetization 
 keeping initial charge density in first step


--------------------------------------------------------------------------------------------------------


 Maximum index for augmentation-charges           389 (set IRDMAX)


--------------------------------------------------------------------------------------------------------


 First call to EWALD:  gamma=   0.302
 Maximum number of real-space cells 4x 3x 2
 Maximum number of reciprocal cells 2x 2x 5

    FEWALD:  cpu time      0.0010: real time      0.0010


--------------------------------------- Ionic step        1  -------------------------------------------




--------------------------------------- Iteration      1(   1)  ---------------------------------------


    POTLOK:  cpu time      0.0085: real time      0.0086
    SETDIJ:  cpu time      0.2182: real time      0.2186
     EDDAV:  cpu time      0.3399: real time      0.3413
       DOS:  cpu time      0.0011: real time      0.0011
    --------------------------------------------
      LOOP:  cpu time      0.5677: real time      0.5696

 eigenvalue-minimisations  :  2560
 total energy-change (2. order) : 0.1314257E+03  (-0.1288905E+04)
 number of electron      40.0000000 magnetization 
 augmentation part       40.0000000 magnetization 

 Free energy of the ion-electron system (eV)
  ---------------------------------------------------
  alpha Z        PSCENC =        83.74935623
  Ewald energy   TEWEN  =     -1382.77284305
  -Hartree energ DENC   =      -146.29268352
  -exchange      EXHF   =         0.00000000
  -V(xc)+E(xc)   XCENC  =       -33.71369791
  PAW double counting   =      1193.78262552    -1080.73714043
  entropy T*S    EENTRO =        -0.00412654
  eigenvalues    EBANDS =        48.92955742
  atomic energy  EATOM  =      1448.48460880
  Solvation  Ediel_sol  =         0.00000000
  ---------------------------------------------------
  free energy    TOTEN  =       131.42565653 eV

  energy without entropy =      131.42978306  energy(sigma->0) =      131.42771979


--------------------------------------------------------------------------------------------------------




--------------------------------------- Iteration      1(   2)  ---------------------------------------


     EDDAV:  cpu time      0.4397: real time      0.4423
       DOS:  cpu time      0.0009: real time      0.0009
    --------------------------------------------
      LOOP:  cpu time      0.4406: real time      0.4431

 eigenvalue-minimisations  :  3760
 total energy-change (2. order) :-0.1567208E+03  (-0.1521513E+03)
 number of electron      40.0000000 magnetization 
 augmentation part       40.0000000 magnetization 

 Free energy of the ion-electron system (eV)
  ---------------------------------------------------
  alpha Z        PSCENC =        83.74935623
  Ewald energy   TEWEN  =     -1382.77284305
  -Hartree energ DENC   =      -146.29268352
  -exchange      EXHF   =         0.00000000
  -V(xc)+E(xc)   XCENC  =       -33.71369791
  PAW double counting   =      1193.78262552    -1080.73714043
  entropy T*S    EENTRO =        -0.00000000
  eigenvalues    EBANDS =      -107.79532911
  atomic energy  EATOM  =      1448.48460880
  Solvation  Ediel_sol  =         0.00000000
  ---------------------------------------------------
  free energy    TOTEN  =       -25.29510347 eV

  energy without entropy =      -25.29510347  energy(sigma->0) =      -25.29510347


--------------------------------------------------------------------------------------------------------




--------------------------------------- Iteration      1(   3)  ---------------------------------------


     EDDAV:  cpu time      0.3682: real time      0.3698
       DOS:  cpu time      0.0005: real time      0.0005
    --------------------------------------------
      LOOP:  cpu time      0.3688: real time      0.3704

 eigenvalue-minimisations  :  3184
 total energy-change (2. order) :-0.8766297E+01  (-0.8748485E+01)
 number of electron      40.0000000 magnetization 
 augmentation part       40.0000000 magnetization 

 Free energy of the ion-electron system (eV)
  ---------------------------------------------------
  alpha Z        PSCENC =        83.74935623
  Ewald energy   TEWEN  =     -1382.77284305
  -Hartree energ DENC   =      -146.29268352
  -exchange      EXHF   =         0.00000000
  -V(xc)+E(xc)   XCENC  =       -33.71369791
  PAW double counting   =      1193.78262552    -1080.73714043
  entropy T*S    EENTRO =        -0.00000000
  eigenvalues    EBANDS =      -116.56162587
  atomic energy  EATOM  =      1448.48460880
  Solvation  Ediel_sol  =         0.00000000
  ---------------------------------------------------
  free energy    TOTEN  =       -34.06140023 eV

  energy without entropy =      -34.06140023  energy(sigma->0) =      -34.06140023


--------------------------------------------------------------------------------------------------------




--------------------------------------- Iteration      1(   4)  ---------------------------------------


     EDDAV:  cpu time      0.4071: real time      0.4094
       DOS:  cpu time      0.0005: real time      0.0005
    --------------------------------------------
      LOOP:  cpu time      0.4076: real time      0.4099

 eigenvalue-minimisations  :  3376
 total energy-change (2. order) :-0.6373229E-01  (-0.6371489E-01)
 number of electron      40.0000000 magnetization 
 augmentation part       40.0000000 magnetization 

 Free energy of the ion-electron system (eV)
  ---------------------------------------------------
  alpha Z        PSCENC =        83.74935623
  Ewald energy   TEWEN  =     -1382.77284305
  -Hartree energ DENC   =      -146.29268352
  -exchange      EXHF   =         0.00000000
  -V(xc)+E(xc)   XCENC  =       -33.71369791
  PAW double counting   =      1193.78262552    -1080.73714043
  entropy T*S    EENTRO =        -0.00000000
  eigenvalues    EBANDS =      -116.62535816
  atomic energy  EATOM  =      1448.48460880
  Solvation  Ediel_sol  =         0.00000000
  ---------------------------------------------------
  free energy    TOTEN  =       -34.12513251 eV

  energy without entropy =      -34.12513251  energy(sigma->0) =      -34.12513251


--------------------------------------------------------------------------------------------------------




--------------------------------------- Iteration      1(   5)  ---------------------------------------


     EDDAV:  cpu time      0.3837: real time      0.3863
       DOS:  cpu time      0.0005: real time      0.0005
    CHARGE:  cpu time      0.0294: real time      0.0295
    MIXING:  cpu time      0.0004: real time      0.0004
    --------------------------------------------
      LOOP:  cpu time      0.4141: real time      0.4167

 eigenvalue-minimisations  :  3120
 total energy-change (2. order) :-0.4762044E-03  (-0.4761951E-03)
 number of electron      39.9999964 magnetization 
 augmentation part       -7.4049387 magnetization 

 Broyden mixing:
  rms(total) = 0.64522E+00    rms(broyden)= 0.64520E+00
  rms(prec ) = 0.72354E+00
  weight for this iteration     100.00

 Free energy of the ion-electron system (eV)
  ---------------------------------------------------
  alpha Z        PSCENC =        83.74935623
  Ewald energy   TEWEN  =     -1382.77284305
  -Hartree energ DENC   =      -146.29268352
  -exchange      EXHF   =         0.00000000
  -V(xc)+E(xc)   XCENC  =       -33.71369791
  PAW double counting   =      1193.78262552    -1080.73714043
  entropy T*S    EENTRO =        -0.00000000
  eigenvalues    EBANDS =      -116.62583436
  atomic energy  EATOM  =      1448.48460880
  Solvation  Ediel_sol  =         0.00000000
  ---------------------------------------------------
  free energy    TOTEN  =       -34.12560872 eV

  energy without entropy =      -34.12560872  energy(sigma->0) =      -34.12560872


--------------------------------------------------------------------------------------------------------




--------------------------------------- Iteration      1(   6)  ---------------------------------------


    POTLOK:  cpu time      0.0078: real time      0.0080
    SETDIJ:  cpu time      0.2211: real time      0.2216
     EDDAV:  cpu time      0.3706: real time      0.3728
       DOS:  cpu time      0.0008: real time      0.0008
    CHARGE:  cpu time      0.0052: real time      0.0098
    MIXING:  cpu time      0.0005: real time      0.0005
    --------------------------------------------
      LOOP:  cpu time      0.6060: real time      0.6136

 eigenvalue-minimisations  :  3248
 total energy-change (2. order) : 0.3789254E+00  (-0.7980890E-01)
 number of electron      39.9999965 magnetization 
 augmentation part       -7.3478331 magnetization 

 Broyden mixing:
  rms(total) = 0.40717E+00    rms(broyden)= 0.40717E+00
  rms(prec ) = 0.42723E+00
  weight for this iteration     100.00

 eigenvalues of (default mixing * dielectric matrix)
  average eigenvalue GAMMA=   2.1862
  2.1862

 Free energy of the ion-electron system (eV)
  ---------------------------------------------------
  alpha Z        PSCENC =        83.74935623
  Ewald energy   TEWEN  =     -1382.77284305
  -Hartree energ DENC   =      -152.33078961
  -exchange      EXHF   =         0.00000000
  -V(xc)+E(xc)   XCENC  =       -33.09220093
  PAW double counting   =      1455.84734390    -1343.11845913
  entropy T*S    EENTRO =        -0.00000018
  eigenvalues    EBANDS =      -110.51369934
  atomic energy  EATOM  =      1448.48460880
  Solvation  Ediel_sol  =         0.00000000
  ---------------------------------------------------
  free energy    TOTEN  =       -33.74668331 eV

  energy without entropy =      -33.74668312  energy(sigma->0) =      -33.74668322


--------------------------------------------------------------------------------------------------------




--------------------------------------- Iteration      1(   7)  ---------------------------------------


    POTLOK:  cpu time      0.0128: real time      0.0130
    SETDIJ:  cpu time      0.2097: real time      0.2105
     EDDAV:  cpu time      0.3583: real time      0.3599
       DOS:  cpu time      0.0009: real time      0.0009
    CHARGE:  cpu time      0.0054: real time      0.0054
    MIXING:  cpu time      0.0004: real time      0.0005
    --------------------------------------------
      LOOP:  cpu time      0.5875: real time      0.5902

 eigenvalue-minimisations  :  3024
 total energy-change (2. order) : 0.8757806E-02  (-0.2236031E-01)
 number of electron      39.9999966 magnetization 
 augmentation part       -7.3317526 magnetization 

 Broyden mixing:
  rms(total) = 0.12791E+00    rms(broyden)= 0.12790E+00
  rms(prec ) = 0.13629E+00
  weight for this iteration     100.00

 eigenvalues of (default mixing * dielectric matrix)
  average eigenvalue GAMMA=   1.7785
  1.1861  2.3708

 Free energy of the ion-electron system (eV)
  ---------------------------------------------------
  alpha Z        PSCENC =        83.74935623
  Ewald energy   TEWEN  =     -1382.77284305
  -Hartree energ DENC   =      -155.18081130
  -exchange      EXHF   =         0.00000000
  -V(xc)+E(xc)   XCENC  =       -32.60489590
  PAW double counting   =      1780.26172797    -1667.76710296
  entropy T*S    EENTRO =        -0.00000204
  eigenvalues    EBANDS =      -107.90796326
  atomic energy  EATOM  =      1448.48460880
  Solvation  Ediel_sol  =         0.00000000
  ---------------------------------------------------
  free energy    TOTEN  =       -33.73792550 eV

  energy without entropy =      -33.73792347  energy(sigma->0) =      -33.73792448


--------------------------------------------------------------------------------------------------------




--------------------------------------- Iteration      1(   8)  ---------------------------------------


    POTLOK:  cpu time      0.0075: real time      0.0077
    SETDIJ:  cpu time      0.2182: real time      0.2187
     EDDAV:  cpu time      0.4108: real time      0.4129
       DOS:  cpu time      0.0008: real time      0.0008
    CHARGE:  cpu time      0.0055: real time      0.0055
    MIXING:  cpu time      0.0026: real time      0.0026
    --------------------------------------------
      LOOP:  cpu time      0.6455: real time      0.6482

 eigenvalue-minimisations  :  3216
 total energy-change (2. order) : 0.1034079E-02  (-0.2203532E-02)
 number of electron      39.9999966 magnetization 
 augmentation part       -7.3393105 magnetization 

 Broyden mixing:
  rms(total) = 0.18282E-01    rms(broyden)= 0.18282E-01
  rms(prec ) = 0.21988E-01
  weight for this iteration     100.00

 eigenvalues of (default mixing * dielectric matrix)
  average eigenvalue GAMMA=   1.6953
  2.5192  1.2834  1.2834

 Free energy of the ion-electron system (eV)
  ---------------------------------------------------
  alpha Z        PSCENC =        83.74935623
  Ewald energy   TEWEN  =     -1382.77284305
  -Hartree energ DENC   =      -155.37568970
  -exchange      EXHF   =         0.00000000
  -V(xc)+E(xc)   XCENC  =       -32.45969004
  PAW double counting   =      1915.77257287    -1803.33651153
  entropy T*S    EENTRO =        -0.00000098
  eigenvalues    EBANDS =      -107.79869401
  atomic energy  EATOM  =      1448.48460880
  Solvation  Ediel_sol  =         0.00000000
  ---------------------------------------------------
  free energy    TOTEN  =       -33.73689142 eV

  energy without entropy =      -33.73689044  energy(sigma->0) =      -33.73689093


--------------------------------------------------------------------------------------------------------




--------------------------------------- Iteration      1(   9)  ---------------------------------------


    POTLOK:  cpu time      0.0077: real time      0.0079
    SETDIJ:  cpu time      0.2169: real time      0.2174
     EDDAV:  cpu time      0.3890: real time      0.3908
       DOS:  cpu time      0.0009: real time      0.0009
    CHARGE:  cpu time      0.0100: real time      0.0100
    MIXING:  cpu time      0.0005: real time      0.0005
    --------------------------------------------
      LOOP:  cpu time      0.6251: real time      0.6275

 eigenvalue-minimisations  :  3280
 total energy-change (2. order) :-0.4749938E-03  (-0.3375605E-03)
 number of electron      39.9999966 magnetization 
 augmentation part       -7.3378148 magnetization 

 Broyden mixing:
  rms(total) = 0.69661E-02    rms(broyden)= 0.69661E-02
  rms(prec ) = 0.77376E-02
  weight for this iteration     100.00

 eigenvalues of (default mixing * dielectric matrix)
  average eigenvalue GAMMA=   1.7524
  2.3303  2.3303  1.1745  1.1745

 Free energy of the ion-electron system (eV)
  ---------------------------------------------------
  alpha Z        PSCENC =        83.74935623
  Ewald energy   TEWEN  =     -1382.77284305
  -Hartree energ DENC   =      -155.75325652
  -exchange      EXHF   =         0.00000000
  -V(xc)+E(xc)   XCENC  =       -32.41378422
  PAW double counting   =      1931.72811359    -1819.30258497
  entropy T*S    EENTRO =        -0.00000117
  eigenvalues    EBANDS =      -107.45697511
  atomic energy  EATOM  =      1448.48460880
  Solvation  Ediel_sol  =         0.00000000
  ---------------------------------------------------
  free energy    TOTEN  =       -33.73736642 eV

  energy without entropy =      -33.73736524  energy(sigma->0) =      -33.73736583


--------------------------------------------------------------------------------------------------------




--------------------------------------- Iteration      1(  10)  ---------------------------------------


    POTLOK:  cpu time      0.0123: real time      0.0125
    SETDIJ:  cpu time      0.2131: real time      0.2137
     EDDAV:  cpu time      0.3714: real time      0.3733
       DOS:  cpu time      0.0008: real time      0.0008
    CHARGE:  cpu time      0.0053: real time      0.0054
    MIXING:  cpu time      0.0005: real time      0.0005
    --------------------------------------------
      LOOP:  cpu time      0.6034: real time      0.6062

 eigenvalue-minimisations  :  3216
 total energy-change (2. order) :-0.1494302E-03  (-0.3025622E-04)
 number of electron      39.9999966 magnetization 
 augmentation part       -7.3377143 magnetization 

 Broyden mixing:
  rms(total) = 0.25768E-02    rms(broyden)= 0.25768E-02
  rms(prec ) = 0.30860E-02
  weight for this iteration     100.00

 eigenvalues of (default mixing * dielectric matrix)
  average eigenvalue GAMMA=   1.7513
  2.7373  2.4200  1.1398  1.2296  1.2296

 Free energy of the ion-electron system (eV)
  ---------------------------------------------------
  alpha Z        PSCENC =        83.74935623
  Ewald energy   TEWEN  =     -1382.77284305
  -Hartree energ DENC   =      -155.79662271
  -exchange      EXHF   =         0.00000000
  -V(xc)+E(xc)   XCENC  =       -32.40985022
  PAW double counting   =      1924.01149749    -1811.58012811
  entropy T*S    EENTRO =        -0.00000107
  eigenvalues    EBANDS =      -107.42353321
  atomic energy  EATOM  =      1448.48460880
  Solvation  Ediel_sol  =         0.00000000
  ---------------------------------------------------
  free energy    TOTEN  =       -33.73751585 eV

  energy without entropy =      -33.73751478  energy(sigma->0) =      -33.73751531


--------------------------------------------------------------------------------------------------------




--------------------------------------- Iteration      1(  11)  ---------------------------------------


    POTLOK:  cpu time      0.0076: real time      0.0077
    SETDIJ:  cpu time      0.2179: real time      0.2184
     EDDAV:  cpu time      0.3855: real time      0.3874
       DOS:  cpu time      0.0009: real time      0.0010
    CHARGE:  cpu time      0.0054: real time      0.0055
    MIXING:  cpu time      0.0005: real time      0.0005
    --------------------------------------------
      LOOP:  cpu time      0.6178: real time      0.6204

 eigenvalue-minimisations  :  3200
 total energy-change (2. order) :-0.3779691E-04  (-0.4499790E-05)
 number of electron      39.9999966 magnetization 
 augmentation part       -7.3378441 magnetization 

 Broyden mixing:
  rms(total) = 0.12049E-02    rms(broyden)= 0.12048E-02
  rms(prec ) = 0.13369E-02
  weight for this iteration     100.00

 eigenvalues of (default mixing * dielectric matrix)
  average eigenvalue GAMMA=   1.7185
  2.4305  2.3088  2.3088  1.1798  1.1798  0.9032

 Free energy of the ion-electron system (eV)
  ---------------------------------------------------
  alpha Z        PSCENC =        83.74935623
  Ewald energy   TEWEN  =     -1382.77284305
  -Hartree energ DENC   =      -155.83349350
  -exchange      EXHF   =         0.00000000
  -V(xc)+E(xc)   XCENC  =       -32.40235269
  PAW double counting   =      1926.05726909    -1813.62649842
  entropy T*S    EENTRO =        -0.00000104
  eigenvalues    EBANDS =      -107.39359907
  atomic energy  EATOM  =      1448.48460880
  Solvation  Ediel_sol  =         0.00000000
  ---------------------------------------------------
  free energy    TOTEN  =       -33.73755364 eV

  energy without entropy =      -33.73755260  energy(sigma->0) =      -33.73755312


--------------------------------------------------------------------------------------------------------




--------------------------------------- Iteration      1(  12)  ---------------------------------------


    POTLOK:  cpu time      0.0077: real time      0.0078
    SETDIJ:  cpu time      0.2146: real time      0.2152
     EDDAV:  cpu time      0.4542: real time      0.4559
       DOS:  cpu time      0.0008: real time      0.0008
    CHARGE:  cpu time      0.0056: real time      0.0056
    MIXING:  cpu time      0.0006: real time      0.0006
    --------------------------------------------
      LOOP:  cpu time      0.6833: real time      0.6859

 eigenvalue-minimisations  :  3392
 total energy-change (2. order) :-0.1831795E-05  (-0.6234511E-06)
 number of electron      39.9999966 magnetization 
 augmentation part       -7.3377316 magnetization 

 Broyden mixing:
  rms(total) = 0.31448E-03    rms(broyden)= 0.31448E-03
  rms(prec ) = 0.38107E-03
  weight for this iteration     100.00

 eigenvalues of (default mixing * dielectric matrix)
  average eigenvalue GAMMA=   1.7073
  2.9472  2.4342  2.0282  0.9733  1.2744  1.1468  1.1468

 Free energy of the ion-electron system (eV)
  ---------------------------------------------------
  alpha Z        PSCENC =        83.74935623
  Ewald energy   TEWEN  =     -1382.77284305
  -Hartree energ DENC   =      -155.84781932
  -exchange      EXHF   =         0.00000000
  -V(xc)+E(xc)   XCENC  =       -32.40132406
  PAW double counting   =      1925.47164028    -1813.04078060
  entropy T*S    EENTRO =        -0.00000106
  eigenvalues    EBANDS =      -107.38039269
  atomic energy  EATOM  =      1448.48460880
  Solvation  Ediel_sol  =         0.00000000
  ---------------------------------------------------
  free energy    TOTEN  =       -33.73755547 eV

  energy without entropy =      -33.73755442  energy(sigma->0) =      -33.73755495


--------------------------------------------------------------------------------------------------------




--------------------------------------- Iteration      1(  13)  ---------------------------------------


    POTLOK:  cpu time      0.0077: real time      0.0078
    SETDIJ:  cpu time      0.2181: real time      0.2186
     EDDAV:  cpu time      0.2985: real time      0.3004
       DOS:  cpu time      0.0009: real time      0.0009
    --------------------------------------------
      LOOP:  cpu time      0.5250: real time      0.5277

 eigenvalue-minimisations  :  2256
 total energy-change (2. order) :-0.7741486E-06  (-0.1493193E-06)
 number of electron      39.9999966 magnetization 
 augmentation part       -7.3377316 magnetization 

 Free energy of the ion-electron system (eV)
  ---------------------------------------------------
  alpha Z        PSCENC =        83.74935623
  Ewald energy   TEWEN  =     -1382.77284305
  -Hartree energ DENC   =      -155.85283481
  -exchange      EXHF   =         0.00000000
  -V(xc)+E(xc)   XCENC  =       -32.40069365
  PAW double counting   =      1925.33452415    -1812.90348503
  entropy T*S    EENTRO =        -0.00000105
  eigenvalues    EBANDS =      -107.37618783
  atomic energy  EATOM  =      1448.48460880
  Solvation  Ediel_sol  =         0.00000000
  ---------------------------------------------------
  free energy    TOTEN  =       -33.73755625 eV

  energy without entropy =      -33.73755520  energy(sigma->0) =      -33.73755572


--------------------------------------------------------------------------------------------------------




 average (electrostatic) potential at core
  the test charge radii are     1.1631  1.0808
  (the norm of the test charge is              1.0000)
       1 -33.8230       2 -33.8230       3 -33.8230       4 -33.8230       5 -55.3210
       6 -55.3210       7 -55.3211       8 -55.3211
 
 
 
 E-fermi :   2.9799     XC(G=0):  -9.0535     alpha+bet : -8.3433

 Fermi energy:         2.9798827694

 k-point     1 :       0.0000    0.0000    0.0000
  band No.  band energies     occupation 
      1     -11.2273      2.00000
      2     -11.0218      2.00000
      3      -9.9548      2.00000
      4      -9.6587      2.00000
      5      -5.0945      2.00000
      6      -4.4092      2.00000
      7      -3.1211      2.00000
      8      -2.6115      2.00000
      9      -2.0603      2.00000
     10      -0.7247      2.00000
     11      -0.4030      2.00000
     12      -0.3566      2.00000
     13      -0.0480      2.00000
     14       0.0746      2.00000
     15       0.9890      2.00000
     16       1.2070      2.00000
     17       1.3993      2.00000
     18       1.7124      2.00000
     19       2.4243      2.00000
     20       2.5246      2.00000
     21       3.1087      0.00027
     22       5.4319      0.00000
     23       5.5283      0.00000
     24       5.6902      0.00000
     25       6.0387      0.00000
     26       6.6308      0.00000
     27       6.8094      0.00000
     28       7.1547      0.00000
     29       7.4290      0.00000
     30       8.1971      0.00000
     31       8.3978      0.00000
     32       9.0224      0.00000

 k-point     2 :       0.1667    0.0000    0.0000
  band No.  band energies     occupation 
      1     -11.0415      2.00000
      2     -10.8436      2.00000
      3      -9.8515      2.00000
      4      -9.5867      2.00000
      5      -5.3233      2.00000
      6      -4.6320      2.00000
      7      -3.5708      2.00000
      8      -3.0121      2.00000
      9      -1.9138      2.00000
     10      -0.6248      2.00000
     11      -0.3801      2.00000
     12      -0.2790      2.00000
     13      -0.2334      2.00000
     14       0.0328      2.00000
     15       0.7155      2.00000
     16       1.1246      2.00000
     17       1.5051      2.00000
     18       1.9270      2.00000
     19       2.0648      2.00000
     20       2.5493      2.00000
     21       3.3574      0.00000
     22       5.0989      0.00000
     23       5.5789      0.00000
     24       6.1613      0.00000
     25       6.1698      0.00000
     26       6.2750      0.00000
     27       6.3947      0.00000
     28       7.1458      0.00000
     29       7.3929      0.00000
     30       7.4403      0.00000
     31       7.5185      0.00000
     32       8.9188      0.00000

 k-point     3 :       0.3333    0.0000    0.0000
  band No.  band energies     occupation 
      1     -10.5392      2.00000
      2     -10.3660      2.00000
      3      -9.7058      2.00000
      4      -9.5274      2.00000
      5      -5.7626      2.00000
      6      -5.0429      2.00000
      7      -4.6823      2.00000
      8      -4.0170      2.00000
      9      -1.3538      2.00000
     10      -0.5556      2.00000
     11      -0.2918      2.00000
     12       0.0816      2.00000
     13       0.1583      2.00000
     14       0.5050      2.00000
     15       0.6685      2.00000
     16       1.0357      2.00000
     17       1.3196      2.00000
     18       1.7026      2.00000
     19       2.1662      2.00000
     20       2.3246      2.00000
     21       3.9041      0.00000
     22       3.9404      0.00000
     23       4.3948      0.00000
     24       5.0675      0.00000
     25       5.2177      0.00000
     26       5.3639      0.00000
     27       5.6411      0.00000
     28       6.1758      0.00000
     29       6.4643      0.00000
     30       6.6235      0.00000
     31       7.4214      0.00000
     32       8.5403      0.00000

 k-point     4 :       0.5000    0.0000    0.0000
  band No.  band energies     occupation 
      1      -9.9455      2.00000
      2      -9.9455      2.00000
      3      -9.8065      2.00000
      4      -9.8065      2.00000
      5      -5.6259      2.00000
      6      -5.6259      2.00000
      7      -4.8998      2.00000
      8      -4.8998      2.00000
      9      -0.5973      2.00000
     10      -0.5973      2.00000
     11       0.1507      2.00000
     12       0.1507      2.00000
     13       0.4826      2.00000
     14       0.4826      2.00000
     15       0.9386      2.00000
     16       0.9386      2.00000
     17       1.2835      2.00000
     18       1.2835      2.00000
     19       2.0837      2.00000
     20       2.0837      2.00000
     21       3.9036      0.00000
     22       3.9036      0.00000
     23       4.4722      0.00000
     24       4.4722      0.00000
     25       4.9413      0.00000
     26       4.9413      0.00000
     27       5.1246      0.00000
     28       5.1246      0.00000
     29       5.5736      0.00000
     30       5.5736      0.00000
     31       7.8903      0.00000
     32       7.8903      0.00000

 k-point     5 :       0.0000    0.1667    0.0000
  band No.  band energies     occupation 
      1     -11.1105      2.00000
      2     -10.9172      2.00000
      3      -9.9604      2.00000
      4      -9.7197      2.00000
      5      -5.3060      2.00000
      6      -4.6560      2.00000
      7      -3.7512      2.00000
      8      -3.0612      2.00000
      9      -1.8708      2.00000
     10      -0.2897      2.00000
     11      -0.0364      2.00000
     12       0.0668      2.00000
     13       0.1174      2.00000
     14       0.2199      2.00000
     15       1.2177      2.00000
     16       1.3780      2.00000
     17       1.6175      2.00000
     18       1.6678      2.00000
     19       2.0606      2.00000
     20       2.6166      2.00000
     21       3.5457      0.00000
     22       5.0417      0.00000
     23       5.5020      0.00000
     24       5.5906      0.00000
     25       5.6904      0.00000
     26       6.1868      0.00000
     27       6.3955      0.00000
     28       7.1470      0.00000
     29       7.1742      0.00000
     30       7.6070      0.00000
     31       7.8236      0.00000
     32       8.9093      0.00000

 k-point     6 :       0.1667    0.1667    0.0000
  band No.  band energies     occupation 
      1     -10.9288      2.00000
      2     -10.7462      2.00000
      3      -9.8548      2.00000
      4      -9.6459      2.00000
      5      -5.4034      2.00000
      6      -4.7540      2.00000
      7      -4.0001      2.00000
      8      -3.2551      2.00000
      9      -1.7023      2.00000
     10      -1.0527      2.00000
     11      -0.7884      2.00000
     12      -0.2403      2.00000
     13       0.4804      2.00000
     14       0.5893      2.00000
     15       0.8361      2.00000
     16       0.8493      2.00000
     17       1.5403      2.00000
     18       2.0298      2.00000
     19       2.1447      2.00000
     20       2.6877      2.00000
     21       3.7330      0.00000
     22       4.8206      0.00000
     23       5.0297      0.00000
     24       5.5777      0.00000
     25       6.0079      0.00000
     26       6.4270      0.00000
     27       6.7066      0.00000
     28       6.8579      0.00000
     29       7.1482      0.00000
     30       7.4246      0.00000
     31       7.4453      0.00000
     32       8.9368      0.00000

 k-point     7 :       0.1667   -0.1667    0.0000
  band No.  band energies     occupation 
      1     -10.9317      2.00000
      2     -10.7433      2.00000
      3      -9.8607      2.00000
      4      -9.6391      2.00000
      5      -5.4315      2.00000
      6      -4.7237      2.00000
      7      -3.8802      2.00000
      8      -3.4073      2.00000
      9      -1.7261      2.00000
     10      -0.9503      2.00000
     11      -0.9278      2.00000
     12      -0.1755      2.00000
     13       0.5105      2.00000
     14       0.6457      2.00000
     15       0.8183      2.00000
     16       0.8666      2.00000
     17       1.7411      2.00000
     18       1.8975      2.00000
     19       2.2748      2.00000
     20       2.3538      2.00000
     21       3.6949      0.00000
     22       4.8210      0.00000
     23       5.1638      0.00000
     24       5.4003      0.00000
     25       6.0736      0.00000
     26       6.4982      0.00000
     27       6.6013      0.00000
     28       7.1159      0.00000
     29       7.2005      0.00000
     30       7.4569      0.00000
     31       7.5175      0.00000
     32       8.6057      0.00000

 k-point     8 :       0.3333    0.1667    0.0000
  band No.  band energies     occupation 
      1     -10.4457      2.00000
      2     -10.2916      2.00000
      3      -9.6993      2.00000
      4      -9.5606      2.00000
      5      -5.6639      2.00000
      6      -4.9971      2.00000
      7      -4.7644      2.00000
      8      -4.0285      2.00000
      9      -1.2586      2.00000
     10      -1.2284      2.00000
     11      -1.1056      2.00000
     12      -0.3005      2.00000
     13       0.2934      2.00000
     14       0.4983      2.00000
     15       0.5090      2.00000
     16       0.9501      2.00000
     17       1.2573      2.00000
     18       1.6097      2.00000
     19       1.7775      2.00000
     20       2.5886      2.00000
     21       3.8558      0.00000
     22       4.6311      0.00000
     23       4.7196      0.00000
     24       5.0600      0.00000
     25       5.3006      0.00000
     26       5.9556      0.00000
     27       6.2830      0.00000
     28       6.5595      0.00000
     29       6.6273      0.00000
     30       7.5111      0.00000
     31       7.8651      0.00000
     32       8.6820      0.00000

 k-point     9 :       0.3333   -0.1667    0.0000
  band No.  band energies     occupation 
      1     -10.4520      2.00000
      2     -10.2853      2.00000
      3      -9.7087      2.00000
      4      -9.5495      2.00000
      5      -5.7122      2.00000
      6      -4.9447      2.00000
      7      -4.6667      2.00000
      8      -4.1413      2.00000
      9      -1.2634      2.00000
     10      -1.2402      2.00000
     11      -1.1677      2.00000
     12      -0.2615      2.00000
     13       0.2139      2.00000
     14       0.5237      2.00000
     15       0.8251      2.00000
     16       0.8818      2.00000
     17       1.2020      2.00000
     18       1.6961      2.00000
     19       1.9792      2.00000
     20       2.1095      2.00000
     21       3.8622      0.00000
     22       4.7526      0.00000
     23       4.7727      0.00000
     24       4.9259      0.00000
     25       5.1436      0.00000
     26       5.8170      0.00000
     27       6.2131      0.00000
     28       6.9032      0.00000
     29       7.3098      0.00000
     30       7.7192      0.00000
     31       7.8519      0.00000
     32       7.8683      0.00000

 k-point    10 :       0.5000    0.1667    0.0000
  band No.  band energies     occupation 
      1      -9.9027      2.00000
      2      -9.8987      2.00000
      3      -9.7767      2.00000
      4      -9.7734      2.00000
      5      -5.5675      2.00000
      6      -5.5114      2.00000
      7      -4.8639      2.00000
      8      -4.8039      2.00000
      9      -0.8471      2.00000
     10      -0.7598      2.00000
     11      -0.5196      2.00000
     12      -0.4919      2.00000
     13      -0.1135      2.00000
     14       0.1866      2.00000
     15       0.3041      2.00000
     16       0.3513      2.00000
     17       1.3094      2.00000
     18       1.3562      2.00000
     19       1.9744      2.00000
     20       2.2764      2.00000
     21       4.0770      0.00000
     22       4.0808      0.00000
     23       4.8188      0.00000
     24       4.9269      0.00000
     25       5.5177      0.00000
     26       5.9029      0.00000
     27       6.0659      0.00000
     28       6.1677      0.00000
     29       6.5601      0.00000
     30       6.5985      0.00000
     31       7.2553      0.00000
     32       8.0130      0.00000

 k-point    11 :       0.0000    0.3333    0.0000
  band No.  band energies     occupation 
      1     -10.7868      2.00000
      2     -10.6370      2.00000
      3     -10.0420      2.00000
      4      -9.9456      2.00000
      5      -5.5634      2.00000
      6      -4.9101      2.00000
      7      -4.7119      2.00000
      8      -3.9767      2.00000
      9      -1.3610      2.00000
     10       0.2343      2.00000
     11       0.4545      2.00000
     12       0.5416      2.00000
     13       0.6176      2.00000
     14       0.8369      2.00000
     15       1.2116      2.00000
     16       1.2992      2.00000
     17       1.3246      2.00000
     18       2.2729      2.00000
     19       2.5749      2.00000
     20       2.8449      1.99987
     21       4.0473      0.00000
     22       4.2503      0.00000
     23       4.6093      0.00000
     24       5.2476      0.00000
     25       5.5719      0.00000
     26       5.6026      0.00000
     27       5.8026      0.00000
     28       6.3209      0.00000
     29       6.4952      0.00000
     30       6.7641      0.00000
     31       7.6362      0.00000
     32       8.7247      0.00000

 k-point    12 :       0.1667    0.3333    0.0000
  band No.  band energies     occupation 
      1     -10.6211      2.00000
      2     -10.4850      2.00000
      3      -9.9293      2.00000
      4      -9.8528      2.00000
      5      -5.4980      2.00000
      6      -4.8601      2.00000
      7      -4.7313      2.00000
      8      -3.9613      2.00000
      9      -1.1769      2.00000
     10      -1.0428      2.00000
     11      -0.7328      2.00000
     12      -0.1703      2.00000
     13       0.2032      2.00000
     14       0.3717      2.00000
     15       0.7875      2.00000
     16       1.3941      2.00000
     17       1.9021      2.00000
     18       1.9176      2.00000
     19       2.2994      2.00000
     20       2.6650      2.00000
     21       4.1960      0.00000
     22       4.9038      0.00000
     23       5.1833      0.00000
     24       5.4174      0.00000
     25       5.4342      0.00000
     26       6.0648      0.00000
     27       6.3851      0.00000
     28       6.7937      0.00000
     29       6.9361      0.00000
     30       7.5480      0.00000
     31       7.6748      0.00000
     32       8.7534      0.00000

 k-point    13 :       0.1667   -0.3333    0.0000
  band No.  band energies     occupation 
      1     -10.6272      2.00000
      2     -10.4789      2.00000
      3      -9.9388      2.00000
      4      -9.8424      2.00000
      5      -5.5361      2.00000
      6      -4.8222      2.00000
      7      -4.6504      2.00000
      8      -4.0520      2.00000
      9      -1.2427      2.00000
     10      -0.9167      2.00000
     11      -0.8954      2.00000
     12      -0.0227      2.00000
     13       0.0752      2.00000
     14       0.5977      2.00000
     15       0.7618      2.00000
     16       1.4296      2.00000
     17       1.7079      2.00000
     18       2.0225      2.00000
     19       2.3229      2.00000
     20       2.5406      2.00000
     21       4.1977      0.00000
     22       4.8422      0.00000
     23       5.2926      0.00000
     24       5.3409      0.00000
     25       5.5285      0.00000
     26       5.8037      0.00000
     27       6.4407      0.00000
     28       6.8951      0.00000
     29       7.2778      0.00000
     30       7.5117      0.00000
     31       7.8443      0.00000
     32       8.2427      0.00000

 k-point    14 :       0.3333    0.3333    0.0000
  band No.  band energies     occupation 
      1     -10.2023      2.00000
      2     -10.0969      2.00000
      3      -9.7346      2.00000
      4      -9.6744      2.00000
      5      -5.4429      2.00000
      6      -4.9575      2.00000
      7      -4.8377      2.00000
      8      -4.2033      2.00000
      9      -1.8286      2.00000
     10      -1.5771      2.00000
     11      -1.0657      2.00000
     12      -0.8299      2.00000
     13      -0.6585      2.00000
     14       0.0775      2.00000
     15       0.1837      2.00000
     16       0.5625      2.00000
     17       0.7180      2.00000
     18       1.5842      2.00000
     19       1.6671      2.00000
     20       2.5767      2.00000
     21       4.1697      0.00000
     22       5.3809      0.00000
     23       5.4260      0.00000
     24       6.0767      0.00000
     25       6.4280      0.00000
     26       6.6711      0.00000
     27       6.7154      0.00000
     28       7.4161      0.00000
     29       7.7096      0.00000
     30       8.1802      0.00000
     31       8.2780      0.00000
     32       9.0489      0.00000

 k-point    15 :       0.3333   -0.3333    0.0000
  band No.  band energies     occupation 
      1     -10.2159      2.00000
      2     -10.0837      2.00000
      3      -9.7460      2.00000
      4      -9.6613      2.00000
      5      -5.5315      2.00000
      6      -4.8092      2.00000
      7      -4.7421      2.00000
      8      -4.3682      2.00000
      9      -1.7647      2.00000
     10      -1.6805      2.00000
     11      -1.1355      2.00000
     12      -0.8292      2.00000
     13      -0.5720      2.00000
     14      -0.1273      2.00000
     15       0.4024      2.00000
     16       0.7446      2.00000
     17       0.7584      2.00000
     18       1.5101      2.00000
     19       1.9764      2.00000
     20       1.9990      2.00000
     21       4.0766      0.00000
     22       5.5828      0.00000
     23       5.6938      0.00000
     24       5.9128      0.00000
     25       6.1336      0.00000
     26       6.8353      0.00000
     27       7.1653      0.00000
     28       7.6010      0.00000
     29       7.6085      0.00000
     30       7.8136      0.00000
     31       8.6959      0.00000
     32       8.8148      0.00000

 k-point    16 :       0.5000    0.3333    0.0000
  band No.  band energies     occupation 
      1      -9.8082      2.00000
      2      -9.7971      2.00000
      3      -9.7192      2.00000
      4      -9.7094      2.00000
      5      -5.4064      2.00000
      6      -5.2850      2.00000
      7      -4.7633      2.00000
      8      -4.6326      2.00000
      9      -1.4125      2.00000
     10      -1.3572      2.00000
     11      -1.2715      2.00000
     12      -1.2604      2.00000
     13      -0.6780      2.00000
     14      -0.6023      2.00000
     15      -0.2680      2.00000
     16      -0.1348      2.00000
     17       0.7291      2.00000
     18       0.9355      2.00000
     19       1.6885      2.00000
     20       2.3257      2.00000
     21       4.6640      0.00000
     22       4.9104      0.00000
     23       6.1272      0.00000
     24       6.4649      0.00000
     25       6.5385      0.00000
     26       6.6533      0.00000
     27       6.9875      0.00000
     28       7.5055      0.00000
     29       8.0144      0.00000
     30       8.1380      0.00000
     31       8.4844      0.00000
     32       8.5006      0.00000

 k-point    17 :       0.0000    0.5000    0.0000
  band No.  band energies     occupation 
      1     -10.3465      2.00000
      2     -10.3465      2.00000
      3     -10.2902      2.00000
      4     -10.2902      2.00000
      5      -5.3910      2.00000
      6      -5.3910      2.00000
      7      -4.6844      2.00000
      8      -4.6844      2.00000
      9      -0.5991      2.00000
     10      -0.5991      2.00000
     11       0.9296      2.00000
     12       0.9296      2.00000
     13       0.9905      2.00000
     14       0.9905      2.00000
     15       1.2067      2.00000
     16       1.2067      2.00000
     17       2.0956      2.00000
     18       2.0956      2.00000
     19       2.6114      2.00000
     20       2.6115      2.00000
     21       4.3863      0.00000
     22       4.3863      0.00000
     23       4.7835      0.00000
     24       4.7835      0.00000
     25       5.1002      0.00000
     26       5.1002      0.00000
     27       5.7680      0.00000
     28       5.7680      0.00000
     29       6.0156      0.00000
     30       6.0156      0.00000
     31       8.2144      0.00000
     32       8.2144      0.00000

 k-point    18 :       0.1667    0.5000    0.0000
  band No.  band energies     occupation 
      1     -10.2185      2.00000
      2     -10.2091      2.00000
      3     -10.1662      2.00000
      4     -10.1571      2.00000
      5      -5.3236      2.00000
      6      -5.2747      2.00000
      7      -4.6284      2.00000
      8      -4.5794      2.00000
      9      -0.6193      2.00000
     10      -0.6158      2.00000
     11      -0.5283      2.00000
     12      -0.4064      2.00000
     13      -0.2259      2.00000
     14      -0.1856      2.00000
     15       1.0432      2.00000
     16       1.1614      2.00000
     17       1.8243      2.00000
     18       2.1508      2.00000
     19       2.5246      2.00000
     20       2.5426      2.00000
     21       4.5240      0.00000
     22       4.5647      0.00000
     23       5.3580      0.00000
     24       5.5487      0.00000
     25       5.6824      0.00000
     26       5.8756      0.00000
     27       6.6482      0.00000
     28       6.6759      0.00000
     29       7.0110      0.00000
     30       7.1091      0.00000
     31       7.7960      0.00000
     32       8.2167      0.00000

[...]
     32       7.7960      0.00000

 k-point    32 :       0.1667    0.3333    0.5000
  band No.  band energies     occupation 
      1     -10.5588      2.00000
      2     -10.5588      2.00000
      3      -9.8851      2.00000
      4      -9.8851      2.00000
      5      -5.2802      2.00000
      6      -5.2802      2.00000
      7      -4.2791      2.00000
      8      -4.2791      2.00000
      9      -1.0211      2.00000
     10      -1.0211      2.00000
     11      -0.3619      2.00000
     12      -0.3619      2.00000
     13       0.1716      2.00000
     14       0.1716      2.00000
     15       1.0202      2.00000
     16       1.0202      2.00000
     17       1.9525      2.00000
     18       1.9525      2.00000
     19       2.2548      2.00000
     20       2.2548      2.00000
     21       4.9528      0.00000
     22       4.9528      0.00000
     23       5.2136      0.00000
     24       5.2136      0.00000
     25       5.7386      0.00000
     26       5.7386      0.00000
     27       6.5673      0.00000
     28       6.5673      0.00000
     29       7.5118      0.00000
     30       7.5118      0.00000
     31       7.8965      0.00000
     32       7.8965      0.00000

 k-point    33 :       0.1667   -0.3333    0.5000
  band No.  band energies     occupation 
      1     -10.5602      2.00000
      2     -10.5602      2.00000
      3      -9.8833      2.00000
      4      -9.8833      2.00000
      5      -5.2831      2.00000
      6      -5.2831      2.00000
      7      -4.2729      2.00000
      8      -4.2729      2.00000
      9      -0.9939      2.00000
     10      -0.9939      2.00000
     11      -0.4305      2.00000
     12      -0.4305      2.00000
     13       0.1387      2.00000
     14       0.1387      2.00000
     15       1.1258      2.00000
     16       1.1258      2.00000
     17       1.8864      2.00000
     18       1.8864      2.00000
     19       2.3102      2.00000
     20       2.3102      2.00000
     21       4.8587      0.00000
     22       4.8587      0.00000
     23       5.4049      0.00000
     24       5.4049      0.00000
     25       5.7057      0.00000
     26       5.7057      0.00000
     27       6.5069      0.00000
     28       6.5069      0.00000
     29       7.2586      0.00000
     30       7.2586      0.00000
     31       7.9056      0.00000
     32       7.9056      0.00000

 k-point    34 :       0.3333    0.3333    0.5000
  band No.  band energies     occupation 
      1     -10.1539      2.00000
      2     -10.1539      2.00000
      3      -9.7005      2.00000
      4      -9.7005      2.00000
      5      -5.2742      2.00000
      6      -5.2742      2.00000
      7      -4.4602      2.00000
      8      -4.4602      2.00000
      9      -1.7816      2.00000
     10      -1.7816      2.00000
     11      -0.8995      2.00000
     12      -0.8995      2.00000
     13      -0.2477      2.00000
     14      -0.2477      2.00000
     15       0.5045      2.00000
     16       0.5045      2.00000
     17       1.1190      2.00000
     18       1.1190      2.00000
     19       1.7699      2.00000
     20       1.7699      2.00000
     21       5.1086      0.00000
     22       5.1086      0.00000
     23       5.5435      0.00000
     24       5.5435      0.00000
     25       6.8616      0.00000
     26       6.8616      0.00000
     27       7.2841      0.00000
     28       7.2841      0.00000
     29       7.7714      0.00000
     30       7.7714      0.00000
     31       8.6196      0.00000
     32       8.6196      0.00000

 k-point    35 :       0.3333   -0.3333    0.5000
  band No.  band energies     occupation 
      1     -10.1571      2.00000
      2     -10.1571      2.00000
      3      -9.6965      2.00000
      4      -9.6965      2.00000
      5      -5.2835      2.00000
      6      -5.2835      2.00000
      7      -4.4462      2.00000
      8      -4.4462      2.00000
      9      -1.7545      2.00000
     10      -1.7545      2.00000
     11      -0.9821      2.00000
     12      -0.9821      2.00000
     13      -0.2437      2.00000
     14      -0.2437      2.00000
     15       0.5686      2.00000
     16       0.5686      2.00000
     17       1.0303      2.00000
     18       1.0303      2.00000
     19       1.8973      2.00000
     20       1.8973      2.00000
     21       4.9679      0.00000
     22       4.9679      0.00000
     23       5.6194      0.00000
     24       5.6194      0.00000
     25       6.6589      0.00000
     26       6.6589      0.00000
     27       7.4558      0.00000
     28       7.4558      0.00000
     29       7.7460      0.00000
     30       7.7460      0.00000
     31       8.7159      0.00000
     32       8.7159      0.00000

 k-point    36 :       0.5000    0.3333    0.5000
  band No.  band energies     occupation 
      1      -9.7981      2.00000
      2      -9.7981      2.00000
      3      -9.7194      2.00000
      4      -9.7194      2.00000
      5      -5.3339      2.00000
      6      -5.3339      2.00000
      7      -4.7122      2.00000
      8      -4.7122      2.00000
      9      -1.4746      2.00000
     10      -1.4746      2.00000
     11      -1.2752      2.00000
     12      -1.2752      2.00000
     13      -0.5182      2.00000
     14      -0.5182      2.00000
     15      -0.1931      2.00000
     16      -0.1931      2.00000
     17       1.2562      2.00000
     18       1.2562      2.00000
     19       1.3891      2.00000
     20       1.3891      2.00000
     21       4.9808      0.00000
     22       4.9808      0.00000
     23       6.3474      0.00000
     24       6.3474      0.00000
     25       6.5378      0.00000
     26       6.5378      0.00000
     27       7.5621      0.00000
     28       7.5621      0.00000
     29       8.0071      0.00000
     30       8.0071      0.00000
     31       8.4265      0.00000
     32       8.4265      0.00000

 k-point    37 :       0.0000    0.5000    0.5000
  band No.  band energies     occupation 
      1     -10.3246      2.00000
      2     -10.3246      2.00000
      3     -10.3130      2.00000
      4     -10.3130      2.00000
      5      -5.3003      2.00000
      6      -5.3003      2.00000
      7      -4.8164      2.00000
      8      -4.8164      2.00000
      9       0.0110      2.00000
     10       0.0110      2.00000
     11       0.3184      2.00000
     12       0.3184      2.00000
     13       0.9377      2.00000
     14       0.9377      2.00000
     15       0.9928      2.00000
     16       0.9928      2.00000
     17       2.2562      2.00000
     18       2.2562      2.00000
     19       2.6551      2.00000
     20       2.6551      2.00000
     21       4.3641      0.00000
     22       4.3641      0.00000
     23       4.5444      0.00000
     24       4.5444      0.00000
     25       5.7525      0.00000
     26       5.7525      0.00000
     27       5.8359      0.00000
     28       5.8359      0.00000
     29       6.2538      0.00000
     30       6.2538      0.00000
     31       7.4229      0.00000
     32       7.4229      0.00000

 k-point    38 :       0.1667    0.5000    0.5000
  band No.  band energies     occupation 
      1     -10.1926      2.00000
      2     -10.1926      2.00000
      3     -10.1836      2.00000
      4     -10.1836      2.00000
      5      -5.2270      2.00000
      6      -5.2270      2.00000
      7      -4.7086      2.00000
      8      -4.7086      2.00000
      9      -0.5799      2.00000
     10      -0.5799      2.00000
     11      -0.4679      2.00000
     12      -0.4679      2.00000
     13       0.2617      2.00000
     14       0.2617      2.00000
     15       0.5542      2.00000
     16       0.5542      2.00000
     17       2.0086      2.00000
     18       2.0086      2.00000
     19       2.3008      2.00000
     20       2.3008      2.00000
     21       5.1730      0.00000
     22       5.1730      0.00000
     23       5.3961      0.00000
     24       5.3961      0.00000
     25       5.6846      0.00000
     26       5.6846      0.00000
     27       6.8794      0.00000
     28       6.8794      0.00000
     29       7.0247      0.00000
     30       7.0247      0.00000
     31       7.6278      0.00000
     32       7.6278      0.00000

 k-point    39 :       0.3333    0.5000    0.5000
  band No.  band energies     occupation 
      1      -9.9055      2.00000
      2      -9.9055      2.00000
      3      -9.8757      2.00000
      4      -9.8757      2.00000
      5      -5.1742      2.00000
      6      -5.1742      2.00000
      7      -4.5745      2.00000
      8      -4.5745      2.00000
      9      -1.6407      2.00000
     10      -1.6407      2.00000
     11      -1.5436      2.00000
     12      -1.5436      2.00000
     13      -0.1113      2.00000
     14      -0.1113      2.00000
     15       0.1315      2.00000
     16       0.1315      2.00000
     17       1.2101      2.00000
     18       1.2101      2.00000
     19       1.4331      2.00000
     20       1.4331      2.00000
     21       5.1488      0.00000
     22       5.1488      0.00000
     23       6.7778      0.00000
     24       6.7778      0.00000
     25       6.9422      0.00000
     26       6.9422      0.00000
     27       7.6434      0.00000
     28       7.6434      0.00000
     29       8.2916      0.00000
     30       8.2916      0.00000
     31       8.6034      0.00000
     32       8.6034      0.00000

 k-point    40 :       0.5000    0.5000    0.5000
  band No.  band energies     occupation 
      1      -9.7414      2.00000
      2      -9.7414      2.00000
      3      -9.6931      2.00000
      4      -9.6931      2.00000
      5      -5.2438      2.00000
      6      -5.2438      2.00000
      7      -4.6145      2.00000
      8      -4.6145      2.00000
      9      -1.6943      2.00000
     10      -1.6943      2.00000
     11      -1.5749      2.00000
     12      -1.5749      2.00000
     13      -0.8693      2.00000
     14      -0.8693      2.00000
     15      -0.5912      2.00000
     16      -0.5912      2.00000
     17       1.2478      2.00000
     18       1.2478      2.00000
     19       1.4261      2.00000
     20       1.4261      2.00000
     21       4.8541      0.00000
     22       4.8541      0.00000
     23       6.9766      0.00000
     24       6.9766      0.00000
     25       7.5280      0.00000
     26       7.5280      0.00000
     27       7.8545      0.00000
     28       7.8545      0.00000
     29       8.3263      0.00000
     30       8.3263      0.00000
     31       9.2829      0.00000
     32       9.2829      0.00000


--------------------------------------------------------------------------------------------------------


 soft charge-density along one line, spin component            1
         0         1         2         3         4         5         6         7         8         9
 total charge-density along one line
 
 pseudopotential strength for first ion, spin component:            1
 14.623  18.248   0.040   0.044  -0.001   0.073   0.080  -0.001
 18.248  22.785   0.051   0.056  -0.001   0.092   0.101  -0.001
  0.040   0.051   3.242  -0.002   0.000   5.521  -0.004   0.000
  0.044   0.056  -0.002   3.239   0.000  -0.004   5.516   0.000
 -0.001  -0.001   0.000   0.000   3.244   0.000   0.000   5.523
  0.073   0.092   5.521  -0.004   0.000   9.459  -0.007   0.000
  0.080   0.101  -0.004   5.516   0.000  -0.007   9.451   0.000
 -0.001  -0.001   0.000   0.000   5.523   0.000   0.000   9.463
  0.000   0.000  -0.000   0.000   0.006  -0.000   0.000   0.013
 -0.005  -0.006   0.011   0.013   0.000   0.020   0.023   0.000
 -0.004  -0.005  -0.003   0.011  -0.000  -0.007   0.021  -0.000
  0.000   0.000   0.000  -0.000   0.011   0.000  -0.001   0.020
  0.002   0.002  -0.012  -0.000  -0.000  -0.022  -0.000  -0.000
 total augmentation occupancy for first ion, spin component:            1
  2.742  -0.705   0.349   0.330   0.007  -0.066  -0.058  -0.003   0.000  -0.015   0.001  -0.003   0.009
 -0.705   0.658  -0.438  -0.450  -0.003   0.069   0.070   0.001  -0.001   0.009   0.004   0.001  -0.004
  0.349  -0.438   1.232   0.040  -0.001  -0.201   0.006  -0.000  -0.000   0.041  -0.097  -0.000  -0.000
  0.330  -0.450   0.040   1.362  -0.011   0.006  -0.221   0.003   0.001  -0.012   0.091   0.006  -0.004
  0.007  -0.003  -0.001  -0.011   1.243  -0.000   0.003  -0.213   0.146  -0.001   0.002   0.034   0.000
 -0.066   0.069  -0.201   0.006  -0.000   0.037  -0.003   0.000  -0.000  -0.007   0.016   0.000   0.000
 -0.058   0.070   0.006  -0.221   0.003  -0.003   0.041  -0.001   0.000   0.002  -0.016  -0.001   0.001
 -0.003   0.001  -0.000   0.003  -0.213   0.000  -0.001   0.041  -0.025   0.000  -0.000  -0.006  -0.000
  0.000  -0.001  -0.000   0.001   0.146  -0.000   0.000  -0.025   0.031   0.000  -0.000   0.002   0.000
 -0.015   0.009   0.041  -0.012  -0.001  -0.007   0.002   0.000   0.000   0.011  -0.008   0.001   0.001
  0.001   0.004  -0.097   0.091   0.002   0.016  -0.016  -0.000  -0.000  -0.008   0.032  -0.001  -0.002
 -0.003   0.001  -0.000   0.006   0.034   0.000  -0.001  -0.006   0.002   0.001  -0.001   0.009  -0.000
  0.009  -0.004  -0.000  -0.004   0.000   0.000   0.001  -0.000   0.000   0.001  -0.002  -0.000   0.008


------------------------ aborting loop because EDIFF is reached ----------------------------------------


    CHARGE:  cpu time      0.0055: real time      0.0055
    FORLOC:  cpu time      0.0002: real time      0.0002
    FORNL :  cpu time      0.0332: real time      0.0334
    STRESS:  cpu time      0.2798: real time      0.2810
    FORCOR:  cpu time      0.0070: real time      0.0071
    FORHAR:  cpu time      0.0020: real time      0.0020
    MIXING:  cpu time      0.0006: real time      0.0006
    OFIELD:  cpu time      0.0000: real time      0.0000

  FORCE on cell =-STRESS in cart. coord.  units (eV):
  Direction    XX          YY          ZZ          XY          YZ          ZX
  --------------------------------------------------------------------------------------
  Alpha Z    83.74936    83.74936    83.74936
  Ewald    -408.13520  -453.96055  -520.67875     5.25736    -0.00000     0.00000
  Hartree    79.29316    62.03757    14.52665     2.45063    -0.00000     0.00000
  E(xc)    -140.99567  -141.00305  -141.43143     0.03215     0.00000     0.00000
  Local    -232.10285  -175.00681   -64.67767    -8.11414     0.00001    -0.00000
  n-local   240.36512   239.80124   242.10764     0.05712    -0.00000    -0.00000
  augment   -11.39809   -11.77987   -12.17686    -0.04046    -0.00000     0.00000
  Kinetic   389.79590   396.17857   399.10638     0.72656     0.00000    -0.00000
  Fock        0.00000     0.00000     0.00000     0.00000     0.00000     0.00000
  -------------------------------------------------------------------------------------
  Total       0.57173     0.01645     0.52533     0.36920    -0.00000    -0.00000
  in kB       4.52748     0.13030     4.16001     2.92369    -0.00000    -0.00000
  external pressure =        2.94 kB  Pullay stress =        0.00 kB


 VOLUME and BASIS-vectors are now :
 -----------------------------------------------------------------------------
  energy-cutoff  :      360.00
  volume of cell :      202.32
      direct lattice vectors                 reciprocal lattice vectors
     3.858100176  0.000000000  0.000000000     0.259194929  0.000000000  0.000000000
     0.000000000  4.526575088  0.000000000     0.000000000  0.220917577  0.000000000
     0.000000000  0.000000000 11.585176468     0.000000000  0.000000000  0.086317200

  length of vectors
     3.858100176  4.526575088 11.585176468     0.259194929  0.220917577  0.086317200


 FORCES acting on ions
    electron-ion (+dipol)            ewald-force                    non-local-force                 convergence-correction
 -----------------------------------------------------------------------------------------------
   0.320E+00 0.151E+02 0.296E+02   -.230E+00 -.175E+02 -.325E+02   -.462E-01 0.247E+01 0.295E+01   0.561E-04 0.678E-04 -.789E-03
   0.320E+00 0.151E+02 -.296E+02   -.230E+00 -.175E+02 0.325E+02   -.462E-01 0.247E+01 -.295E+01   0.564E-04 0.677E-04 0.790E-03
   -.320E+00 -.151E+02 -.296E+02   0.230E+00 0.175E+02 0.325E+02   0.462E-01 -.247E+01 -.295E+01   -.566E-04 -.674E-04 0.791E-03
   -.320E+00 -.151E+02 0.296E+02   0.230E+00 0.175E+02 -.325E+02   0.462E-01 -.247E+01 0.295E+01   -.562E-04 -.677E-04 -.793E-03
   -.902E-01 -.166E+02 -.375E+02   0.400E-01 0.182E+02 0.393E+02   0.975E-01 -.154E+01 -.181E+01   -.116E-03 -.356E-03 0.106E-02
   -.902E-01 -.166E+02 0.375E+02   0.400E-01 0.182E+02 -.393E+02   0.975E-01 -.154E+01 0.181E+01   -.115E-03 -.355E-03 -.106E-02
   0.902E-01 0.166E+02 0.375E+02   -.400E-01 -.182E+02 -.393E+02   -.975E-01 0.154E+01 0.181E+01   0.114E-03 0.356E-03 -.106E-02
   0.902E-01 0.166E+02 -.375E+02   -.400E-01 -.182E+02 0.393E+02   -.975E-01 0.154E+01 -.181E+01   0.116E-03 0.355E-03 0.106E-02
 -----------------------------------------------------------------------------------------------
   0.369E-05 0.228E-04 -.131E-05   0.495E-14 -.107E-13 -.284E-13   -.166E-05 0.729E-03 -.160E-06   -.166E-05 -.190E-06 0.898E-06
 
 
 POSITION                                       TOTAL-FORCE (eV/Angst)
 -----------------------------------------------------------------------------------
      2.25056      3.58457      1.52892         0.044237      0.024585      0.076656
      0.32151      1.32129      4.26367         0.044237      0.024584     -0.076656
      2.89357      4.09092     10.05626        -0.044238     -0.024672     -0.076654
      0.96452      1.82763      7.32150        -0.044238     -0.024671      0.076654
      2.25056      3.05597      4.06767         0.047112      0.008599     -0.004208
      0.32151      0.79268      1.72492         0.047113      0.008599      0.004208
      2.89357      0.09295      7.51751        -0.047112     -0.008512      0.004586
      0.96452      2.35624      9.86026        -0.047113     -0.008512     -0.004587
 -----------------------------------------------------------------------------------
    total drift:                                0.000000      0.000752     -0.000001


--------------------------------------------------------------------------------------------------------



  FREE ENERGIE OF THE ION-ELECTRON SYSTEM (eV)
  ---------------------------------------------------
  free  energy   TOTEN  =       -33.73755625 eV

  energy  without entropy=      -33.73755520  energy(sigma->0) =      -33.73755572
 


--------------------------------------------------------------------------------------------------------


    POTLOK:  cpu time      0.2257: real time      0.2263


--------------------------------------------------------------------------------------------------------


     LOOP+:  cpu time      7.8584: real time      7.9011
    4ORBIT:  cpu time      0.0000: real time      0.0000

 total amount of memory used by VASP MPI-rank0    37119. kBytes
=======================================================================

   base      :      30000. kBytes
   nonl-proj :       5406. kBytes
   fftplans  :        334. kBytes
   grid      :        503. kBytes
   one-center:         16. kBytes
   wavefun   :        860. kBytes
 
  
  
 General timing and accounting informations for this job:
 ========================================================
  
                  Total CPU time used (sec):        9.456
                            User time (sec):        9.208
                          System time (sec):        0.248
                         Elapsed time (sec):        9.795
  
                   Maximum memory used (kb):      175204.
                   Average memory used (kb):          N/A
  
                          Minor page faults:        21104
                          Major page faults:           54
                 Voluntary context switches:         1859
