 running  160 mpi-ranks, with    1 threads/rank, on   10 nodes
 distrk:  each k-point on   80 cores,    2 groups
 distr:  one band on    5 cores,   16 groups
 vasp.6.4.2 20Jul23 (build Oct 12 2023 10:31:02) complex                         
 POSCAR found type information on POSCAR GeSe
 POSCAR found :  2 types and       8 ions
 Reading from existing POTCAR
 scaLAPACK will be used
 Reading from existing POTCAR
 LDA part: xc-table for Pade appr. of Perdew
 POSCAR, INCAR and KPOINTS ok, starting setup
 FFT: planning ... GRIDC
 FFT: planning ... GRID_SOFT
 FFT: planning ... GRID
 WAVECAR not read
 entering main loop
       N       E                     dE             d eps       ncg     rms          rms(c)
DAV:   1     0.132859881275E+03    0.13286E+03   -0.12886E+04  2560   0.773E+02
DAV:   2    -0.249796297569E+02   -0.15784E+03   -0.15313E+03  3696   0.139E+02
DAV:   3    -0.339996785185E+02   -0.90200E+01   -0.89992E+01  3136   0.386E+01
DAV:   4    -0.340663944140E+02   -0.66716E-01   -0.66696E-01  3312   0.380E+00
DAV:   5    -0.340668794103E+02   -0.48500E-03   -0.48499E-03  3072   0.316E-01    0.649E+00
DAV:   6    -0.336554487772E+02    0.41143E+00   -0.81681E-01  3248   0.305E+00    0.406E+00
DAV:   7    -0.336481749403E+02    0.72738E-02   -0.25537E-01  3264   0.177E+00    0.131E+00
DAV:   8    -0.336471097160E+02    0.10652E-02   -0.29429E-02  3152   0.638E-01    0.172E-01
DAV:   9    -0.336475070950E+02   -0.39738E-03   -0.39714E-03  3168   0.275E-01    0.656E-02
DAV:  10    -0.336477099585E+02   -0.20286E-03   -0.40513E-04  3120   0.874E-02    0.230E-02
DAV:  11    -0.336477543069E+02   -0.44348E-04   -0.53595E-05  3376   0.324E-02    0.125E-02
DAV:  12    -0.336477571718E+02   -0.28649E-05   -0.99868E-06  3296   0.123E-02    0.242E-03
DAV:  13    -0.336477580279E+02   -0.85603E-06   -0.14539E-06  2416   0.509E-03
   1 F= -.33647758E+02 E0= -.33647758E+02  d E =-.205468E-14
