 vasp.6.4.2 20Jul23 (build Oct 12 2023 10:31:02) complex                         
 executed on              LinuxNV date 2024.11.01  21:51:26
 running  128 mpi-ranks, with    1 threads/rank, on    2 nodes
 distrk:  each k-point on   64 cores,    2 groups
 distr:  one band on NCORE=   8 cores,    8 groups


--------------------------------------------------------------------------------------------------------


 INCAR:
   ENCUT = 520.000000
   SIGMA = 0.050000
   EDIFF = 1.00e-06
   ALGO = N
   GGA = PE
   PREC = Accurate
   SYSTEM = 01_AOPT
   ICHARG = 0
   ISMEAR = 0
   ISPIN = 2
   ISTART = 1
   ISYM = -1
   KPAR = 2
   LORBIT = 11
   NBANDS = 220
   NELM = 100
   NELMIN = 5
   NPAR = 8
   LASPH = .TRUE.
   LCHARG = .FALSE.
   LWAVE = .FALSE.
   LREAL = .FALSE.

 POTCAR:    PAW_PBE Ge 05Jan2001                  
 POTCAR:    PAW_PBE Se 06Sep2000                  
 -----------------------------------------------------------------------------
|                                                                             |
|           W    W    AA    RRRRR   N    N  II  N    N   GGGG   !!!           |
|           W    W   A  A   R    R  NN   N  II  NN   N  G    G  !!!           |
|           W    W  A    A  R    R  N N  N  II  N N  N  G       !!!           |
|           W WW W  AAAAAA  RRRRR   N  N N  II  N  N N  G  GGG   !            |
|           WW  WW  A    A  R   R   N   NN  II  N   NN  G    G                |
|           W    W  A    A  R    R  N    N  II  N    N   GGGG   !!!           |
|                                                                             |
|     You use a magnetic or noncollinear calculation, but did not specify     |
|     the initial magnetic moment with the MAGMOM tag. Note that a            |
|     default of 1 will be used for all atoms. This ferromagnetic setup       |
|     may break the symmetry of the crystal, in particular it may rule        |
|     out finding an antiferromagnetic solution. Thence, we recommend         |
|     setting the initial magnetic moment manually or verifying carefully     |
|     that this magnetic setup is desired.                                    |
|                                                                             |
 -----------------------------------------------------------------------------

 POTCAR:    PAW_PBE Ge 05Jan2001                  
   VRHFIN =Ge: s2p2                                                                                 
   LEXCH  = PE                                                                                      
   EATOM  =   104.9960 eV,    7.7170 Ry                                                             
                                                                                                    
   TITEL  = PAW_PBE Ge 05Jan2001                                                                    
   LULTRA =        F    use ultrasoft PP ?                                                          
   IUNSCR =        1    unscreen: 0-lin 1-nonlin 2-no                                               
   RPACOR =    2.170    partial core radius                                                         
   POMASS =   72.610; ZVAL   =    4.000    mass and valenz                                          
   RCORE  =    2.300    outmost cutoff radius                                                       
   RWIGS  =    2.300; RWIGS  =    1.217    wigner-seitz radius (au A)                               
   ENMAX  =  173.807; ENMIN  =  130.355 eV                                                          
   ICORE  =        3    local potential                                                             
   LCOR   =        T    correct aug charges                                                         
   LPAW   =        T    paw PP                                                                      
   EAUG   =  385.843                                                                                
   DEXC   =    0.000                                                                                
   RMAX   =    2.342    core radius for proj-oper                                                   
   RAUG   =    1.300    factor for augmentation sphere                                              
   RDEP   =    2.318    radius for radial grids                                                     
   RDEPT  =    2.103    core radius for aug-charge                                                  
                                                                                                    
   Atomic configuration                                                                             
   10 entries                                                                                       
     n  l   j            E        occ.                                                              
     1  0  0.50    -10959.8463   2.0000                                                             
     2  0  0.50     -1371.6056   2.0000                                                             
     2  1  1.50     -1198.4791   6.0000                                                             
     3  0  0.50      -168.4733   2.0000                                                             
     3  1  1.50      -115.6019   6.0000                                                             
     3  2  2.50       -29.3106  10.0000                                                             
     4  0  0.50       -11.7309   2.0000                                                             
     4  1  0.50        -3.8952   2.0000                                                             
     4  2  1.50        -4.0817   0.0000                                                             
     4  3  2.50        -4.0817   0.0000                                                             
   Description                                                                                      
     l       E           TYP  RCUT    TYP  RCUT                                                     
     0    -11.7309493     23  2.300                                                                 
     0     -7.4578696     23  2.300                                                                 
     1     -3.8952261     23  2.300                                                                 
     1      6.1178114     23  2.300                                                                 
     2     -4.0817478     23  2.300                                                                 
     3     -1.3605826      7  2.300                                                                 
  local pseudopotential read in
  partial core-charges read in
  partial kinetic energy density read in
  atomic valenz-charges read in
  non local Contribution for L=            0  read in
    real space projection operators read in
  non local Contribution for L=            0  read in
    real space projection operators read in
  non local Contribution for L=            1  read in
    real space projection operators read in
  non local Contribution for L=            1  read in
    real space projection operators read in
  non local Contribution for L=            2  read in
    real space projection operators read in
    PAW grid and wavefunctions read in
 
   number of l-projection  operators is LMAX  =            5
   number of lm-projection operators is LMMAX =           13
 
 POTCAR:    PAW_PBE Se 06Sep2000                  
   VRHFIN =Se: s2p4                                                                                 
   LEXCH  = PE                                                                                      
   EATOM  =   257.1286 eV,   18.8984 Ry                                                             
                                                                                                    
   TITEL  = PAW_PBE Se 06Sep2000                                                                    
   LULTRA =        F    use ultrasoft PP ?                                                          
   IUNSCR =        1    unscreen: 0-lin 1-nonlin 2-no                                               
   RPACOR =    1.900    partial core radius                                                         
   POMASS =   78.960; ZVAL   =    6.000    mass and valenz                                          
   RCORE  =    2.100    outmost cutoff radius                                                       
   RWIGS  =    2.200; RWIGS  =    1.164    wigner-seitz radius (au A)                               
   ENMAX  =  211.555; ENMIN  =  158.666 eV                                                          
   ICORE  =        3    local potential                                                             
   LCOR   =        T    correct aug charges                                                         
   LPAW   =        T    paw PP                                                                      
   EAUG   =  446.842                                                                                
   DEXC   =    0.000                                                                                
   RMAX   =    2.147    core radius for proj-oper                                                   
   RAUG   =    1.300    factor for augmentation sphere                                              
   RDEP   =    2.177    radius for radial grids                                                     
   RDEPT  =    1.928    core radius for aug-charge                                                  
                                                                                                    
   Atomic configuration                                                                             
   10 entries                                                                                       
     n  l   j            E        occ.                                                              
     1  0  0.50    -12503.4787   2.0000                                                             
     2  0  0.50     -1606.9547   2.0000                                                             
     2  1  1.50     -1413.3140   6.0000                                                             
     3  0  0.50      -213.4885   2.0000                                                             
     3  1  1.50      -152.9538   6.0000                                                             
     3  2  2.50       -53.1221  10.0000                                                             
     4  0  0.50       -17.2865   2.0000                                                             
     4  1  0.50        -6.5110   4.0000                                                             
     4  2  2.50        -6.8029   0.0000                                                             
     4  3  2.50        -6.8029   0.0000                                                             
   Description                                                                                      
     l       E           TYP  RCUT    TYP  RCUT                                                     
     0    -17.2865377     23  2.100                                                                 
     0    -15.3094411     23  2.100                                                                 
     1     -6.5110275     23  2.100                                                                 
     1     -0.0695192     23  2.100                                                                 
     2     -6.8029130     23  2.100                                                                 
     3     -1.3605826      7  2.100                                                                 
  local pseudopotential read in
  partial core-charges read in
  partial kinetic energy density read in
  atomic valenz-charges read in
  non local Contribution for L=            0  read in
    real space projection operators read in
  non local Contribution for L=            0  read in
    real space projection operators read in
  non local Contribution for L=            1  read in
    real space projection operators read in
  non local Contribution for L=            1  read in
    real space projection operators read in
  non local Contribution for L=            2  read in
    real space projection operators read in
    PAW grid and wavefunctions read in
 
   number of l-projection  operators is LMAX  =            5
   number of lm-projection operators is LMMAX =           13
 
 -----------------------------------------------------------------------------
|                                                                             |
|               ----> ADVICE to this user running VASP <----                  |
|                                                                             |
|     You have a (more or less) 'large supercell' and for larger cells it     |
|     might be more efficient to use real-space projection operators.         |
|     Therefore, try LREAL= Auto in the INCAR file.                           |
|     Mind: For very accurate calculation, you might also keep the            |
|     reciprocal projection scheme (i.e. LREAL=.FALSE.).                      |
|                                                                             |
 -----------------------------------------------------------------------------

  PAW_PBE Ge 05Jan2001                  :
 energy of atom  1       EATOM= -104.9960
 kinetic energy error for atom=    0.0002 (will be added to EATOM!!)
  PAW_PBE Se 06Sep2000                  :
 energy of atom  2       EATOM= -257.1286
 kinetic energy error for atom=    0.0007 (will be added to EATOM!!)
 
 
 POSCAR: Ge Se
  positions in cartesian coordinates
  No initial velocities read in
 exchange correlation table for  LEXCH =        8
   RHO(1)=    0.500       N(1)  =     2000
   RHO(2)=  100.500       N(2)  =     4000
 


--------------------------------------------------------------------------------------------------------


 ion  position               nearest neighbor table
   1  0.090  0.044  0.108-  45 2.54  54 2.61
   2  0.261  0.852  0.365-  67 2.53  48 2.54  50 2.67
   3  0.555  0.219  0.373-  68 2.63  49 2.66  56 2.67
   4  0.604  0.530  0.373-  72 2.57  69 2.62  56 2.74
   5  0.574  0.875  0.358-  70 2.55  48 2.61  44 2.73
   6  0.928  0.199  0.372-  46 2.47  45 2.65  55 2.71
   7  0.896  0.550  0.390-  72 2.54  71 2.66  47 2.66
   8  0.906  0.907  0.384-  45 2.57  53 2.60  44 2.67
   9  0.059  0.142  0.625-  51 2.53  57 2.54  37 2.56
  10  0.065  0.481  0.636-  38 2.56  58 2.59  43 2.77
  11  0.076  0.804  0.608-  39 2.58  59 2.73  52 2.84
  12  0.392  0.144  0.626-  60 2.56  40 2.69  51 2.85
  13  0.414  0.483  0.640-  38 2.60  61 2.63  41 2.75
  14  0.399  0.808  0.632-  39 2.56  42 2.61  62 2.69
  15  0.732  0.148  0.626-  37 2.63  63 2.65  40 2.82
  16  0.704  0.465  0.623-  64 2.50  41 2.58  43 2.74
  17  0.221  0.538  0.378-  66 2.48  47 2.65  50 2.77
  18  0.239  0.201  0.401-  54 2.57  46 2.63  49 2.78
  19  0.740  0.816  0.623-  65 2.49  52 2.60  42 2.68
  20  0.935  0.659  0.872-  58 2.44  52 2.67  59 2.82
  21  0.915  0.985  0.866-  59 2.45  37 2.49  65 2.75
  22  0.079  0.372  0.138-  46 2.49  66 2.53  71 2.65
  23  0.047  0.722  0.126-  67 2.51  53 2.56  47 2.71
  24  0.392  0.039  0.121-  54 2.57  68 2.59  48 2.65
  25  0.401  0.378  0.132-  69 2.60  66 2.66  49 2.70
  26  0.738  0.054  0.102-  44 2.59  55 2.71
  27  0.762  0.351  0.139-  55 2.61  56 2.62  71 2.63
  28  0.415  0.683  0.143-  50 2.48  70 2.70  69 2.74
  29  0.253  0.314  0.890-  60 2.57  38 2.63  57 2.70
  30  0.248  0.658  0.874-  61 2.52  39 2.53  58 2.81
  31  0.250  0.992  0.857-  51 2.60  62 2.66  60 2.78
  32  0.582  0.316  0.882-  63 2.48  41 2.57  64 2.80
  33  0.585  0.653  0.862-  42 2.50  64 2.54  61 2.69
  34  0.572  0.974  0.864-  40 2.57  62 2.63  65 2.64
  35  0.915  0.325  0.858-  43 2.53  57 2.63
  36  0.742  0.702  0.102-  70 2.60  53 2.62  72 2.68
  37  0.896  0.018  0.646-  21 2.49   9 2.56  15 2.63
  38  0.238  0.373  0.663-  10 2.56  13 2.60  29 2.63
  39  0.238  0.681  0.647-  30 2.53  14 2.56  11 2.58
  40  0.557  0.005  0.636-  34 2.57  12 2.69  15 2.82
  41  0.560  0.318  0.652-  32 2.57  16 2.58  13 2.75
  42  0.569  0.686  0.640-  33 2.50  14 2.61  19 2.68
  43  0.888  0.346  0.633-  35 2.53  16 2.74  10 2.77
  44  0.733  0.025  0.333-  26 2.59   8 2.67   5 2.73
  45  0.060  0.036  0.335-   1 2.54   8 2.57   6 2.65
  46  0.076  0.331  0.358-   6 2.47  22 2.49  18 2.63
  47  0.064  0.681  0.365-  17 2.65   7 2.66  23 2.71
  48  0.404  0.997  0.355-   2 2.54   5 2.61  24 2.65
  49  0.394  0.359  0.375-   3 2.66  25 2.70  18 2.78
  50  0.390  0.681  0.365-  28 2.48   2 2.67  17 2.77
  51  0.210  0.006  0.627-   9 2.53  31 2.60  12 2.85
  52  0.891  0.673  0.637-  19 2.60  20 2.67  11 2.84
  53  0.886  0.846  0.160-  23 2.56   8 2.60  36 2.62
  54  0.244  0.175  0.170-  24 2.57  18 2.57   1 2.61
  55  0.901  0.195  0.130-  27 2.61  26 2.71   6 2.71
  56  0.726  0.348  0.372-  27 2.62   3 2.67   4 2.74
  57  0.078  0.192  0.846-   9 2.54  35 2.63  29 2.70
  58  0.071  0.519  0.865-  20 2.44  10 2.59  30 2.81
  59  0.056  0.848  0.848-  21 2.45  11 2.73  20 2.82
  60  0.391  0.164  0.856-  12 2.56  29 2.57  31 2.78
  61  0.406  0.532  0.870-  30 2.52  13 2.63  33 2.69
  62  0.405  0.846  0.871-  34 2.63  31 2.66  14 2.69
  63  0.732  0.186  0.862-  32 2.48  15 2.65
  64  0.713  0.496  0.846-  16 2.50  33 2.54  32 2.80
  65  0.742  0.849  0.845-  19 2.49  34 2.64  21 2.75
  66  0.231  0.505  0.158-  17 2.48  22 2.53  25 2.66
  67  0.205  0.847  0.146-  23 2.51   2 2.53
  68  0.544  0.181  0.140-  24 2.59   3 2.63
  69  0.557  0.516  0.143-  25 2.60   4 2.62  28 2.74
  70  0.577  0.826  0.134-   5 2.55  36 2.60  28 2.70
  71  0.910  0.500  0.157-  27 2.63  22 2.65   7 2.66
  72  0.744  0.679  0.342-   7 2.54   4 2.57  36 2.68
 

IMPORTANT INFORMATION: All symmetrisations will be switched off!
NOSYMM: (Re-)initialisation of all symmetry stuff for point group C_1.


----------------------------------------------------------------------------------------

                                     Primitive cell                                     

  volume of cell :    1725.1002

  direct lattice vectors                    reciprocal lattice vectors
    12.432190173 -0.000002381  0.000000983     0.080436350  0.000000015 -0.000000008
    -0.000002397 12.517971904 -0.000000282     0.000000015  0.079885145  0.000000002
     0.000001129 -0.000000321 11.084923526    -0.000000007  0.000000002  0.090212621

  length of vectors
    12.432190173 12.517971904 11.084923526     0.080436350  0.079885145  0.090212621

  position of ions in fractional coordinates (direct lattice)
     0.090196808  0.043938966  0.108182070
     0.261448624  0.852360157  0.365312141
     0.554800154  0.218958244  0.373151252
     0.603660559  0.530279155  0.372768334
     0.574327851  0.875300267  0.357890799
     0.928173226  0.199281278  0.372381194
     0.895532354  0.550300073  0.389963790
     0.905904938  0.906773695  0.383672548
     0.059235457  0.142422760  0.625240529
     0.065114830  0.480598973  0.635840044
     0.075529080  0.804201886  0.607735951
     0.392222878  0.143823041  0.625929165
     0.414428499  0.483299985  0.639623423
     0.399003795  0.807792139  0.632331703
     0.731525927  0.148359619  0.625949723
     0.703898813  0.465002469  0.623211236
     0.220603748  0.538458219  0.378388457
     0.238743495  0.201020324  0.400766543
     0.739956440  0.815873869  0.623346226
     0.934534480  0.659015427  0.872133935
     0.915353936  0.984876929  0.866186311
     0.078746810  0.371681917  0.137848917
     0.047432642  0.722087240  0.125915205
     0.392110723  0.039460397  0.120580797
     0.401060446  0.378288861  0.132181154
     0.738167486  0.053585802  0.101584783
     0.762436801  0.350526904  0.139181898
     0.414985220  0.683251413  0.142566257
     0.252817119  0.313540490  0.890382925
     0.248385815  0.658014671  0.873773229
     0.249791939  0.991798292  0.856592491
     0.582097511  0.316071636  0.882164847
     0.584753412  0.652655540  0.861932307
     0.572404605  0.973735225  0.864425478
     0.914598707  0.324739535  0.857843893
     0.742330191  0.702025045  0.101726071
     0.896481288  0.017789171  0.645519969
     0.238413763  0.373470681  0.663487582
     0.238364628  0.680654380  0.647095556
     0.557198724  0.004524702  0.635884983
     0.559895279  0.318447388  0.651618540
     0.569100056  0.685509160  0.639902064
     0.888453882  0.346167742  0.632611891
     0.732739866  0.025185850  0.332713497
     0.060138777  0.036300161  0.334692405
     0.076411309  0.330542049  0.357876137
     0.063557371  0.680579299  0.365471251
     0.403964619  0.997204266  0.354680167
     0.394058033  0.359431312  0.374932187
     0.389996513  0.681256902  0.364789866
     0.209962868  0.006103825  0.626602752
     0.891338014  0.672785091  0.636505737
     0.886482390  0.845648541  0.160480716
     0.243535477  0.175401905  0.170356209
     0.901236431  0.194712286  0.129639908
     0.726083345  0.348101386  0.372278600
     0.078162396  0.191810614  0.846498583
     0.070934621  0.518699242  0.865431952
     0.055534543  0.848282293  0.848110369
     0.391214799  0.163680253  0.855774015
     0.406114002  0.531952903  0.870413698
     0.404518579  0.846136561  0.870626468
     0.731844400  0.186132989  0.861607882
     0.713086529  0.495527471  0.845720932
     0.742444119  0.848713450  0.845061823
     0.230531089  0.505243604  0.157988592
     0.204747629  0.846995561  0.146167426
     0.543513032  0.180919819  0.140476255
     0.557157463  0.515694014  0.142782769
     0.577470989  0.826452688  0.134482723
     0.909908823  0.500337530  0.157343952
     0.743723384  0.679112847  0.342298234

  ion indices of the primitive-cell ions
   primitive index   ion index
                 1           1
                 2           2
                 3           3
                 4           4
                 5           5
                 6           6
                 7           7
                 8           8
                 9           9
                10          10
                11          11
                12          12
                13          13
                14          14
                15          15
                16          16
                17          17
                18          18
                19          19
                20          20
                21          21
                22          22
                23          23
                24          24
                25          25
                26          26
                27          27
                28          28
                29          29
                30          30
                31          31
                32          32
                33          33
                34          34
                35          35
                36          36
                37          37
                38          38
                39          39
                40          40
                41          41
                42          42
                43          43
                44          44
                45          45
                46          46
                47          47
                48          48
                49          49
                50          50
                51          51
                52          52
                53          53
                54          54
                55          55
                56          56
                57          57
                58          58
                59          59
                60          60
                61          61
                62          62
                63          63
                64          64
                65          65
                66          66
                67          67
                68          68
                69          69
                70          70
                71          71
                72          72

----------------------------------------------------------------------------------------

 
 
 KPOINTS: KPOINTS created by Atomic Simulation Env

Automatic generation of k-mesh.
 Grid dimensions read from file:
 generate k-points for:    2    2    2

 Generating k-lattice:

  Cartesian coordinates                     Fractional coordinates (reciprocal lattice)
     0.040218175  0.000000008 -0.000000004     0.500000000 -0.000000000  0.000000000
     0.000000008  0.039942572  0.000000001    -0.000000000  0.500000000  0.000000000
    -0.000000004  0.000000001  0.045106310     0.000000000  0.000000000  0.500000000

  Length of vectors
     0.040218175  0.039942572  0.045106310

  Shift w.r.t. Gamma in fractional coordinates (k-lattice)
     0.000000000  0.000000000  0.000000000

 
 Subroutine IBZKPT returns following result:
 ===========================================
 
 Found      8 irreducible k-points:
 
 Following reciprocal coordinates:
            Coordinates               Weight
  0.000000  0.000000  0.000000      1.000000
  0.500000  0.000000  0.000000      1.000000
  0.000000  0.500000  0.000000      1.000000
  0.500000  0.500000  0.000000      1.000000
  0.000000  0.000000  0.500000      1.000000
  0.500000  0.000000  0.500000      1.000000
  0.000000  0.500000  0.500000      1.000000
  0.500000  0.500000  0.500000      1.000000
 
 Following cartesian coordinates:
            Coordinates               Weight
  0.000000  0.000000  0.000000      1.000000
  0.040218  0.000000 -0.000000      1.000000
  0.000000  0.039943  0.000000      1.000000
  0.040218  0.039943 -0.000000      1.000000
 -0.000000  0.000000  0.045106      1.000000
  0.040218  0.000000  0.045106      1.000000
  0.000000  0.039943  0.045106      1.000000
  0.040218  0.039943  0.045106      1.000000
 
 -----------------------------------------------------------------------------
|                                                                             |
|           W    W    AA    RRRRR   N    N  II  N    N   GGGG   !!!           |
|           W    W   A  A   R    R  NN   N  II  NN   N  G    G  !!!           |
|           W    W  A    A  R    R  N N  N  II  N N  N  G       !!!           |
|           W WW W  AAAAAA  RRRRR   N  N N  II  N  N N  G  GGG   !            |
|           WW  WW  A    A  R   R   N   NN  II  N   NN  G    G                |
|           W    W  A    A  R    R  N    N  II  N    N   GGGG   !!!           |
|                                                                             |
|     The number of bands has been changed from the values supplied in        |
|     the INCAR file. This is a result of running the parallel version.       |
|     The orbitals not found in the WAVECAR file will be initialized with     |
|     random numbers, which is usually adequate. For correlated               |
|     calculations, however, you should redo the groundstate calculation.     |
|     I found NBANDS = 220. Now, NBANDS = 224.                                |
|                                                                             |
 -----------------------------------------------------------------------------



--------------------------------------------------------------------------------------------------------




 Dimension of arrays:
   k-points           NKPTS =      8   k-points in BZ     NKDIM =      8   number of bands    NBANDS=    224
   number of dos      NEDOS =    301   number of ions     NIONS =     72
   non local maximal  LDIM  =      5   non local SUM 2l+1 LMDIM =     13
   total plane-waves  NPLWV = 774144
   max r-space proj   IRMAX =      1   max aug-charges    IRDMAX=  24587
   dimension x,y,z NGX =    96 NGY =   96 NGZ =   84
   dimension x,y,z NGXF=   192 NGYF=  192 NGZF=  168
   support grid    NGXF=   192 NGYF=  192 NGZF=  168
   ions per type =              36  36
   NGX,Y,Z   is equivalent  to a cutoff of  12.84, 12.75, 12.60 a.u.
   NGXF,Y,Z  is equivalent  to a cutoff of  25.67, 25.50, 25.20 a.u.

 SYSTEM =  01_AOPT                                 
 POSCAR =  Ge Se                                   

 Startparameter for this run:
   NWRITE =      2    write-flag & timer
   PREC   = accura    normal or accurate (medium, high low for compatibility)
   ISTART =      0    job   : 0-new  1-cont  2-samecut
   ICHARG =      2    charge: 1-file 2-atom 10-const
   ISPIN  =      2    spin polarized calculation?
   LNONCOLLINEAR =      F non collinear calculations
   LSORBIT =      F    spin-orbit coupling
   INIWAV =      1    electr: 0-lowe 1-rand  2-diag
   LASPH  =      T    aspherical Exc in radial PAW
 Electronic Relaxation 1
   ENCUT  =  520.0 eV  38.22 Ry    6.18 a.u.  23.12 23.28 20.61*2*pi/ulx,y,z
   ENINI  =  520.0     initial cutoff
   ENAUG  =  446.8 eV  augmentation charge cutoff
   NELM   =    100;   NELMIN=  5; NELMDL=  0     # of ELM steps 
   EDIFF  = 0.1E-05   stopping-criterion for ELM
   LREAL  =      F    real-space projection
   NLSPLINE    = F    spline interpolate recip. space projectors
   LCOMPAT=      F    compatible to vasp.4.4
   GGA_COMPAT  = T    GGA compatible to vasp.4.4-vasp.4.6
   LMAXPAW     = -100 max onsite density
   LMAXMIX     =    2 max onsite mixed and CHGCAR
   VOSKOWN=      0    Vosko Wilk Nusair interpolation
   ROPT   =    0.00000   0.00000
 Ionic relaxation
   EDIFFG = 0.1E-04   stopping-criterion for IOM
   NSW    =      0    number of steps for IOM
   NBLOCK =      1;   KBLOCK =      1    inner block; outer block 
   IBRION =     -1    ionic relax: 0-MD 1-quasi-New 2-CG
   NFREE  =      0    steps in history (QN), initial steepest desc. (CG)
   ISIF   =      2    stress and relaxation
   IWAVPR =     10    prediction:  0-non 1-charg 2-wave 3-comb
   ISYM   =     -1    0-nonsym 1-usesym 2-fastsym
   LCORR  =      T    Harris-Foulkes like correction to forces

   POTIM  = 0.5000    time-step for ionic-motion
   TEIN   =    0.0    initial temperature
   TEBEG  =    0.0;   TEEND  =   0.0 temperature during run
   SMASS  =  -3.00    Nose mass-parameter (am)
   estimated Nose-frequenzy (Omega)   =  0.10E-29 period in steps = 0.13E+47 mass=  -0.353E-26a.u.
   SCALEE = 1.0000    scale energy and forces
   NPACO  =    256;   APACO  = 10.0  distance and # of slots for P.C.
   PSTRESS=    0.0 pullay stress

  Mass of Ions in am
   POMASS =  72.61 78.96
  Ionic Valenz
   ZVAL   =   4.00  6.00
  Atomic Wigner-Seitz radii
   RWIGS  =  -1.00 -1.00
  virtual crystal weights 
   VCA    =   1.00  1.00
   NELECT =     360.0000    total number of electrons
   NUPDOWN=      -1.0000    fix difference up-down

 DOS related values:
   EMIN   =  10.00;   EMAX   =-10.00  energy-range for DOS
   EFERMI =   0.00;   METHOD = LEGACY      
   ISMEAR =     0;   SIGMA  =   0.05  broadening in eV -4-tet -1-fermi 0-gaus

 Electronic relaxation 2 (details)
   IALGO  =     38    algorithm
   LDIAG  =      T    sub-space diagonalisation (order eigenvalues)
   LSUBROT=      F    optimize rotation matrix (better conditioning)
   TURBO    =      0    0=normal 1=particle mesh
   IRESTART =      0    0=no restart 2=restart with 2 vectors
   NREBOOT  =      0    no. of reboots
   NMIN     =      0    reboot dimension
   EREF     =   0.00    reference energy to select bands
   IMIX   =      4    mixing-type and parameters
     AMIX     =   0.40;   BMIX     =  1.00
     AMIX_MAG =   1.60;   BMIX_MAG =  1.00
     AMIN     =   0.10
     WC   =   100.;   INIMIX=   1;  MIXPRE=   1;  MAXMIX= -45

 Intra band minimization:
   WEIMIN = 0.0000     energy-eigenvalue tresh-hold
   EBREAK =  0.11E-08  absolut break condition
   DEPER  =   0.30     relativ break condition  

   TIME   =   0.40     timestep for ELM

  volume/ion in A,a.u.               =      23.96       161.69
  Fermi-wavevector in a.u.,A,eV,Ry     =   0.971041  1.835001 12.829213  0.942921
  Thomas-Fermi vector in A             =   2.101226
 
 Write flags
   LWAVE        =      F    write WAVECAR
   LDOWNSAMPLE  =      F    k-point downsampling of WAVECAR
   LCHARG       =      F    write CHGCAR
   LVTOT        =      F    write LOCPOT, total local potential
   LVHAR        =      F    write LOCPOT, Hartree potential only
   LELF         =      F    write electronic localiz. function (ELF)
   LORBIT       =     11    0 simple, 1 ext, 2 COOP (PROOUT), +10 PAW based schemes


 Dipole corrections
   LMONO  =      F    monopole corrections only (constant potential shift)
   LDIPOL =      F    correct potential (dipole corrections)
   IDIPOL =      0    1-x, 2-y, 3-z, 4-all directions 
   EPSILON=  1.0000000 bulk dielectric constant

 Exchange correlation treatment:
   GGA     =    PE    GGA type
   LEXCH   =     8    internal setting for exchange type
   LIBXC   =     F    Libxc                    
   VOSKOWN =     0    Vosko Wilk Nusair interpolation
   LHFCALC =     F    Hartree Fock is set to
   LHFONE  =     F    Hartree Fock one center treatment
   AEXX    =    0.0000 exact exchange contribution

 Linear response parameters
   LEPSILON=     F    determine dielectric tensor
   LRPA    =     F    only Hartree local field effects (RPA)
   LNABLA  =     F    use nabla operator in PAW spheres
   LVEL    =     F    velocity operator in full k-point grid
   CSHIFT  =0.1000    complex shift for real part using Kramers Kronig
   OMEGAMAX=  -1.0    maximum frequency
   DEG_THRESHOLD= 0.2000000E-02 threshold for treating states as degnerate
   RTIME   =   -0.100 relaxation time in fs
  (WPLASMAI=    0.000 imaginary part of plasma frequency in eV, 0.658/RTIME)
   DFIELD  = 0.0000000 0.0000000 0.0000000 field for delta impulse in time
 
  Optional k-point grid parameters
   LKPOINTS_OPT  =     F    use optional k-point grid
   KPOINTS_OPT_MODE=     1    mode for optional k-point grid
 
 Orbital magnetization related:
   ORBITALMAG=     F  switch on orbital magnetization
   LCHIMAG   =     F  perturbation theory with respect to B field
   DQ        =  0.001000  dq finite difference perturbation B field
   LLRAUG    =     F  two centre corrections for induced B field
   LBONE     =     F  B-component reconstruction in AE one-centre
   LVGVCALC  =     T  calculate vGv susceptibility
   LVGVAPPL  =     F  apply vGv susceptibility instead of pGv for G=0

 Random number generation:
   RANDOM_GENERATOR = DEFAULT
   PCG_SEED         = not used


--------------------------------------------------------------------------------------------------------


 Static calculation
 charge density and potential will be updated during run
 spin polarized calculation
 Variant of blocked Davidson
 Davidson routine will perform the subspace rotation
 perform sub-space diagonalisation
    after iterative eigenvector-optimisation
 modified Broyden-mixing scheme, WC =      100.0
 initial mixing is a Kerker type mixing with AMIX =  0.4000 and BMIX =      1.0000
 Hartree-type preconditioning will be used
 using additional bands            44
 reciprocal scheme for non local part
 use partial core corrections
 calculate Harris-corrections to forces 
   (improved forces if not selfconsistent)
 use gradient corrections 
 use of overlap-Matrix (Vanderbilt PP)
 Gauss-broadening in eV      SIGMA  =   0.05


--------------------------------------------------------------------------------------------------------


  energy-cutoff  :      520.00
  volume of cell :     1725.10
      direct lattice vectors                 reciprocal lattice vectors
    12.432190173 -0.000002381  0.000000983     0.080436350  0.000000015 -0.000000008
    -0.000002397 12.517971904 -0.000000282     0.000000015  0.079885145  0.000000002
     0.000001129 -0.000000321 11.084923526    -0.000000007  0.000000002  0.090212621

  length of vectors
    12.432190173 12.517971904 11.084923526     0.080436350  0.079885145  0.090212621


 
 k-points in units of 2pi/SCALE and weight: KPOINTS created by Atomic Simulation Env
   0.00000000  0.00000000  0.00000000       0.125
   0.04021818  0.00000001 -0.00000000       0.125
   0.00000001  0.03994257  0.00000000       0.125
   0.04021818  0.03994258 -0.00000000       0.125
  -0.00000000  0.00000000  0.04510631       0.125
   0.04021817  0.00000001  0.04510631       0.125
   0.00000000  0.03994257  0.04510631       0.125
   0.04021818  0.03994258  0.04510631       0.125
 
 k-points in reciprocal lattice and weights: KPOINTS created by Atomic Simulation Env
   0.00000000  0.00000000  0.00000000       0.125
   0.50000000  0.00000000  0.00000000       0.125
   0.00000000  0.50000000  0.00000000       0.125
   0.50000000  0.50000000  0.00000000       0.125
   0.00000000  0.00000000  0.50000000       0.125
   0.50000000  0.00000000  0.50000000       0.125
   0.00000000  0.50000000  0.50000000       0.125
   0.50000000  0.50000000  0.50000000       0.125
 
 position of ions in fractional coordinates (direct lattice) 
   0.09019681  0.04393897  0.10818207
   0.26144862  0.85236016  0.36531214
   0.55480015  0.21895824  0.37315125
   0.60366056  0.53027916  0.37276833
   0.57432785  0.87530027  0.35789080
   0.92817323  0.19928128  0.37238119
   0.89553235  0.55030007  0.38996379
   0.90590494  0.90677369  0.38367255
   0.05923546  0.14242276  0.62524053
   0.06511483  0.48059897  0.63584004
   0.07552908  0.80420189  0.60773595
   0.39222288  0.14382304  0.62592917
   0.41442850  0.48329999  0.63962342
   0.39900380  0.80779214  0.63233170
   0.73152593  0.14835962  0.62594972
   0.70389881  0.46500247  0.62321124
   0.22060375  0.53845822  0.37838846
   0.23874349  0.20102032  0.40076654
   0.73995644  0.81587387  0.62334623
   0.93453448  0.65901543  0.87213394
   0.91535394  0.98487693  0.86618631
   0.07874681  0.37168192  0.13784892
   0.04743264  0.72208724  0.12591521
   0.39211072  0.03946040  0.12058080
   0.40106045  0.37828886  0.13218115
   0.73816749  0.05358580  0.10158478
   0.76243680  0.35052690  0.13918190
   0.41498522  0.68325141  0.14256626
   0.25281712  0.31354049  0.89038292
   0.24838581  0.65801467  0.87377323
   0.24979194  0.99179829  0.85659249
   0.58209751  0.31607164  0.88216485
   0.58475341  0.65265554  0.86193231
   0.57240461  0.97373522  0.86442548
   0.91459871  0.32473954  0.85784389
   0.74233019  0.70202505  0.10172607
   0.89648129  0.01778917  0.64551997
   0.23841376  0.37347068  0.66348758
   0.23836463  0.68065438  0.64709556
   0.55719872  0.00452470  0.63588498
   0.55989528  0.31844739  0.65161854
   0.56910006  0.68550916  0.63990206
   0.88845388  0.34616774  0.63261189
   0.73273987  0.02518585  0.33271350
   0.06013878  0.03630016  0.33469240
   0.07641131  0.33054205  0.35787614
   0.06355737  0.68057930  0.36547125
   0.40396462  0.99720427  0.35468017
   0.39405803  0.35943131  0.37493219
   0.38999651  0.68125690  0.36478987
   0.20996287  0.00610382  0.62660275
   0.89133801  0.67278509  0.63650574
   0.88648239  0.84564854  0.16048072
   0.24353548  0.17540190  0.17035621
   0.90123643  0.19471229  0.12963991
   0.72608334  0.34810139  0.37227860
   0.07816240  0.19181061  0.84649858
   0.07093462  0.51869924  0.86543195
   0.05553454  0.84828229  0.84811037
   0.39121480  0.16368025  0.85577402
   0.40611400  0.53195290  0.87041370
   0.40451858  0.84613656  0.87062647
   0.73184440  0.18613299  0.86160788
   0.71308653  0.49552747  0.84572093
   0.74244412  0.84871345  0.84506182
   0.23053109  0.50524360  0.15798859
   0.20474763  0.84699556  0.14616743
   0.54351303  0.18091982  0.14047626
   0.55715746  0.51569401  0.14278277
   0.57747099  0.82645269  0.13448272
   0.90990882  0.50033753  0.15734395
   0.74372338  0.67911285  0.34229823
 
 position of ions in cartesian coordinates  (Angst):
   1.12134389  0.55002649  1.19919004
   3.25037738 10.66981976  4.04945717
   6.89738092  2.74091171  4.13635358
   7.50482202  6.63801801  4.13210892
   7.14015137 10.95698267  3.96719245
  11.53922601  2.49459511  4.12781792
  11.13342765  6.88863860  4.32271951
  11.26238073 11.35096536  4.25298149
   0.73642683  1.78284377  6.93074346
   0.80951952  6.01612409  7.04823819
   0.93899064 10.06697624  6.73670639
   4.87618977  1.80037166  6.93837728
   5.15225348  6.04993444  7.09017700
   4.96048984 10.11191815  7.00934874
   9.09446979  1.85715960  6.93860549
   8.75100349  5.82088596  6.90824945
   2.74258688  6.74040421  4.19440717
   2.96810450  2.51636607  4.44246666
   9.19927793 10.21308420  6.90974574
  11.61830978  8.24953410  9.66753871
  11.37985283 12.32865927  9.60160964
   0.97899458  4.65270357  1.52804467
   0.58969004  9.03906763  1.39576026
   4.87479512  0.49396317  1.33662929
   4.98605898  4.73540834  1.46521827
   9.17703856  0.67078378  1.12606026
   9.47875862  4.38788407  1.54282135
   5.15917370  8.55292095  1.58033628
   3.14307076  3.92489015  9.86982679
   3.08797909  8.23700829  9.68570949
   3.10545948 12.41530228  9.49526222
   7.23674720  3.95657420  9.77873034
   7.26976503  8.16992204  9.55445410
   7.11624155 12.18918855  9.58209060
  11.37046524  4.06507792  9.50913476
   9.22878854  8.78792799  1.12762625
  11.14522654  0.22268200  7.15554036
   2.96400510  4.67509471  7.35470924
   2.96339348  8.52041163  7.17300480
   6.92720120  0.05663856  7.04873696
   6.96072456  3.98631392  7.22314214
   7.07515920  8.58118284  7.09326581
  11.04542750  4.33331575  7.01245521
   9.10956168  0.31527391  3.68810438
   0.74765701  0.45440415  3.71003976
   0.94995954  4.13771579  3.96702960
   0.79015611  8.51947227  4.05122074
   5.02216298 12.48297390  3.93160264
   4.89900397  4.49935000  4.15609490
   4.84850959  8.52795371  4.04366796
   2.61029900  0.07640680  6.94584380
  11.08128280  8.42190254  7.05561811
  11.02091581 10.58580251  1.77891710
   3.02767914  2.19567548  1.88838574
  11.20434238  2.43740074  1.43704929
   9.02680581  4.35752152  4.12668043
   0.97173026  2.40107942  9.38337208
   0.88187244  6.49306209  9.59324692
   0.69041492 10.61877350  9.40123840
   4.86365736  2.04894360  9.48618985
   5.04888622  6.65897025  9.64846953
   5.02905086 10.59191246  9.65082798
   9.09842929  2.33000551  9.55085815
   8.86522710  6.20299699  9.37475242
   9.23020540 10.62416909  9.36744618
   2.86600530  6.32462465  1.75129155
   2.54545960 10.60266610  1.62025470
   6.75705709  2.26474787  1.55716903
   6.92668646  6.45544181  1.58273647
   7.17922732 10.34551012  1.49073103
  11.31215851  6.26320893  1.74414643
   9.24610930  8.50111366  3.79435028
 


--------------------------------------------------------------------------------------------------------


 k-point   1 :   0.0000 0.0000 0.0000  plane waves:   46425
 k-point   2 :   0.5000 0.0000 0.0000  plane waves:   46474
 k-point   3 :   0.0000 0.5000 0.0000  plane waves:   46414
 k-point   4 :   0.5000 0.5000 0.0000  plane waves:   46504
 k-point   5 :   0.0000 0.0000 0.5000  plane waves:   46526
 k-point   6 :   0.5000 0.0000 0.5000  plane waves:   46428
 k-point   7 :   0.0000 0.5000 0.5000  plane waves:   46492
 k-point   8 :   0.5000 0.5000 0.5000  plane waves:   46424

 maximum and minimum number of plane-waves per node :      5844     5729

 maximum number of plane-waves:     46526
 maximum index in each direction: 
   IXMAX=   23   IYMAX=   23   IZMAX=   20
   IXMIN=  -23   IYMIN=  -23   IZMIN=  -21


 parallel 3D FFT for wavefunctions:
    minimum data exchange during FFTs selected (reduces bandwidth)
 parallel 3D FFT for charge:
    minimum data exchange during FFTs selected (reduces bandwidth)


 total amount of memory used by VASP MPI-rank0   111004. kBytes
=======================================================================

   base      :      30000. kBytes
   nonl-proj :      16422. kBytes
   fftplans  :       6180. kBytes
   grid      :      15593. kBytes
   one-center:        146. kBytes
   wavefun   :      42663. kBytes
 
     INWAV:  cpu time      0.0000: real time      0.0001
 Broyden mixing: mesh for mixing (old mesh)
   NGX = 47   NGY = 47   NGZ = 41
  (NGX  =192   NGY  =192   NGZ  =168)
  gives a total of  90569 points

 initial charge density was supplied:
 charge density of overlapping atoms calculated
 number of electron     360.0000000 magnetization      72.0000000
 keeping initial charge density in first step


--------------------------------------------------------------------------------------------------------


 Maximum index for augmentation-charges           831 (set IRDMAX)


--------------------------------------------------------------------------------------------------------


 First call to EWALD:  gamma=   0.148
 Maximum number of real-space cells 3x 3x 3
 Maximum number of reciprocal cells 3x 3x 3

    FEWALD:  cpu time      0.0042: real time      0.0042


--------------------------------------- Ionic step        1  -------------------------------------------




--------------------------------------- Iteration      1(   1)  ---------------------------------------


    POTLOK:  cpu time      0.1403: real time      0.1413
    SETDIJ:  cpu time      0.6303: real time      0.6319
     EDDAV:  cpu time      8.5544: real time      8.5963
       DOS:  cpu time      0.0024: real time      0.0024
    --------------------------------------------
      LOOP:  cpu time      9.3274: real time      9.3719

 eigenvalue-minimisations  :  7168
 total energy-change (2. order) : 0.1814115E+04  (-0.1416132E+05)
 number of electron     360.0000000 magnetization      72.0000000
 augmentation part      360.0000000 magnetization      72.0000000

 Free energy of the ion-electron system (eV)
  ---------------------------------------------------
  alpha Z        PSCENC =       795.60601905
  Ewald energy   TEWEN  =    -12848.11507526
  -Hartree energ DENC   =     -1119.31534031
  -exchange      EXHF   =         0.00000000
  -V(xc)+E(xc)   XCENC  =      -293.75976135
  PAW double counting   =     10738.42099860    -9719.93139476
  entropy T*S    EENTRO =        -0.02145425
  eigenvalues    EBANDS =      1224.77953206
  atomic energy  EATOM  =     13036.45147835
  Solvation  Ediel_sol  =         0.00000000
  ---------------------------------------------------
  free energy    TOTEN  =      1814.11500213 eV

  energy without entropy =     1814.13645638  energy(sigma->0) =     1814.12572926


--------------------------------------------------------------------------------------------------------




--------------------------------------- Iteration      1(   2)  ---------------------------------------


     EDDAV:  cpu time      9.7354: real time      9.7877
       DOS:  cpu time      0.0013: real time      0.0013
    --------------------------------------------
      LOOP:  cpu time      9.7367: real time      9.7890

 eigenvalue-minimisations  :  8504
 total energy-change (2. order) :-0.1879085E+04  (-0.1803940E+04)
 number of electron     360.0000000 magnetization      72.0000000
 augmentation part      360.0000000 magnetization      72.0000000

 Free energy of the ion-electron system (eV)
  ---------------------------------------------------
  alpha Z        PSCENC =       795.60601905
  Ewald energy   TEWEN  =    -12848.11507526
  -Hartree energ DENC   =     -1119.31534031
  -exchange      EXHF   =         0.00000000
  -V(xc)+E(xc)   XCENC  =      -293.75976135
  PAW double counting   =     10738.42099860    -9719.93139476
  entropy T*S    EENTRO =        -0.01230274
  eigenvalues    EBANDS =      -654.31511261
  atomic energy  EATOM  =     13036.45147835
  Solvation  Ediel_sol  =         0.00000000
  ---------------------------------------------------
  free energy    TOTEN  =       -64.97049103 eV

  energy without entropy =      -64.95818829  energy(sigma->0) =      -64.96433966


--------------------------------------------------------------------------------------------------------




--------------------------------------- Iteration      1(   3)  ---------------------------------------


     EDDAV:  cpu time      9.7809: real time      9.8292
       DOS:  cpu time      0.0012: real time      0.0012
    --------------------------------------------
      LOOP:  cpu time      9.7821: real time      9.8304

 eigenvalue-minimisations  :  8584
 total energy-change (2. order) :-0.2167720E+03  (-0.2109545E+03)
 number of electron     360.0000000 magnetization      72.0000000
 augmentation part      360.0000000 magnetization      72.0000000

 Free energy of the ion-electron system (eV)
  ---------------------------------------------------
  alpha Z        PSCENC =       795.60601905
  Ewald energy   TEWEN  =    -12848.11507526
  -Hartree energ DENC   =     -1119.31534031
  -exchange      EXHF   =         0.00000000
  -V(xc)+E(xc)   XCENC  =      -293.75976135
  PAW double counting   =     10738.42099860    -9719.93139476
  entropy T*S    EENTRO =        -0.00001693
  eigenvalues    EBANDS =      -871.09936462
  atomic energy  EATOM  =     13036.45147835
  Solvation  Ediel_sol  =         0.00000000
  ---------------------------------------------------
  free energy    TOTEN  =      -281.74245723 eV

  energy without entropy =     -281.74244029  energy(sigma->0) =     -281.74244876


--------------------------------------------------------------------------------------------------------




--------------------------------------- Iteration      1(   4)  ---------------------------------------


     EDDAV:  cpu time      9.9898: real time     10.0417
       DOS:  cpu time      0.0010: real time      0.0010
    --------------------------------------------
      LOOP:  cpu time      9.9909: real time     10.0427

 eigenvalue-minimisations  :  8808
 total energy-change (2. order) :-0.7910530E+01  (-0.7824133E+01)
 number of electron     360.0000000 magnetization      72.0000000
 augmentation part      360.0000000 magnetization      72.0000000

 Free energy of the ion-electron system (eV)
  ---------------------------------------------------
  alpha Z        PSCENC =       795.60601905
  Ewald energy   TEWEN  =    -12848.11507526
  -Hartree energ DENC   =     -1119.31534031
  -exchange      EXHF   =         0.00000000
  -V(xc)+E(xc)   XCENC  =      -293.75976135
  PAW double counting   =     10738.42099860    -9719.93139476
  entropy T*S    EENTRO =        -0.00000073
  eigenvalues    EBANDS =      -879.00991093
  atomic energy  EATOM  =     13036.45147835
  Solvation  Ediel_sol  =         0.00000000
  ---------------------------------------------------
  free energy    TOTEN  =      -289.65298733 eV

  energy without entropy =     -289.65298660  energy(sigma->0) =     -289.65298697


--------------------------------------------------------------------------------------------------------




--------------------------------------- Iteration      1(   5)  ---------------------------------------


     EDDAV:  cpu time     10.1402: real time     10.1897
       DOS:  cpu time      0.0010: real time      0.0010
    CHARGE:  cpu time      0.4226: real time      0.4241
    MIXING:  cpu time      0.0070: real time      0.0071
    --------------------------------------------
      LOOP:  cpu time     10.5708: real time     10.6219

 eigenvalue-minimisations  :  9024
 total energy-change (2. order) :-0.2756881E+00  (-0.2749479E+00)
 number of electron     359.9999995 magnetization      48.8174182
 augmentation part      -66.8042342 magnetization      49.0301971

 Broyden mixing:
  rms(total) = 0.29148E+01    rms(broyden)= 0.29148E+01
  rms(prec ) = 0.30684E+01
  weight for this iteration     100.00

 Free energy of the ion-electron system (eV)
  ---------------------------------------------------
  alpha Z        PSCENC =       795.60601905
  Ewald energy   TEWEN  =    -12848.11507526
  -Hartree energ DENC   =     -1119.31534031
  -exchange      EXHF   =         0.00000000
  -V(xc)+E(xc)   XCENC  =      -293.75976135
  PAW double counting   =     10738.42099860    -9719.93139476
  entropy T*S    EENTRO =        -0.00000071
  eigenvalues    EBANDS =      -879.28559902
  atomic energy  EATOM  =     13036.45147835
  Solvation  Ediel_sol  =         0.00000000
  ---------------------------------------------------
  free energy    TOTEN  =      -289.92867540 eV

  energy without entropy =     -289.92867470  energy(sigma->0) =     -289.92867505


--------------------------------------------------------------------------------------------------------




--------------------------------------- Iteration      1(   6)  ---------------------------------------


    POTLOK:  cpu time      0.1442: real time      0.1457
    SETDIJ:  cpu time      0.6320: real time      0.6340
     EDDAV:  cpu time      9.2278: real time      9.2759
       DOS:  cpu time      0.0011: real time      0.0011
    CHARGE:  cpu time      0.4182: real time      0.4201
    MIXING:  cpu time      0.0080: real time      0.0080
    --------------------------------------------
      LOOP:  cpu time     10.4313: real time     10.4847

 eigenvalue-minimisations  :  7880
 total energy-change (2. order) : 0.2350181E+00  (-0.2631663E+01)
 number of electron     359.9999995 magnetization      27.9479864
 augmentation part      -66.1874151 magnetization      29.1287958

 Broyden mixing:
  rms(total) = 0.17248E+01    rms(broyden)= 0.17248E+01
  rms(prec ) = 0.17620E+01
  weight for this iteration     100.00

 eigenvalues of (default mixing * dielectric matrix)
  average eigenvalue GAMMA=   1.0074
  1.0074

 Free energy of the ion-electron system (eV)
  ---------------------------------------------------
  alpha Z        PSCENC =       795.60601905
  Ewald energy   TEWEN  =    -12848.11507526
  -Hartree energ DENC   =     -1172.92309331
  -exchange      EXHF   =         0.00000000
  -V(xc)+E(xc)   XCENC  =      -287.14788262
  PAW double counting   =     13034.07714994   -12019.12941176
  entropy T*S    EENTRO =        -0.00000033
  eigenvalues    EBANDS =      -828.51284137
  atomic energy  EATOM  =     13036.45147835
  Solvation  Ediel_sol  =         0.00000000
  ---------------------------------------------------
  free energy    TOTEN  =      -289.69365731 eV

  energy without entropy =     -289.69365698  energy(sigma->0) =     -289.69365715


--------------------------------------------------------------------------------------------------------




--------------------------------------- Iteration      1(   7)  ---------------------------------------


    POTLOK:  cpu time      0.1333: real time      0.1339
    SETDIJ:  cpu time      0.6307: real time      0.6327
     EDDAV:  cpu time      9.3030: real time      9.3475
       DOS:  cpu time      0.0008: real time      0.0008
    CHARGE:  cpu time      0.4205: real time      0.4220
    MIXING:  cpu time      0.0074: real time      0.0074
    --------------------------------------------
      LOOP:  cpu time     10.4957: real time     10.5444

 eigenvalue-minimisations  :  8016
 total energy-change (2. order) :-0.7202266E+01  (-0.8512407E+00)
 number of electron     359.9999995 magnetization       9.0491048
 augmentation part      -66.1768270 magnetization       9.7232233

 Broyden mixing:
  rms(total) = 0.90980E+00    rms(broyden)= 0.90980E+00
  rms(prec ) = 0.92604E+00
  weight for this iteration     100.00

 eigenvalues of (default mixing * dielectric matrix)
  average eigenvalue GAMMA=   1.4619
  0.8621  2.0617

 Free energy of the ion-electron system (eV)
  ---------------------------------------------------
  alpha Z        PSCENC =       795.60601905
  Ewald energy   TEWEN  =    -12848.11507526
  -Hartree energ DENC   =     -1189.92410244
  -exchange      EXHF   =         0.00000000
  -V(xc)+E(xc)   XCENC  =      -290.08827147
  PAW double counting   =     15137.07659960   -14123.77929878
  entropy T*S    EENTRO =        -0.00000000
  eigenvalues    EBANDS =      -814.12327276
  atomic energy  EATOM  =     13036.45147835
  Solvation  Ediel_sol  =         0.00000000
  ---------------------------------------------------
  free energy    TOTEN  =      -296.89592371 eV

  energy without entropy =     -296.89592371  energy(sigma->0) =     -296.89592371


--------------------------------------------------------------------------------------------------------




--------------------------------------- Iteration      1(   8)  ---------------------------------------


    POTLOK:  cpu time      0.1322: real time      0.1331
    SETDIJ:  cpu time      0.6325: real time      0.6344
     EDDAV:  cpu time      9.3952: real time      9.4694
       DOS:  cpu time      0.0008: real time      0.0008
    CHARGE:  cpu time      0.4186: real time      0.4200
    MIXING:  cpu time      0.0073: real time      0.0074
    --------------------------------------------
      LOOP:  cpu time     10.5866: real time     10.6650

 eigenvalue-minimisations  :  8112
 total energy-change (2. order) :-0.3239189E+01  (-0.1746320E+00)
 number of electron     359.9999995 magnetization       4.2993710
 augmentation part      -66.1840358 magnetization       4.6013999

 Broyden mixing:
  rms(total) = 0.32386E+00    rms(broyden)= 0.32386E+00
  rms(prec ) = 0.32928E+00
  weight for this iteration     100.00

 eigenvalues of (default mixing * dielectric matrix)
  average eigenvalue GAMMA=   1.3647
  2.5114  0.9261  0.6566

 Free energy of the ion-electron system (eV)
  ---------------------------------------------------
  alpha Z        PSCENC =       795.60601905
  Ewald energy   TEWEN  =    -12848.11507526
  -Hartree energ DENC   =     -1194.96581520
  -exchange      EXHF   =         0.00000000
  -V(xc)+E(xc)   XCENC  =      -289.71778315
  PAW double counting   =     16947.18903136   -15934.86118902
  entropy T*S    EENTRO =        -0.00000000
  eigenvalues    EBANDS =      -811.72177855
  atomic energy  EATOM  =     13036.45147835
  Solvation  Ediel_sol  =         0.00000000
  ---------------------------------------------------
  free energy    TOTEN  =      -300.13511243 eV

  energy without entropy =     -300.13511243  energy(sigma->0) =     -300.13511243


--------------------------------------------------------------------------------------------------------




--------------------------------------- Iteration      1(   9)  ---------------------------------------


    POTLOK:  cpu time      0.1315: real time      0.1322
    SETDIJ:  cpu time      0.6328: real time      0.6350
     EDDAV:  cpu time     10.2105: real time     10.2633
       DOS:  cpu time      0.0008: real time      0.0008
    CHARGE:  cpu time      0.4173: real time      0.4191
    MIXING:  cpu time      0.0076: real time      0.0076
    --------------------------------------------
      LOOP:  cpu time     11.4006: real time     11.4580

 eigenvalue-minimisations  :  9072
 total energy-change (2. order) :-0.3691822E+00  (-0.4154354E-01)
 number of electron     359.9999995 magnetization       2.2777057
 augmentation part      -66.2215011 magnetization       2.4286447

 Broyden mixing:
  rms(total) = 0.14641E+00    rms(broyden)= 0.14641E+00
  rms(prec ) = 0.14798E+00
  weight for this iteration     100.00

 eigenvalues of (default mixing * dielectric matrix)
  average eigenvalue GAMMA=   1.3308
  2.6359  1.2341  0.8323  0.6209

 Free energy of the ion-electron system (eV)
  ---------------------------------------------------
  alpha Z        PSCENC =       795.60601905
  Ewald energy   TEWEN  =    -12848.11507526
  -Hartree energ DENC   =     -1193.97142781
  -exchange      EXHF   =         0.00000000
  -V(xc)+E(xc)   XCENC  =      -289.75569773
  PAW double counting   =     17228.16705446   -16216.17529263
  entropy T*S    EENTRO =        -0.00000000
  eigenvalues    EBANDS =      -812.71135300
  atomic energy  EATOM  =     13036.45147835
  Solvation  Ediel_sol  =         0.00000000
  ---------------------------------------------------
  free energy    TOTEN  =      -300.50429458 eV

  energy without entropy =     -300.50429458  energy(sigma->0) =     -300.50429458


--------------------------------------------------------------------------------------------------------




--------------------------------------- Iteration      1(  10)  ---------------------------------------


    POTLOK:  cpu time      0.1313: real time      0.1320
    SETDIJ:  cpu time      0.6337: real time      0.6357
     EDDAV:  cpu time      9.4537: real time      9.4994
       DOS:  cpu time      0.0009: real time      0.0009
    CHARGE:  cpu time      0.4189: real time      0.4204
    MIXING:  cpu time      0.0080: real time      0.0080
    --------------------------------------------
      LOOP:  cpu time     10.6464: real time     10.6964

 eigenvalue-minimisations  :  8128
 total energy-change (2. order) :-0.1003408E+00  (-0.9269854E-02)
 number of electron     359.9999995 magnetization       0.7325578
 augmentation part      -66.2226179 magnetization       0.7998430

 Broyden mixing:
  rms(total) = 0.72904E-01    rms(broyden)= 0.72904E-01
  rms(prec ) = 0.73969E-01
  weight for this iteration     100.00

 eigenvalues of (default mixing * dielectric matrix)
  average eigenvalue GAMMA=   1.3802
  2.6995  1.7807  0.9720  0.8224  0.6263

 Free energy of the ion-electron system (eV)
  ---------------------------------------------------
  alpha Z        PSCENC =       795.60601905
  Ewald energy   TEWEN  =    -12848.11507526
  -Hartree energ DENC   =     -1194.18196949
  -exchange      EXHF   =         0.00000000
  -V(xc)+E(xc)   XCENC  =      -289.75491313
  PAW double counting   =     17231.02901947   -16219.04735158
  entropy T*S    EENTRO =        -0.00000000
  eigenvalues    EBANDS =      -812.59184280
  atomic energy  EATOM  =     13036.45147835
  Solvation  Ediel_sol  =         0.00000000
  ---------------------------------------------------
  free energy    TOTEN  =      -300.60463539 eV

  energy without entropy =     -300.60463539  energy(sigma->0) =     -300.60463539


--------------------------------------------------------------------------------------------------------




--------------------------------------- Iteration      1(  11)  ---------------------------------------


    POTLOK:  cpu time      0.1310: real time      0.1317
    SETDIJ:  cpu time      0.6344: real time      0.6364
     EDDAV:  cpu time      9.9392: real time      9.9885
       DOS:  cpu time      0.0006: real time      0.0006
    CHARGE:  cpu time      0.4218: real time      0.4234
    MIXING:  cpu time      0.0080: real time      0.0080
    --------------------------------------------
      LOOP:  cpu time     11.1351: real time     11.1887

 eigenvalue-minimisations  :  8728
 total energy-change (2. order) :-0.3099828E-01  (-0.3469303E-02)
 number of electron     359.9999995 magnetization       0.1728544
 augmentation part      -66.2075087 magnetization       0.1915284

 Broyden mixing:
  rms(total) = 0.27994E-01    rms(broyden)= 0.27994E-01
  rms(prec ) = 0.28360E-01
  weight for this iteration     100.00

 eigenvalues of (default mixing * dielectric matrix)
  average eigenvalue GAMMA=   1.4073
  2.9063  2.1841  1.1734  0.8550  0.7007  0.6246

 Free energy of the ion-electron system (eV)
  ---------------------------------------------------
  alpha Z        PSCENC =       795.60601905
  Ewald energy   TEWEN  =    -12848.11507526
  -Hartree energ DENC   =     -1195.32481622
  -exchange      EXHF   =         0.00000000
  -V(xc)+E(xc)   XCENC  =      -289.71271669
  PAW double counting   =     17152.49745705   -16140.48733304
  entropy T*S    EENTRO =        -0.00000000
  eigenvalues    EBANDS =      -811.55064690
  atomic energy  EATOM  =     13036.45147835
  Solvation  Ediel_sol  =         0.00000000
  ---------------------------------------------------
  free energy    TOTEN  =      -300.63563366 eV

  energy without entropy =     -300.63563366  energy(sigma->0) =     -300.63563366


--------------------------------------------------------------------------------------------------------




--------------------------------------- Iteration      1(  12)  ---------------------------------------


    POTLOK:  cpu time      0.1338: real time      0.1365
    SETDIJ:  cpu time      0.6314: real time      0.6333
     EDDAV:  cpu time     10.0447: real time     10.0949
       DOS:  cpu time      0.0010: real time      0.0011
    CHARGE:  cpu time      0.4139: real time      0.4157
    MIXING:  cpu time      0.0086: real time      0.0086
    --------------------------------------------
      LOOP:  cpu time     11.2334: real time     11.2901

 eigenvalue-minimisations  :  8720
 total energy-change (2. order) :-0.3321743E-02  (-0.4630802E-03)
 number of electron     359.9999995 magnetization       0.0555027
 augmentation part      -66.2072904 magnetization       0.0595738

 Broyden mixing:
  rms(total) = 0.10064E-01    rms(broyden)= 0.10064E-01
  rms(prec ) = 0.10632E-01
  weight for this iteration     100.00

 eigenvalues of (default mixing * dielectric matrix)
  average eigenvalue GAMMA=   1.3709
  3.0162  2.3289  1.2203  0.8849  0.8849  0.6085  0.6524

 Free energy of the ion-electron system (eV)
  ---------------------------------------------------
  alpha Z        PSCENC =       795.60601905
  Ewald energy   TEWEN  =    -12848.11507526
  -Hartree energ DENC   =     -1195.41862677
  -exchange      EXHF   =         0.00000000
  -V(xc)+E(xc)   XCENC  =      -289.71379830
  PAW double counting   =     17117.87220208   -16105.83984042
  entropy T*S    EENTRO =        -0.00000000
  eigenvalues    EBANDS =      -811.48131413
  atomic energy  EATOM  =     13036.45147835
  Solvation  Ediel_sol  =         0.00000000
  ---------------------------------------------------
  free energy    TOTEN  =      -300.63895541 eV

  energy without entropy =     -300.63895541  energy(sigma->0) =     -300.63895541


--------------------------------------------------------------------------------------------------------




--------------------------------------- Iteration      1(  13)  ---------------------------------------


    POTLOK:  cpu time      0.1312: real time      0.1319
    SETDIJ:  cpu time      0.6326: real time      0.6346
     EDDAV:  cpu time     10.8408: real time     10.8938
       DOS:  cpu time      0.0007: real time      0.0008
    CHARGE:  cpu time      0.4209: real time      0.4228
    MIXING:  cpu time      0.0080: real time      0.0080
    --------------------------------------------
      LOOP:  cpu time     12.0342: real time     12.0918

 eigenvalue-minimisations  :  9672
 total energy-change (2. order) :-0.1106741E-03  (-0.4918449E-04)
 number of electron     359.9999995 magnetization       0.0144433
 augmentation part      -66.2089632 magnetization       0.0152821

 Broyden mixing:
  rms(total) = 0.41420E-02    rms(broyden)= 0.41420E-02
  rms(prec ) = 0.43384E-02
  weight for this iteration     100.00

 eigenvalues of (default mixing * dielectric matrix)
  average eigenvalue GAMMA=   1.3502
  3.0611  2.4239  1.1365  1.1365  0.9321  0.8562  0.6477  0.6074

 Free energy of the ion-electron system (eV)
  ---------------------------------------------------
  alpha Z        PSCENC =       795.60601905
  Ewald energy   TEWEN  =    -12848.11507526
  -Hartree energ DENC   =     -1195.30182987
  -exchange      EXHF   =         0.00000000
  -V(xc)+E(xc)   XCENC  =      -289.72414514
  PAW double counting   =     17105.33739970   -16093.29411520
  entropy T*S    EENTRO =        -0.00000000
  eigenvalues    EBANDS =      -811.59879770
  atomic energy  EATOM  =     13036.45147835
  Solvation  Ediel_sol  =         0.00000000
  ---------------------------------------------------
  free energy    TOTEN  =      -300.63906608 eV

  energy without entropy =     -300.63906608  energy(sigma->0) =     -300.63906608


--------------------------------------------------------------------------------------------------------




--------------------------------------- Iteration      1(  14)  ---------------------------------------


    POTLOK:  cpu time      0.1304: real time      0.1310
    SETDIJ:  cpu time      0.6321: real time      0.6341
     EDDAV:  cpu time      9.6348: real time      9.6822
       DOS:  cpu time      0.0007: real time      0.0007
    CHARGE:  cpu time      0.4144: real time      0.4162
    MIXING:  cpu time      0.0080: real time      0.0080
    --------------------------------------------
      LOOP:  cpu time     10.8203: real time     10.8723

 eigenvalue-minimisations  :  8312
 total energy-change (2. order) :-0.1364482E-04  (-0.8256250E-05)
 number of electron     359.9999995 magnetization       0.0042888
 augmentation part      -66.2086887 magnetization       0.0046243

 Broyden mixing:
  rms(total) = 0.15706E-02    rms(broyden)= 0.15706E-02
  rms(prec ) = 0.16732E-02
  weight for this iteration     100.00

 eigenvalues of (default mixing * dielectric matrix)
  average eigenvalue GAMMA=   1.3414
  3.0857  2.4542  1.5363  1.1897  0.8897  0.8897  0.7753  0.6094  0.6425

 Free energy of the ion-electron system (eV)
  ---------------------------------------------------
  alpha Z        PSCENC =       795.60601905
  Ewald energy   TEWEN  =    -12848.11507526
  -Hartree energ DENC   =     -1195.29585795
  -exchange      EXHF   =         0.00000000
  -V(xc)+E(xc)   XCENC  =      -289.72530717
  PAW double counting   =     17100.92130926   -16088.87488849
  entropy T*S    EENTRO =        -0.00000000
  eigenvalues    EBANDS =      -811.60675751
  atomic energy  EATOM  =     13036.45147835
  Solvation  Ediel_sol  =         0.00000000
  ---------------------------------------------------
  free energy    TOTEN  =      -300.63907972 eV

  energy without entropy =     -300.63907972  energy(sigma->0) =     -300.63907972


--------------------------------------------------------------------------------------------------------




--------------------------------------- Iteration      1(  15)  ---------------------------------------


    POTLOK:  cpu time      0.1328: real time      0.1335
    SETDIJ:  cpu time      0.6306: real time      0.6323
     EDDAV:  cpu time      9.9461: real time     10.0032
       DOS:  cpu time      0.0014: real time      0.0014
    CHARGE:  cpu time      0.4187: real time      0.4205
    MIXING:  cpu time      0.0083: real time      0.0083
    --------------------------------------------
      LOOP:  cpu time     11.1378: real time     11.1992

 eigenvalue-minimisations  :  8600
 total energy-change (2. order) :-0.2965461E-05  (-0.1462199E-05)
 number of electron     359.9999995 magnetization       0.0016604
 augmentation part      -66.2087973 magnetization       0.0018747

 Broyden mixing:
  rms(total) = 0.71976E-03    rms(broyden)= 0.71976E-03
  rms(prec ) = 0.76358E-03
  weight for this iteration     100.00

 eigenvalues of (default mixing * dielectric matrix)
  average eigenvalue GAMMA=   1.3065
  3.0947  2.4262  1.7187  1.1157  0.9669  0.9669  0.8222  0.7135  0.6202  0.6202

 Free energy of the ion-electron system (eV)
  ---------------------------------------------------
  alpha Z        PSCENC =       795.60601905
  Ewald energy   TEWEN  =    -12848.11507526
  -Hartree energ DENC   =     -1195.28695416
  -exchange      EXHF   =         0.00000000
  -V(xc)+E(xc)   XCENC  =      -289.72543601
  PAW double counting   =     17100.51907468   -16088.47197681
  entropy T*S    EENTRO =        -0.00000000
  eigenvalues    EBANDS =      -811.61621253
  atomic energy  EATOM  =     13036.45147835
  Solvation  Ediel_sol  =         0.00000000
  ---------------------------------------------------
  free energy    TOTEN  =      -300.63908269 eV

  energy without entropy =     -300.63908269  energy(sigma->0) =     -300.63908269


--------------------------------------------------------------------------------------------------------




--------------------------------------- Iteration      1(  16)  ---------------------------------------


    POTLOK:  cpu time      0.1310: real time      0.1316
    SETDIJ:  cpu time      0.6313: real time      0.6334
     EDDAV:  cpu time      6.6292: real time      6.6642
       DOS:  cpu time      0.0011: real time      0.0011
    --------------------------------------------
      LOOP:  cpu time      7.3927: real time      7.4303

 eigenvalue-minimisations  :  4808
 total energy-change (2. order) :-0.6068299E-06  (-0.1532753E-06)
 number of electron     359.9999995 magnetization       0.0016604
 augmentation part      -66.2087973 magnetization       0.0018747

 Free energy of the ion-electron system (eV)
  ---------------------------------------------------
  alpha Z        PSCENC =       795.60601905
  Ewald energy   TEWEN  =    -12848.11507526
  -Hartree energ DENC   =     -1195.28311252
  -exchange      EXHF   =         0.00000000
  -V(xc)+E(xc)   XCENC  =      -289.72560003
  PAW double counting   =     17100.48284279   -16088.43555426
  entropy T*S    EENTRO =        -0.00000000
  eigenvalues    EBANDS =      -811.62008141
  atomic energy  EATOM  =     13036.45147835
  Solvation  Ediel_sol  =         0.00000000
  ---------------------------------------------------
  free energy    TOTEN  =      -300.63908330 eV

  energy without entropy =     -300.63908330  energy(sigma->0) =     -300.63908330


--------------------------------------------------------------------------------------------------------




 average (electrostatic) potential at core
  the test charge radii are     1.1631  1.0808
  (the norm of the test charge is              1.0000)
       1 -33.6286       2 -33.2839       3 -33.3800       4 -33.3757       5 -33.3849
       6 -33.4328       7 -33.2911       8 -33.4232       9 -33.4516      10 -33.6178
      11 -33.6624      12 -33.7074      13 -33.5749      14 -33.5242      15 -33.6594
      16 -33.4395      17 -33.3953      18 -33.6152      19 -33.4033      20 -33.5089
      21 -33.4449      22 -33.2881      23 -33.3872      24 -33.4673      25 -33.4533
      26 -33.6302      27 -33.4248      28 -33.4000      29 -33.6470      30 -33.5096
      31 -33.6107      32 -33.3960      33 -33.3311      34 -33.4145      35 -33.4950
      36 -33.5642      37 -55.1075      38 -54.8196      39 -55.0526      40 -54.8203
      41 -55.0282      42 -54.9349      43 -54.8252      44 -54.6676      45 -54.9189
      46 -54.9834      47 -54.7321      48 -54.8954      49 -54.7076      50 -54.8369
      51 -54.9503      52 -54.7149      53 -54.8407      54 -55.0057      55 -54.8705
      56 -54.8316      57 -54.9596      58 -55.0025      59 -54.8624      60 -55.0355
      61 -54.8772      62 -54.9239      63 -54.7883      64 -54.7299      65 -54.8721
      66 -54.8057      67 -54.7006      68 -54.7214      69 -54.7305      70 -54.7522
      71 -54.6447      72 -54.8403
 
 
 
 E-fermi :   3.4491     XC(G=0):  -9.3632     alpha+bet : -8.8067

 Fermi energy:         3.4491287403

 spin component 1

 k-point     1 :       0.0000    0.0000    0.0000
  band No.  band energies     occupation 
      1     -10.9282      1.00000
      2     -10.6367      1.00000
      3     -10.4465      1.00000
      4     -10.3977      1.00000
      5     -10.3418      1.00000
      6     -10.2700      1.00000
      7     -10.1513      1.00000
      8     -10.0952      1.00000
      9     -10.0128      1.00000
     10      -9.9441      1.00000
     11      -9.8961      1.00000
     12      -9.8704      1.00000
     13      -9.8041      1.00000
     14      -9.7865      1.00000
     15      -9.6806      1.00000
     16      -9.6330      1.00000
     17      -9.6089      1.00000
     18      -9.5868      1.00000
     19      -9.5502      1.00000
     20      -9.5360      1.00000
     21      -9.5147      1.00000
     22      -9.4299      1.00000
     23      -9.3879      1.00000
     24      -9.3398      1.00000
     25      -9.3023      1.00000
     26      -9.2771      1.00000
     27      -9.2347      1.00000
     28      -9.2273      1.00000
     29      -9.1997      1.00000
     30      -9.1321      1.00000
     31      -9.1170      1.00000
     32      -9.0814      1.00000
     33      -9.0460      1.00000
     34      -9.0238      1.00000
     35      -8.9814      1.00000
     36      -8.9530      1.00000
     37      -5.4613      1.00000
     38      -5.3985      1.00000
     39      -5.3029      1.00000
     40      -5.2644      1.00000
     41      -5.1767      1.00000
     42      -5.1371      1.00000
     43      -5.0619      1.00000
     44      -5.0389      1.00000
     45      -4.8273      1.00000
     46      -4.8001      1.00000
     47      -4.6102      1.00000
     48      -4.5630      1.00000
     49      -4.5163      1.00000
     50      -4.4887      1.00000
     51      -4.4355      1.00000
     52      -4.4130      1.00000
     53      -4.3726      1.00000
     54      -4.3478      1.00000
     55      -4.3239      1.00000
     56      -4.3117      1.00000
     57      -4.2627      1.00000
     58      -4.2307      1.00000
     59      -4.2235      1.00000
     60      -4.2055      1.00000
     61      -4.1109      1.00000
     62      -4.0492      1.00000
     63      -3.9652      1.00000
     64      -3.9227      1.00000
     65      -3.9044      1.00000
     66      -3.8543      1.00000
     67      -3.7139      1.00000
     68      -3.7011      1.00000
     69      -3.4885      1.00000
     70      -3.4173      1.00000
     71      -2.4446      1.00000
     72      -2.4188      1.00000
     73      -1.7851      1.00000
     74      -1.6266      1.00000
     75      -1.5964      1.00000
     76      -1.5748      1.00000
     77      -1.4568      1.00000
     78      -1.3899      1.00000
     79      -1.3693      1.00000
     80      -1.2601      1.00000
     81      -1.1669      1.00000
     82      -1.1532      1.00000
     83      -1.0812      1.00000
     84      -1.0403      1.00000
     85      -1.0285      1.00000
     86      -0.8379      1.00000
     87      -0.8070      1.00000
     88      -0.7471      1.00000
     89      -0.7190      1.00000
     90      -0.6693      1.00000
     91      -0.6468      1.00000
     92      -0.5740      1.00000
     93      -0.4856      1.00000
     94      -0.3115      1.00000
     95      -0.1188      1.00000
     96      -0.0817      1.00000
     97      -0.0466      1.00000
     98      -0.0085      1.00000
     99       0.0440      1.00000
    100       0.0591      1.00000
    101       0.0884      1.00000
    102       0.1172      1.00000
    103       0.1546      1.00000
    104       0.1945      1.00000
    105       0.2046      1.00000
    106       0.2179      1.00000
    107       0.2639      1.00000
    108       0.3129      1.00000
    109       0.3698      1.00000
    110       0.3827      1.00000
    111       0.4559      1.00000
    112       0.5232      1.00000
    113       0.5471      1.00000
    114       0.5605      1.00000
    115       0.5771      1.00000
    116       0.6274      1.00000
    117       0.6434      1.00000
    118       0.6835      1.00000
    119       0.7097      1.00000
    120       0.7787      1.00000
    121       0.7890      1.00000
    122       0.7934      1.00000
    123       0.8525      1.00000
    124       0.8792      1.00000
    125       0.9181      1.00000
    126       0.9357      1.00000
    127       1.0226      1.00000
    128       1.0492      1.00000
    129       1.0766      1.00000
    130       1.1190      1.00000
    131       1.1479      1.00000
    132       1.1870      1.00000
    133       1.2508      1.00000
    134       1.2532      1.00000
    135       1.3129      1.00000
    136       1.3784      1.00000
    137       1.3927      1.00000
    138       1.4173      1.00000
    139       1.4631      1.00000
    140       1.4827      1.00000
    141       1.5243      1.00000
    142       1.5823      1.00000
    143       1.5879      1.00000
    144       1.6143      1.00000
    145       1.6566      1.00000
    146       1.7488      1.00000
    147       1.7695      1.00000
    148       1.8206      1.00000
[...]
   0.146E+01 -.116E+02 -.261E+02   -.214E+01 0.136E+02 0.289E+02   0.429E+00 -.193E+01 -.267E+01   0.945E-04 0.116E-03 0.162E-03
   -.550E+01 0.192E+02 0.281E+02   0.582E+01 -.212E+02 -.304E+02   -.292E+00 0.207E+01 0.280E+01   0.761E-04 -.167E-03 0.121E-04
   0.932E+01 0.125E+02 0.263E+02   -.956E+01 -.138E+02 -.279E+02   0.162E+00 0.131E+01 0.114E+01   0.285E-03 -.124E-03 -.199E-03
   0.183E+01 0.152E+02 0.204E+02   -.172E+01 -.169E+02 -.217E+02   0.170E+00 0.780E+00 0.132E+01   -.945E-04 -.336E-03 -.360E-03
   0.496E+01 0.108E+02 0.206E+02   -.490E+01 -.125E+02 -.223E+02   -.281E+00 0.121E+01 0.148E+01   0.797E-04 0.697E-04 -.456E-03
   -.607E+01 0.655E+01 0.308E+02   0.622E+01 -.748E+01 -.326E+02   -.357E-01 0.131E+01 0.191E+01   -.149E-03 -.165E-03 -.114E-03
   0.136E+02 0.131E+02 0.227E+02   -.141E+02 -.138E+02 -.239E+02   -.347E-01 0.112E+01 0.103E+01   0.118E-03 0.299E-03 -.129E-03
   -.438E+01 0.447E+01 0.359E+02   0.441E+01 -.574E+01 -.382E+02   -.766E-01 0.112E+01 0.188E+01   0.257E-03 -.198E-03 -.104E-03
   -.729E+01 0.415E+00 0.223E+02   0.746E+01 -.120E+01 -.243E+02   0.159E-01 0.786E+00 0.203E+01   0.479E-04 0.175E-03 -.196E-03
   0.126E+02 -.861E+01 -.246E+02   -.131E+02 0.100E+02 0.259E+02   0.344E+00 -.161E+01 -.937E+00   -.578E-04 0.376E-04 0.183E-03
   -.108E+02 0.211E+02 -.220E+02   0.123E+02 -.215E+02 0.232E+02   -.166E+01 0.148E+00 -.877E+00   -.602E-04 -.300E-04 0.353E-03
   0.361E+01 -.245E+02 -.343E+02   -.360E+01 0.263E+02 0.362E+02   0.442E+00 -.118E+01 -.133E+01   -.835E-04 0.747E-04 -.658E-04
   0.190E+01 -.127E+02 -.135E+02   -.200E+01 0.138E+02 0.145E+02   -.160E+00 -.119E+01 -.136E+01   0.403E-04 -.925E-04 0.362E-04
   -.845E+01 -.113E+02 -.210E+02   0.856E+01 0.126E+02 0.223E+02   0.768E-01 -.114E+01 -.179E+01   -.212E-03 -.166E-03 -.668E-05
   -.475E+01 -.107E+02 -.223E+02   0.460E+01 0.118E+02 0.235E+02   0.125E+00 -.162E+01 -.171E+01   0.211E-03 -.262E-03 -.153E-03
   -.178E+02 0.413E+01 -.243E+02   0.189E+02 -.461E+01 0.263E+02   -.123E+01 0.480E+00 -.171E+01   -.134E-03 0.163E-03 -.181E-04
   -.987E+01 0.133E+02 0.234E+02   0.104E+02 -.143E+02 -.252E+02   0.164E+00 0.802E+00 0.214E+01   0.298E-04 0.247E-03 -.293E-03
   0.371E+01 0.122E+02 0.123E+02   -.349E+01 -.133E+02 -.135E+02   0.168E+00 0.112E+01 0.151E+01   -.159E-03 -.837E-04 -.141E-03
   0.164E+01 -.142E+02 0.257E+02   -.171E+01 0.157E+02 -.269E+02   0.319E+00 -.118E+01 0.704E+00   0.188E-03 -.466E-04 -.964E-05
   -.543E+01 -.109E+02 0.298E+02   0.540E+01 0.125E+02 -.310E+02   -.325E-01 -.151E+01 0.630E+00   0.598E-04 0.109E-03 -.991E-04
   -.360E+01 0.754E+01 0.290E+02   0.440E+01 -.786E+01 -.304E+02   -.115E+01 -.143E-02 0.172E+01   -.253E-04 0.220E-03 0.173E-03
   -.769E+01 0.810E+01 -.992E+01   0.877E+01 -.843E+01 0.114E+02   -.136E+01 0.326E+00 -.209E+01   -.217E-03 0.148E-03 -.139E-03
   -.696E+00 0.602E+01 -.284E+02   0.474E+00 -.702E+01 0.303E+02   0.289E-02 0.867E+00 -.159E+01   -.102E-03 -.237E-03 -.428E-05
   -.103E+00 0.117E+02 -.316E+02   0.734E+00 -.128E+02 0.332E+02   -.314E+00 0.726E+00 -.184E+01   -.594E-03 0.155E-03 0.282E-03
   -.157E+02 0.692E+01 -.254E+02   0.171E+02 -.728E+01 0.264E+02   -.864E+00 -.366E+00 -.113E+01   -.199E-03 0.164E-03 0.264E-03
   -.116E+02 0.103E+01 -.238E+02   0.129E+02 -.113E+01 0.253E+02   -.131E+01 0.160E+00 -.150E+01   0.177E-04 -.131E-03 0.231E-03
   0.192E+00 0.162E+02 -.267E+02   0.159E+00 -.176E+02 0.283E+02   -.148E+00 0.870E+00 -.184E+01   0.461E-03 0.629E-04 0.249E-03
   0.495E+01 0.641E+01 -.328E+02   -.509E+01 -.736E+01 0.346E+02   -.247E+00 0.884E+00 -.242E+01   -.631E-04 0.257E-03 0.155E-03
   -.847E+01 0.180E+02 -.244E+02   0.933E+01 -.192E+02 0.259E+02   -.325E+00 0.854E+00 -.169E+01   -.135E-03 0.551E-04 0.408E-03
   -.308E+02 -.771E+01 -.405E+02   0.324E+02 0.767E+01 0.422E+02   -.129E+01 0.408E-01 -.130E+01   -.488E-05 0.197E-03 0.493E-04
   -.496E+01 0.712E+01 -.320E+02   0.505E+01 -.818E+01 0.339E+02   -.220E+00 0.117E+01 -.135E+01   -.108E-04 -.650E-04 0.371E-04
   0.110E+01 -.228E+02 0.362E+02   -.112E+01 0.244E+02 -.382E+02   0.860E-01 -.106E+01 0.146E+01   -.205E-03 -.744E-04 0.203E-03
   -.167E+02 0.257E+01 0.323E+02   0.181E+02 -.236E+01 -.346E+02   -.898E+00 0.324E+00 0.178E+01   0.311E-03 -.667E-04 0.264E-03
   -.149E+02 -.305E+01 0.199E+02   0.153E+02 0.414E+01 -.214E+02   0.106E+00 -.107E+01 0.163E+01   -.899E-04 0.220E-03 0.215E-03
   -.218E+02 0.494E+01 0.222E+02   0.231E+02 -.497E+01 -.239E+02   -.131E+01 0.276E+00 0.189E+01   0.134E-03 -.155E-03 0.184E-03
   0.750E+01 -.195E+02 0.229E+02   -.813E+01 0.209E+02 -.247E+02   0.273E+00 -.121E+01 0.178E+01   -.328E-03 -.232E-05 0.166E-03
   0.747E+01 -.168E+02 0.342E+02   -.752E+01 0.182E+02 -.355E+02   -.407E-01 -.155E+01 0.133E+01   -.901E-04 -.178E-03 0.333E-06
   0.698E+01 -.209E+02 -.210E+02   -.723E+01 0.226E+02 0.217E+02   0.343E-01 -.190E+01 -.941E+00   -.117E-03 -.342E-03 0.347E-03
 -----------------------------------------------------------------------------------------------
   -.108E+02 0.463E+01 0.113E+01   -.249E-13 0.000E+00 -.355E-13   0.108E+02 -.463E+01 -.113E+01   -.300E-03 0.435E-03 0.126E-02
 
 
 POSITION                                       TOTAL-FORCE (eV/Angst)
 -----------------------------------------------------------------------------------
      1.12134      0.55003      1.19919         0.161780     -0.261002      0.130428
      3.25038     10.66982      4.04946        -0.380455     -0.266358      0.361701
      6.89738      2.74091      4.13635         0.094720     -0.019088     -0.150407
      7.50482      6.63802      4.13211        -0.210774     -0.226328     -0.134070
      7.14015     10.95698      3.96719         0.446653      0.019603      0.154742
     11.53923      2.49460      4.12782        -0.498836     -0.493287     -0.360141
     11.13343      6.88864      4.32272         0.398784     -0.195088     -0.203792
     11.26238     11.35097      4.25298        -0.393290     -0.275468     -0.086336
      0.73643      1.78284      6.93074         0.104920      0.537692     -0.222761
      0.80952      6.01612      7.04824        -0.196799      0.299734      0.006518
      0.93899     10.06698      6.73671        -0.407238      0.202145      0.122547
      4.87619      1.80037      6.93838         0.181706     -0.217788      0.041912
      5.15225      6.04993      7.09018        -0.109801     -0.001489      0.015800
      4.96049     10.11192      7.00935         0.364360      0.584252      0.272632
      9.09447      1.85716      6.93861        -0.201055      0.056409      0.311688
      8.75100      5.82089      6.90825         0.596665      0.142156     -0.123551
      2.74259      6.74040      4.19441         0.210180      0.308722      0.299831
      2.96810      2.51637      4.44247         0.242072      0.456211     -0.094845
      9.19928     10.21308      6.90975         0.026336     -0.086970     -0.283398
     11.61831      8.24953      9.66754        -0.709359      0.595241     -0.156993
     11.37985     12.32866      9.60161        -0.674482      0.153644      0.545710
      0.97899      4.65270      1.52804        -0.308150     -0.068574     -0.569933
      0.58969      9.03907      1.39576        -0.013155     -0.311170      0.426676
      4.87480      0.49396      1.33663         0.279522      0.008533      0.432645
      4.98606      4.73541      1.46522         0.007395     -0.101076      0.479598
      9.17704      0.67078      1.12606        -0.055826      0.191380      0.311200
      9.47876      4.38788      1.54282         0.022188      0.394366      0.194613
      5.15917      8.55292      1.58034         0.364037     -0.089669     -0.405417
      3.14307      3.92489      9.86983        -0.269621      0.028784     -0.363454
      3.08798      8.23701      9.68571        -0.196148      0.244662      0.265011
      3.10546     12.41530      9.49526        -0.092079     -0.134720      0.025188
      7.23675      3.95657      9.77873        -0.184183      0.380812      0.123738
      7.26977      8.16992      9.55445        -0.198711      0.032990      0.430299
      7.11624     12.18919      9.58209         0.226106      0.268774     -0.017608
     11.37047      4.06508      9.50913        -0.254409     -0.017553      0.127538
      9.22879      8.78793      1.12763         0.027963      0.062581      0.558083
     11.14523      0.22268      7.15554        -0.083722     -0.087045     -0.457563
      2.96401      4.67509      7.35471         0.284905     -0.903298      0.014544
      2.96339      8.52041      7.17300        -0.225207     -0.478398     -0.182997
      6.92720      0.05664      7.04874         0.107654      0.375228      0.049276
      6.96072      3.98631      7.22314        -0.524839      0.411652     -0.148499
      7.07516      8.58118      7.09327        -0.038996     -0.156456     -0.388094
     11.04543      4.33332      7.01246         0.184213     -0.001655      0.082037
      9.10956      0.31527      3.68810        -0.189269     -0.167634      0.338027
      0.74766      0.45440      3.71004        -0.195294     -0.305380      0.327303
      0.94996      4.13772      3.96703         0.456062      0.627986      0.653554
      0.79016      8.51947      4.05122        -0.255980     -0.138101     -0.406212
      5.02216     12.48297      3.93160         0.184197      0.213174     -0.489826
      4.89900      4.49935      4.15609        -0.022682     -0.539909     -0.476288
      4.84851      8.52795      4.04367        -0.174770     -0.002633      0.324829
      2.61030      0.07641      6.94584         0.685327     -0.276029      0.296202
     11.08128      8.42190      7.05562         0.381577      0.060508      0.377640
     11.02092     10.58580      1.77892         0.254587      0.311310     -0.483421
      3.02768      2.19568      1.88839        -0.067157      0.036734     -0.566548
     11.20434      2.43740      1.43705        -0.350235     -0.324804      0.347252
      9.02681      4.35752      4.12668        -0.280149     -0.006942     -0.572664
      0.97173      2.40108      9.38337        -0.218964     -0.135940      0.283064
      0.88187      6.49306      9.59325         0.316710     -0.407083     -0.231015
      0.69041     10.61877      9.40124         0.568547     -0.727134     -0.094075
      4.86366      2.04894      9.48619        -0.036837      0.056901     -0.044667
      5.04889      6.65897      9.64847         0.203033     -0.487125     -0.230464
      5.02905     10.59191      9.65083        -0.385158     -0.065108     -0.566378
      9.09843      2.33001      9.55086         0.529091     -0.395788     -0.279353
      8.86523      6.20300      9.37475         0.269592      0.006671      0.371591
      9.23021     10.62417      9.36745        -0.130454      0.111732      0.530704
      2.86601      6.32462      1.75129         0.065684      0.549140     -0.518289
      2.54546     10.60267      1.62025         0.445047      0.526503     -0.468078
      6.75706      2.26475      1.55717         0.541598      0.008700      0.098265
      6.92669      6.45544      1.58274        -0.045542      0.245950      0.242708
      7.17923     10.34551      1.49073        -0.352504      0.169122     -0.078509
     11.31216      6.26321      1.74415        -0.089229     -0.121323      0.038366
      9.24611      8.50111      3.79435        -0.211855     -0.186586     -0.157813
 -----------------------------------------------------------------------------------
    total drift:                                0.001329     -0.001103     -0.000180


--------------------------------------------------------------------------------------------------------



  FREE ENERGIE OF THE ION-ELECTRON SYSTEM (eV)
  ---------------------------------------------------
  free  energy   TOTEN  =      -300.63908330 eV

  energy  without entropy=     -300.63908330  energy(sigma->0) =     -300.63908330
 


--------------------------------------------------------------------------------------------------------


    POTLOK:  cpu time      0.7320: real time      0.7343


--------------------------------------------------------------------------------------------------------


     LOOP+:  cpu time    180.9842: real time    181.9318
    4ORBIT:  cpu time      0.0000: real time      0.0000



 total charge

# of ion       s       p       d       tot
------------------------------------------
    1        1.326   0.743   0.053   2.122
    2        1.309   0.810   0.059   2.179
    3        1.323   0.754   0.049   2.126
    4        1.318   0.768   0.053   2.139
    5        1.325   0.760   0.052   2.138
    6        1.325   0.774   0.061   2.160
    7        1.321   0.770   0.056   2.147
    8        1.316   0.777   0.054   2.147
    9        1.295   0.838   0.063   2.196
   10        1.325   0.750   0.054   2.129
   11        1.342   0.701   0.050   2.094
   12        1.328   0.730   0.050   2.109
   13        1.336   0.734   0.051   2.121
   14        1.322   0.767   0.056   2.145
   15        1.337   0.713   0.049   2.099
   16        1.309   0.797   0.062   2.168
   17        1.320   0.775   0.058   2.152
   18        1.326   0.743   0.054   2.123
   19        1.313   0.790   0.059   2.162
   20        1.315   0.776   0.055   2.146
   21        1.309   0.818   0.064   2.191
   22        1.310   0.818   0.065   2.193
   23        1.304   0.798   0.058   2.160
   24        1.316   0.776   0.056   2.148
   25        1.325   0.743   0.055   2.124
   26        1.336   0.702   0.047   2.085
   27        1.318   0.768   0.052   2.138
   28        1.326   0.760   0.054   2.140
   29        1.317   0.758   0.051   2.127
   30        1.326   0.771   0.058   2.155
   31        1.326   0.744   0.051   2.121
   32        1.326   0.774   0.060   2.159
   33        1.309   0.812   0.063   2.183
   34        1.318   0.773   0.055   2.146
   35        1.329   0.747   0.052   2.129
   36        1.325   0.739   0.055   2.119
   37        1.476   2.324   0.037   3.837
   38        1.472   2.315   0.030   3.817
   39        1.474   2.327   0.036   3.837
   40        1.478   2.277   0.027   3.782
   41        1.477   2.305   0.036   3.818
   42        1.478   2.306   0.034   3.818
   43        1.480   2.279   0.030   3.788
   44        1.474   2.292   0.027   3.793
   45        1.477   2.317   0.035   3.829
   46        1.472   2.344   0.039   3.854
   47        1.476   2.288   0.028   3.791
   48        1.477   2.305   0.032   3.814
   49        1.478   2.272   0.026   3.776
   50        1.476   2.298   0.032   3.806
   51        1.481   2.287   0.032   3.799
   52        1.477   2.281   0.026   3.784
   53        1.472   2.314   0.032   3.818
   54        1.474   2.317   0.035   3.825
   55        1.478   2.285   0.031   3.794
   56        1.480   2.276   0.030   3.787
   57        1.474   2.302   0.030   3.806
   58        1.479   2.307   0.034   3.821
   59        1.474   2.308   0.030   3.813
   60        1.478   2.299   0.033   3.809
   61        1.476   2.307   0.031   3.814
   62        1.481   2.276   0.031   3.787
   63        1.474   2.305   0.030   3.810
   64        1.475   2.314   0.032   3.821
   65        1.475   2.306   0.032   3.813
   66        1.473   2.335   0.035   3.843
   67        1.475   2.309   0.030   3.814
   68        1.475   2.285   0.027   3.786
   69        1.476   2.290   0.029   3.795
   70        1.474   2.307   0.029   3.809
   71        1.475   2.294   0.027   3.796
   72        1.478   2.305   0.033   3.816
--------------------------------------------------
tot        100.695 110.426   3.124 214.245



 magnetization (x)

# of ion       s       p       d       tot
------------------------------------------
    1       -0.000   0.000   0.000   0.000
    2       -0.000   0.000   0.000   0.000
    3       -0.000   0.000   0.000   0.000
    4       -0.000  -0.000  -0.000  -0.000
    5       -0.000  -0.000  -0.000  -0.000
    6       -0.000   0.000   0.000   0.000
    7       -0.000   0.000  -0.000  -0.000
    8       -0.000   0.000   0.000   0.000
    9       -0.000   0.000   0.000   0.000
   10       -0.000   0.000   0.000   0.000
   11       -0.000   0.000   0.000   0.000
   12       -0.000   0.000   0.000   0.000
   13       -0.000   0.000   0.000   0.000
   14       -0.000   0.000   0.000   0.000
   15       -0.000   0.000   0.000   0.000
   16       -0.000  -0.000  -0.000  -0.000
   17       -0.000   0.000   0.000   0.000
   18       -0.000   0.000   0.000   0.000
   19       -0.000   0.000  -0.000  -0.000
   20       -0.000   0.000  -0.000  -0.000
   21       -0.000   0.000   0.000   0.000
   22       -0.000   0.000   0.000   0.000
   23       -0.000   0.000  -0.000   0.000
   24       -0.000   0.000   0.000   0.000
   25       -0.000   0.000   0.000   0.000
   26       -0.000   0.000   0.000   0.000
   27       -0.000   0.000  -0.000  -0.000
   28       -0.000   0.000  -0.000   0.000
   29       -0.000   0.000   0.000   0.000
   30       -0.000   0.000   0.000   0.000
   31       -0.000   0.000   0.000   0.000
   32       -0.000   0.000  -0.000   0.000
   33       -0.000   0.000  -0.000   0.000
   34       -0.000   0.000   0.000   0.000
   35       -0.000   0.000  -0.000   0.000
   36       -0.000  -0.000  -0.000  -0.000
   37       -0.000  -0.000   0.000  -0.000
   38       -0.000  -0.000   0.000  -0.000
   39       -0.000  -0.000   0.000  -0.000
   40       -0.000  -0.000   0.000  -0.000
   41       -0.000  -0.000  -0.000  -0.000
   42       -0.000  -0.000  -0.000  -0.000
   43       -0.000  -0.000   0.000  -0.000
   44       -0.000  -0.000  -0.000  -0.000
   45       -0.000  -0.000   0.000  -0.000
   46       -0.000  -0.000   0.000  -0.000
   47       -0.000  -0.000   0.000  -0.000
   48       -0.000  -0.000   0.000  -0.000
   49       -0.000  -0.000   0.000  -0.000
   50       -0.000  -0.000  -0.000  -0.000
   51       -0.000  -0.000   0.000  -0.000
   52       -0.000  -0.000  -0.000  -0.000
   53       -0.000  -0.000  -0.000  -0.000
   54       -0.000  -0.000   0.000  -0.000
   55       -0.000  -0.000   0.000  -0.000
   56       -0.000  -0.000  -0.000  -0.000
   57       -0.000  -0.000   0.000  -0.000
   58       -0.000  -0.000   0.000  -0.000
   59       -0.000  -0.000   0.000  -0.000
   60       -0.000  -0.000   0.000  -0.000
   61       -0.000  -0.000   0.000  -0.000
   62       -0.000  -0.000   0.000  -0.000
   63       -0.000  -0.000   0.000  -0.000
   64       -0.000  -0.000  -0.000  -0.000
   65       -0.000  -0.000  -0.000  -0.000
   66       -0.000  -0.000   0.000  -0.000
   67       -0.000  -0.000   0.000  -0.000
   68       -0.000  -0.000   0.000  -0.000
   69       -0.000  -0.000  -0.000  -0.000
   70       -0.000  -0.000  -0.000  -0.000
   71       -0.000  -0.000  -0.000  -0.000
   72       -0.000  -0.000  -0.000  -0.000
--------------------------------------------------
tot         -0.000  -0.000   0.000  -0.000
 

 total amount of memory used by VASP MPI-rank0   111004. kBytes
=======================================================================

   base      :      30000. kBytes
   nonl-proj :      16422. kBytes
   fftplans  :       6180. kBytes
   grid      :      15593. kBytes
   one-center:        146. kBytes
   wavefun   :      42663. kBytes
 
  
  
 General timing and accounting informations for this job:
 ========================================================
  
                  Total CPU time used (sec):      193.045
                            User time (sec):      186.680
                          System time (sec):        6.365
                         Elapsed time (sec):      195.570
  
                   Maximum memory used (kb):      318952.
                   Average memory used (kb):          N/A
  
                          Minor page faults:       109942
                          Major page faults:           41
                 Voluntary context switches:         8128
