 vasp.6.4.2 20Jul23 (build Oct 12 2023 10:31:02) complex                         
 executed on              LinuxNV date 2024.11.02  00:32:53
 running  128 mpi-ranks, with    1 threads/rank, on    2 nodes
 distrk:  each k-point on   64 cores,    2 groups
 distr:  one band on NCORE=   8 cores,    8 groups


--------------------------------------------------------------------------------------------------------


 INCAR:
   ENCUT = 520.000000
   SIGMA = 0.050000
   EDIFF = 1.00e-06
   ALGO = N
   GGA = PE
   PREC = Accurate
   SYSTEM = 01_AOPT
   ICHARG = 0
   ISMEAR = 0
   ISPIN = 2
   ISTART = 1
   ISYM = -1
   KPAR = 2
   LORBIT = 11
   NBANDS = 220
   NELM = 100
   NELMIN = 5
   NPAR = 8
   LASPH = .TRUE.
   LCHARG = .FALSE.
   LWAVE = .FALSE.
   LREAL = .FALSE.

 POTCAR:    PAW_PBE Ge 05Jan2001                  
 POTCAR:    PAW_PBE Se 06Sep2000                  
 -----------------------------------------------------------------------------
|                                                                             |
|           W    W    AA    RRRRR   N    N  II  N    N   GGGG   !!!           |
|           W    W   A  A   R    R  NN   N  II  NN   N  G    G  !!!           |
|           W    W  A    A  R    R  N N  N  II  N N  N  G       !!!           |
|           W WW W  AAAAAA  RRRRR   N  N N  II  N  N N  G  GGG   !            |
|           WW  WW  A    A  R   R   N   NN  II  N   NN  G    G                |
|           W    W  A    A  R    R  N    N  II  N    N   GGGG   !!!           |
|                                                                             |
|     You use a magnetic or noncollinear calculation, but did not specify     |
|     the initial magnetic moment with the MAGMOM tag. Note that a            |
|     default of 1 will be used for all atoms. This ferromagnetic setup       |
|     may break the symmetry of the crystal, in particular it may rule        |
|     out finding an antiferromagnetic solution. Thence, we recommend         |
|     setting the initial magnetic moment manually or verifying carefully     |
|     that this magnetic setup is desired.                                    |
|                                                                             |
 -----------------------------------------------------------------------------

 POTCAR:    PAW_PBE Ge 05Jan2001                  
   VRHFIN =Ge: s2p2                                                                                 
   LEXCH  = PE                                                                                      
   EATOM  =   104.9960 eV,    7.7170 Ry                                                             
                                                                                                    
   TITEL  = PAW_PBE Ge 05Jan2001                                                                    
   LULTRA =        F    use ultrasoft PP ?                                                          
   IUNSCR =        1    unscreen: 0-lin 1-nonlin 2-no                                               
   RPACOR =    2.170    partial core radius                                                         
   POMASS =   72.610; ZVAL   =    4.000    mass and valenz                                          
   RCORE  =    2.300    outmost cutoff radius                                                       
   RWIGS  =    2.300; RWIGS  =    1.217    wigner-seitz radius (au A)                               
   ENMAX  =  173.807; ENMIN  =  130.355 eV                                                          
   ICORE  =        3    local potential                                                             
   LCOR   =        T    correct aug charges                                                         
   LPAW   =        T    paw PP                                                                      
   EAUG   =  385.843                                                                                
   DEXC   =    0.000                                                                                
   RMAX   =    2.342    core radius for proj-oper                                                   
   RAUG   =    1.300    factor for augmentation sphere                                              
   RDEP   =    2.318    radius for radial grids                                                     
   RDEPT  =    2.103    core radius for aug-charge                                                  
                                                                                                    
   Atomic configuration                                                                             
   10 entries                                                                                       
     n  l   j            E        occ.                                                              
     1  0  0.50    -10959.8463   2.0000                                                             
     2  0  0.50     -1371.6056   2.0000                                                             
     2  1  1.50     -1198.4791   6.0000                                                             
     3  0  0.50      -168.4733   2.0000                                                             
     3  1  1.50      -115.6019   6.0000                                                             
     3  2  2.50       -29.3106  10.0000                                                             
     4  0  0.50       -11.7309   2.0000                                                             
     4  1  0.50        -3.8952   2.0000                                                             
     4  2  1.50        -4.0817   0.0000                                                             
     4  3  2.50        -4.0817   0.0000                                                             
   Description                                                                                      
     l       E           TYP  RCUT    TYP  RCUT                                                     
     0    -11.7309493     23  2.300                                                                 
     0     -7.4578696     23  2.300                                                                 
     1     -3.8952261     23  2.300                                                                 
     1      6.1178114     23  2.300                                                                 
     2     -4.0817478     23  2.300                                                                 
     3     -1.3605826      7  2.300                                                                 
  local pseudopotential read in
  partial core-charges read in
  partial kinetic energy density read in
  atomic valenz-charges read in
  non local Contribution for L=            0  read in
    real space projection operators read in
  non local Contribution for L=            0  read in
    real space projection operators read in
  non local Contribution for L=            1  read in
    real space projection operators read in
  non local Contribution for L=            1  read in
    real space projection operators read in
  non local Contribution for L=            2  read in
    real space projection operators read in
    PAW grid and wavefunctions read in
 
   number of l-projection  operators is LMAX  =            5
   number of lm-projection operators is LMMAX =           13
 
 POTCAR:    PAW_PBE Se 06Sep2000                  
   VRHFIN =Se: s2p4                                                                                 
   LEXCH  = PE                                                                                      
   EATOM  =   257.1286 eV,   18.8984 Ry                                                             
                                                                                                    
   TITEL  = PAW_PBE Se 06Sep2000                                                                    
   LULTRA =        F    use ultrasoft PP ?                                                          
   IUNSCR =        1    unscreen: 0-lin 1-nonlin 2-no                                               
   RPACOR =    1.900    partial core radius                                                         
   POMASS =   78.960; ZVAL   =    6.000    mass and valenz                                          
   RCORE  =    2.100    outmost cutoff radius                                                       
   RWIGS  =    2.200; RWIGS  =    1.164    wigner-seitz radius (au A)                               
   ENMAX  =  211.555; ENMIN  =  158.666 eV                                                          
   ICORE  =        3    local potential                                                             
   LCOR   =        T    correct aug charges                                                         
   LPAW   =        T    paw PP                                                                      
   EAUG   =  446.842                                                                                
   DEXC   =    0.000                                                                                
   RMAX   =    2.147    core radius for proj-oper                                                   
   RAUG   =    1.300    factor for augmentation sphere                                              
   RDEP   =    2.177    radius for radial grids                                                     
   RDEPT  =    1.928    core radius for aug-charge                                                  
                                                                                                    
   Atomic configuration                                                                             
   10 entries                                                                                       
     n  l   j            E        occ.                                                              
     1  0  0.50    -12503.4787   2.0000                                                             
     2  0  0.50     -1606.9547   2.0000                                                             
     2  1  1.50     -1413.3140   6.0000                                                             
     3  0  0.50      -213.4885   2.0000                                                             
     3  1  1.50      -152.9538   6.0000                                                             
     3  2  2.50       -53.1221  10.0000                                                             
     4  0  0.50       -17.2865   2.0000                                                             
     4  1  0.50        -6.5110   4.0000                                                             
     4  2  2.50        -6.8029   0.0000                                                             
     4  3  2.50        -6.8029   0.0000                                                             
   Description                                                                                      
     l       E           TYP  RCUT    TYP  RCUT                                                     
     0    -17.2865377     23  2.100                                                                 
     0    -15.3094411     23  2.100                                                                 
     1     -6.5110275     23  2.100                                                                 
     1     -0.0695192     23  2.100                                                                 
     2     -6.8029130     23  2.100                                                                 
     3     -1.3605826      7  2.100                                                                 
  local pseudopotential read in
  partial core-charges read in
  partial kinetic energy density read in
  atomic valenz-charges read in
  non local Contribution for L=            0  read in
    real space projection operators read in
  non local Contribution for L=            0  read in
    real space projection operators read in
  non local Contribution for L=            1  read in
    real space projection operators read in
  non local Contribution for L=            1  read in
    real space projection operators read in
  non local Contribution for L=            2  read in
    real space projection operators read in
    PAW grid and wavefunctions read in
 
   number of l-projection  operators is LMAX  =            5
   number of lm-projection operators is LMMAX =           13
 
 -----------------------------------------------------------------------------
|                                                                             |
|               ----> ADVICE to this user running VASP <----                  |
|                                                                             |
|     You have a (more or less) 'large supercell' and for larger cells it     |
|     might be more efficient to use real-space projection operators.         |
|     Therefore, try LREAL= Auto in the INCAR file.                           |
|     Mind: For very accurate calculation, you might also keep the            |
|     reciprocal projection scheme (i.e. LREAL=.FALSE.).                      |
|                                                                             |
 -----------------------------------------------------------------------------

  PAW_PBE Ge 05Jan2001                  :
 energy of atom  1       EATOM= -104.9960
 kinetic energy error for atom=    0.0002 (will be added to EATOM!!)
  PAW_PBE Se 06Sep2000                  :
 energy of atom  2       EATOM= -257.1286
 kinetic energy error for atom=    0.0007 (will be added to EATOM!!)
 
 
 POSCAR: Ge Se
  positions in cartesian coordinates
  No initial velocities read in
 exchange correlation table for  LEXCH =        8
   RHO(1)=    0.500       N(1)  =     2000
   RHO(2)=  100.500       N(2)  =     4000
 


--------------------------------------------------------------------------------------------------------


 ion  position               nearest neighbor table
   1  0.042  0.039  0.124-  55 2.56  45 2.60  53 2.72
   2  0.229  0.888  0.367-  45 2.59  67 2.63  48 2.76
   3  0.565  0.185  0.374-  68 2.52  49 2.77
   4  0.541  0.539  0.373-  50 2.47  69 2.66  49 2.85
   5  0.557  0.864  0.353-  70 2.43  48 2.60
   6  0.899  0.211  0.374-  56 2.52  55 2.64  46 2.72
   7  0.909  0.547  0.368-  71 2.57  72 2.64  47 2.68
   8  0.885  0.865  0.379-  53 2.61  44 2.61  72 2.72
   9  0.063  0.135  0.632-  37 2.54  57 2.62  51 2.85
  10  0.065  0.478  0.650-  58 2.52  43 2.56  38 2.63
  11  0.077  0.809  0.638-  59 2.57  52 2.71  39 2.82
  12  0.410  0.149  0.617-  60 2.57  51 2.57
  13  0.411  0.464  0.645-  61 2.39  38 2.76
  14  0.414  0.826  0.629-  62 2.59  39 2.69
  15  0.756  0.126  0.618-  37 2.57  40 2.63  63 2.68
  16  0.749  0.475  0.642-  64 2.51  41 2.64  43 2.70
  17  0.199  0.522  0.380-  47 2.67  66 2.73
  18  0.235  0.203  0.376-  46 2.61  54 2.62
  19  0.739  0.811  0.641-  65 2.49  42 2.60  52 2.63
  20  0.891  0.645  0.881-  58 2.61  52 2.61  64 2.62
  21  0.882  0.003  0.860-  37 2.48  63 2.58  65 2.62
  22  0.058  0.386  0.104-  71 2.57  46 2.60  66 2.62
  23  0.082  0.723  0.137-  53 2.50  47 2.52  67 2.80
  24  0.407  0.047  0.137-  48 2.59  54 2.64  68 2.83
  25  0.381  0.350  0.135-  49 2.56  66 2.59  54 2.83
  26  0.739  0.040  0.121-  44 2.55  55 2.66  68 2.69
  27  0.745  0.395  0.137-  69 2.62  71 2.65  56 2.72
  28  0.393  0.681  0.124-  50 2.51  67 2.84
  29  0.241  0.311  0.870-  38 2.46  60 2.58  57 2.63
  30  0.229  0.666  0.847-  39 2.51  59 2.60  58 2.71
  31  0.245  0.980  0.865-  51 2.56  59 2.64  62 2.81
  32  0.566  0.323  0.866-  41 2.53  60 2.65
  33  0.567  0.638  0.864-  61 2.49  42 2.57
  34  0.559  0.985  0.879-  40 2.52  62 2.64  65 2.82
  35  0.914  0.309  0.880-  57 2.61  63 2.66  43 2.67
  36  0.721  0.688  0.158-  72 2.49  69 2.60  70 2.64
  37  0.915  0.995  0.639-  21 2.48   9 2.54  15 2.57
  38  0.226  0.342  0.652-  29 2.46  10 2.63  13 2.76
  39  0.259  0.676  0.624-  30 2.51  14 2.69  11 2.82
  40  0.591  0.999  0.655-  34 2.52  15 2.63
  41  0.597  0.327  0.640-  32 2.53  16 2.64
  42  0.585  0.670  0.636-  33 2.57  19 2.60
  43  0.916  0.337  0.641-  10 2.56  35 2.67  16 2.70
  44  0.736  0.010  0.349-  26 2.55   8 2.61
  45  0.078  0.031  0.355-   2 2.59   1 2.60
  46  0.076  0.333  0.331-  22 2.60  18 2.61   6 2.72
  47  0.068  0.690  0.361-  23 2.52  17 2.67   7 2.68
  48  0.412  0.013  0.369-  24 2.59   5 2.60   2 2.76
  49  0.415  0.349  0.363-  25 2.56   3 2.77   4 2.85
  50  0.396  0.671  0.351-   4 2.47  28 2.51
  51  0.256  0.013  0.637-  31 2.56  12 2.57   9 2.85
  52  0.903  0.679  0.648-  20 2.61  19 2.63  11 2.71
  53  0.930  0.853  0.150-  23 2.50   8 2.61   1 2.72
  54  0.238  0.174  0.142-  18 2.62  24 2.64  25 2.83
  55  0.896  0.183  0.138-   1 2.56   6 2.64  26 2.66
  56  0.754  0.352  0.377-   6 2.52  27 2.72
  57  0.077  0.178  0.863-  35 2.61   9 2.62  29 2.63
  58  0.064  0.527  0.871-  10 2.52  20 2.61  30 2.71
  59  0.098  0.827  0.868-  11 2.57  30 2.60  31 2.64
  60  0.404  0.186  0.845-  12 2.57  29 2.58  32 2.65
  61  0.419  0.504  0.855-  13 2.39  33 2.49
  62  0.415  0.831  0.862-  14 2.59  34 2.64  31 2.81
  63  0.756  0.167  0.855-  21 2.58  35 2.66  15 2.68
  64  0.749  0.491  0.868-  16 2.51  20 2.62
  65  0.739  0.849  0.862-  19 2.49  21 2.62  34 2.82
  66  0.234  0.496  0.138-  25 2.59  22 2.62  17 2.73
  67  0.257  0.864  0.133-   2 2.63  23 2.80  28 2.84
  68  0.585  0.189  0.147-   3 2.52  26 2.69  24 2.83
  69  0.585  0.532  0.138-  36 2.60  27 2.62   4 2.66
  70  0.567  0.832  0.137-   5 2.43  36 2.64
  71  0.911  0.527  0.137-   7 2.57  22 2.57  27 2.65
  72  0.754  0.691  0.380-  36 2.49   7 2.64   8 2.72
 

IMPORTANT INFORMATION: All symmetrisations will be switched off!
NOSYMM: (Re-)initialisation of all symmetry stuff for point group C_1.


----------------------------------------------------------------------------------------

                                     Primitive cell                                     

  volume of cell :    1721.4498

  direct lattice vectors                    reciprocal lattice vectors
    12.432022887 -0.000001076 -0.000002438     0.080437432  0.000000007  0.000000020
    -0.000001083 12.511674392  0.000001447     0.000000007  0.079925354 -0.000000012
    -0.000002794  0.000001647 11.067184158     0.000000018 -0.000000010  0.090357221

  length of vectors
    12.432022887 12.511674392 11.067184158     0.080437432  0.079925354  0.090357221

  position of ions in fractional coordinates (direct lattice)
     0.041550641  0.038512848  0.124037075
     0.229375882  0.888372515  0.367375842
     0.564602299  0.185129536  0.373889917
     0.541224261  0.538685703  0.372805567
     0.556744235  0.864300534  0.352813494
     0.898779505  0.210728500  0.373952712
     0.909092243  0.546597132  0.368332865
     0.884712425  0.864978930  0.379408135
     0.062875205  0.134688608  0.631559651
     0.064778735  0.478024734  0.649915658
     0.077231076  0.809472864  0.638313112
     0.409940234  0.149286396  0.617057695
     0.411014661  0.463997029  0.644814830
     0.414327264  0.825501017  0.628601235
     0.756480077  0.126252445  0.617540845
     0.748895037  0.474728869  0.641776040
     0.199413572  0.522347531  0.379903437
     0.235058714  0.202550420  0.376421801
     0.738674924  0.811477391  0.641319523
     0.890821580  0.645456726  0.880901786
     0.881602051  0.002843707  0.860101238
     0.057786633  0.385675826  0.104474652
     0.082144171  0.723402968  0.136518935
     0.407297474  0.047030166  0.137473030
     0.381111408  0.349770468  0.135189113
     0.739359266  0.039927433  0.120653259
     0.744556016  0.395125359  0.136568662
     0.392656586  0.680512858  0.124427626
     0.240673156  0.310557667  0.870245981
     0.229317103  0.666130937  0.847445335
     0.244571814  0.979598403  0.864974600
     0.565601267  0.323006474  0.865516224
     0.567154399  0.637805797  0.863734719
     0.559485424  0.984569917  0.878885562
     0.914077283  0.308821282  0.879903555
     0.720795555  0.688118320  0.158150817
     0.914882989  0.995054029  0.638903041
     0.226177424  0.341890380  0.651741342
     0.259258885  0.676128225  0.623813495
     0.591289967  0.998916333  0.654520257
     0.597293165  0.326852287  0.639762118
     0.585436452  0.670286670  0.635714180
     0.915896373  0.336924497  0.641185270
     0.736487745  0.009990241  0.348721673
     0.078313959  0.030505446  0.354859479
     0.075650436  0.332635491  0.330507899
     0.068478692  0.690309239  0.360807300
     0.412136814  0.013361579  0.368601381
     0.414998340  0.349149638  0.363050150
     0.395891346  0.671413027  0.350979756
     0.256385378  0.012637858  0.636939923
     0.903273913  0.679029713  0.648171694
     0.929791851  0.853193547  0.149734827
     0.238145714  0.174271840  0.141626970
     0.896450406  0.183273997  0.137745062
     0.754192341  0.352121767  0.376805672
     0.076763414  0.177934960  0.863014978
     0.063606216  0.527077001  0.870514742
     0.098309294  0.826792678  0.868227182
     0.404416640  0.185899467  0.845095132
     0.418591246  0.504441702  0.855412562
     0.414641832  0.831454071  0.862271530
     0.756280263  0.167125325  0.854941988
     0.749135395  0.491088917  0.868147825
     0.739483231  0.848578887  0.862398147
     0.233920766  0.496264250  0.137896470
     0.257277407  0.863639379  0.133227232
     0.584739571  0.188955689  0.147355714
     0.584506757  0.531749507  0.137823817
     0.566920205  0.832119833  0.136980373
     0.911098156  0.527274559  0.137348913
     0.754386290  0.690584242  0.379726131

  ion indices of the primitive-cell ions
   primitive index   ion index
                 1           1
                 2           2
                 3           3
                 4           4
                 5           5
                 6           6
                 7           7
                 8           8
                 9           9
                10          10
                11          11
                12          12
                13          13
                14          14
                15          15
                16          16
                17          17
                18          18
                19          19
                20          20
                21          21
                22          22
                23          23
                24          24
                25          25
                26          26
                27          27
                28          28
                29          29
                30          30
                31          31
                32          32
                33          33
                34          34
                35          35
                36          36
                37          37
                38          38
                39          39
                40          40
                41          41
                42          42
                43          43
                44          44
                45          45
                46          46
                47          47
                48          48
                49          49
                50          50
                51          51
                52          52
                53          53
                54          54
                55          55
                56          56
                57          57
                58          58
                59          59
                60          60
                61          61
                62          62
                63          63
                64          64
                65          65
                66          66
                67          67
                68          68
                69          69
                70          70
                71          71
                72          72

----------------------------------------------------------------------------------------

 
 
 KPOINTS: KPOINTS created by Atomic Simulation Env

Automatic generation of k-mesh.
 Grid dimensions read from file:
 generate k-points for:    2    2    2

 Generating k-lattice:

  Cartesian coordinates                     Fractional coordinates (reciprocal lattice)
     0.040218716  0.000000003  0.000000010     0.500000000  0.000000000  0.000000000
     0.000000003  0.039962677 -0.000000006     0.000000000  0.500000000 -0.000000000
     0.000000009 -0.000000005  0.045178610     0.000000000  0.000000000  0.500000000

  Length of vectors
     0.040218716  0.039962677  0.045178610

  Shift w.r.t. Gamma in fractional coordinates (k-lattice)
     0.000000000  0.000000000  0.000000000

 
 Subroutine IBZKPT returns following result:
 ===========================================
 
 Found      8 irreducible k-points:
 
 Following reciprocal coordinates:
            Coordinates               Weight
  0.000000  0.000000  0.000000      1.000000
  0.500000  0.000000  0.000000      1.000000
  0.000000  0.500000  0.000000      1.000000
  0.500000  0.500000  0.000000      1.000000
  0.000000  0.000000  0.500000      1.000000
  0.500000  0.000000  0.500000      1.000000
  0.000000  0.500000  0.500000      1.000000
  0.500000  0.500000  0.500000      1.000000
 
 Following cartesian coordinates:
            Coordinates               Weight
  0.000000  0.000000  0.000000      1.000000
  0.040219  0.000000  0.000000      1.000000
  0.000000  0.039963 -0.000000      1.000000
  0.040219  0.039963  0.000000      1.000000
  0.000000 -0.000000  0.045179      1.000000
  0.040219 -0.000000  0.045179      1.000000
  0.000000  0.039963  0.045179      1.000000
  0.040219  0.039963  0.045179      1.000000
 
 -----------------------------------------------------------------------------
|                                                                             |
|           W    W    AA    RRRRR   N    N  II  N    N   GGGG   !!!           |
|           W    W   A  A   R    R  NN   N  II  NN   N  G    G  !!!           |
|           W    W  A    A  R    R  N N  N  II  N N  N  G       !!!           |
|           W WW W  AAAAAA  RRRRR   N  N N  II  N  N N  G  GGG   !            |
|           WW  WW  A    A  R   R   N   NN  II  N   NN  G    G                |
|           W    W  A    A  R    R  N    N  II  N    N   GGGG   !!!           |
|                                                                             |
|     The number of bands has been changed from the values supplied in        |
|     the INCAR file. This is a result of running the parallel version.       |
|     The orbitals not found in the WAVECAR file will be initialized with     |
|     random numbers, which is usually adequate. For correlated               |
|     calculations, however, you should redo the groundstate calculation.     |
|     I found NBANDS = 220. Now, NBANDS = 224.                                |
|                                                                             |
 -----------------------------------------------------------------------------



--------------------------------------------------------------------------------------------------------




 Dimension of arrays:
   k-points           NKPTS =      8   k-points in BZ     NKDIM =      8   number of bands    NBANDS=    224
   number of dos      NEDOS =    301   number of ions     NIONS =     72
   non local maximal  LDIM  =      5   non local SUM 2l+1 LMDIM =     13
   total plane-waves  NPLWV = 774144
   max r-space proj   IRMAX =      1   max aug-charges    IRDMAX=  24638
   dimension x,y,z NGX =    96 NGY =   96 NGZ =   84
   dimension x,y,z NGXF=   192 NGYF=  192 NGZF=  168
   support grid    NGXF=   192 NGYF=  192 NGZF=  168
   ions per type =              36  36
   NGX,Y,Z   is equivalent  to a cutoff of  12.84, 12.76, 12.62 a.u.
   NGXF,Y,Z  is equivalent  to a cutoff of  25.68, 25.51, 25.24 a.u.

 SYSTEM =  01_AOPT                                 
 POSCAR =  Ge Se                                   

 Startparameter for this run:
   NWRITE =      2    write-flag & timer
   PREC   = accura    normal or accurate (medium, high low for compatibility)
   ISTART =      0    job   : 0-new  1-cont  2-samecut
   ICHARG =      2    charge: 1-file 2-atom 10-const
   ISPIN  =      2    spin polarized calculation?
   LNONCOLLINEAR =      F non collinear calculations
   LSORBIT =      F    spin-orbit coupling
   INIWAV =      1    electr: 0-lowe 1-rand  2-diag
   LASPH  =      T    aspherical Exc in radial PAW
 Electronic Relaxation 1
   ENCUT  =  520.0 eV  38.22 Ry    6.18 a.u.  23.12 23.26 20.58*2*pi/ulx,y,z
   ENINI  =  520.0     initial cutoff
   ENAUG  =  446.8 eV  augmentation charge cutoff
   NELM   =    100;   NELMIN=  5; NELMDL=  0     # of ELM steps 
   EDIFF  = 0.1E-05   stopping-criterion for ELM
   LREAL  =      F    real-space projection
   NLSPLINE    = F    spline interpolate recip. space projectors
   LCOMPAT=      F    compatible to vasp.4.4
   GGA_COMPAT  = T    GGA compatible to vasp.4.4-vasp.4.6
   LMAXPAW     = -100 max onsite density
   LMAXMIX     =    2 max onsite mixed and CHGCAR
   VOSKOWN=      0    Vosko Wilk Nusair interpolation
   ROPT   =    0.00000   0.00000
 Ionic relaxation
   EDIFFG = 0.1E-04   stopping-criterion for IOM
   NSW    =      0    number of steps for IOM
   NBLOCK =      1;   KBLOCK =      1    inner block; outer block 
   IBRION =     -1    ionic relax: 0-MD 1-quasi-New 2-CG
   NFREE  =      0    steps in history (QN), initial steepest desc. (CG)
   ISIF   =      2    stress and relaxation
   IWAVPR =     10    prediction:  0-non 1-charg 2-wave 3-comb
   ISYM   =     -1    0-nonsym 1-usesym 2-fastsym
   LCORR  =      T    Harris-Foulkes like correction to forces

   POTIM  = 0.5000    time-step for ionic-motion
   TEIN   =    0.0    initial temperature
   TEBEG  =    0.0;   TEEND  =   0.0 temperature during run
   SMASS  =  -3.00    Nose mass-parameter (am)
   estimated Nose-frequenzy (Omega)   =  0.10E-29 period in steps = 0.13E+47 mass=  -0.353E-26a.u.
   SCALEE = 1.0000    scale energy and forces
   NPACO  =    256;   APACO  = 10.0  distance and # of slots for P.C.
   PSTRESS=    0.0 pullay stress

  Mass of Ions in am
   POMASS =  72.61 78.96
  Ionic Valenz
   ZVAL   =   4.00  6.00
  Atomic Wigner-Seitz radii
   RWIGS  =  -1.00 -1.00
  virtual crystal weights 
   VCA    =   1.00  1.00
   NELECT =     360.0000    total number of electrons
   NUPDOWN=      -1.0000    fix difference up-down

 DOS related values:
   EMIN   =  10.00;   EMAX   =-10.00  energy-range for DOS
   EFERMI =   0.00;   METHOD = LEGACY      
   ISMEAR =     0;   SIGMA  =   0.05  broadening in eV -4-tet -1-fermi 0-gaus

 Electronic relaxation 2 (details)
   IALGO  =     38    algorithm
   LDIAG  =      T    sub-space diagonalisation (order eigenvalues)
   LSUBROT=      F    optimize rotation matrix (better conditioning)
   TURBO    =      0    0=normal 1=particle mesh
   IRESTART =      0    0=no restart 2=restart with 2 vectors
   NREBOOT  =      0    no. of reboots
   NMIN     =      0    reboot dimension
   EREF     =   0.00    reference energy to select bands
   IMIX   =      4    mixing-type and parameters
     AMIX     =   0.40;   BMIX     =  1.00
     AMIX_MAG =   1.60;   BMIX_MAG =  1.00
     AMIN     =   0.10
     WC   =   100.;   INIMIX=   1;  MIXPRE=   1;  MAXMIX= -45

 Intra band minimization:
   WEIMIN = 0.0000     energy-eigenvalue tresh-hold
   EBREAK =  0.11E-08  absolut break condition
   DEPER  =   0.30     relativ break condition  

   TIME   =   0.40     timestep for ELM

  volume/ion in A,a.u.               =      23.91       161.35
  Fermi-wavevector in a.u.,A,eV,Ry     =   0.971727  1.836298 12.847343  0.944253
  Thomas-Fermi vector in A             =   2.101968
 
 Write flags
   LWAVE        =      F    write WAVECAR
   LDOWNSAMPLE  =      F    k-point downsampling of WAVECAR
   LCHARG       =      F    write CHGCAR
   LVTOT        =      F    write LOCPOT, total local potential
   LVHAR        =      F    write LOCPOT, Hartree potential only
   LELF         =      F    write electronic localiz. function (ELF)
   LORBIT       =     11    0 simple, 1 ext, 2 COOP (PROOUT), +10 PAW based schemes


 Dipole corrections
   LMONO  =      F    monopole corrections only (constant potential shift)
   LDIPOL =      F    correct potential (dipole corrections)
   IDIPOL =      0    1-x, 2-y, 3-z, 4-all directions 
   EPSILON=  1.0000000 bulk dielectric constant

 Exchange correlation treatment:
   GGA     =    PE    GGA type
   LEXCH   =     8    internal setting for exchange type
   LIBXC   =     F    Libxc                    
   VOSKOWN =     0    Vosko Wilk Nusair interpolation
   LHFCALC =     F    Hartree Fock is set to
   LHFONE  =     F    Hartree Fock one center treatment
   AEXX    =    0.0000 exact exchange contribution

 Linear response parameters
   LEPSILON=     F    determine dielectric tensor
   LRPA    =     F    only Hartree local field effects (RPA)
   LNABLA  =     F    use nabla operator in PAW spheres
   LVEL    =     F    velocity operator in full k-point grid
   CSHIFT  =0.1000    complex shift for real part using Kramers Kronig
   OMEGAMAX=  -1.0    maximum frequency
   DEG_THRESHOLD= 0.2000000E-02 threshold for treating states as degnerate
   RTIME   =   -0.100 relaxation time in fs
  (WPLASMAI=    0.000 imaginary part of plasma frequency in eV, 0.658/RTIME)
   DFIELD  = 0.0000000 0.0000000 0.0000000 field for delta impulse in time
 
  Optional k-point grid parameters
   LKPOINTS_OPT  =     F    use optional k-point grid
   KPOINTS_OPT_MODE=     1    mode for optional k-point grid
 
 Orbital magnetization related:
   ORBITALMAG=     F  switch on orbital magnetization
   LCHIMAG   =     F  perturbation theory with respect to B field
   DQ        =  0.001000  dq finite difference perturbation B field
   LLRAUG    =     F  two centre corrections for induced B field
   LBONE     =     F  B-component reconstruction in AE one-centre
   LVGVCALC  =     T  calculate vGv susceptibility
   LVGVAPPL  =     F  apply vGv susceptibility instead of pGv for G=0

 Random number generation:
   RANDOM_GENERATOR = DEFAULT
   PCG_SEED         = not used


--------------------------------------------------------------------------------------------------------


 Static calculation
 charge density and potential will be updated during run
 spin polarized calculation
 Variant of blocked Davidson
 Davidson routine will perform the subspace rotation
 perform sub-space diagonalisation
    after iterative eigenvector-optimisation
 modified Broyden-mixing scheme, WC =      100.0
 initial mixing is a Kerker type mixing with AMIX =  0.4000 and BMIX =      1.0000
 Hartree-type preconditioning will be used
 using additional bands            44
 reciprocal scheme for non local part
 use partial core corrections
 calculate Harris-corrections to forces 
   (improved forces if not selfconsistent)
 use gradient corrections 
 use of overlap-Matrix (Vanderbilt PP)
 Gauss-broadening in eV      SIGMA  =   0.05


--------------------------------------------------------------------------------------------------------


  energy-cutoff  :      520.00
  volume of cell :     1721.45
      direct lattice vectors                 reciprocal lattice vectors
    12.432022887 -0.000001076 -0.000002438     0.080437432  0.000000007  0.000000020
    -0.000001083 12.511674392  0.000001447     0.000000007  0.079925354 -0.000000012
    -0.000002794  0.000001647 11.067184158     0.000000018 -0.000000010  0.090357221

  length of vectors
    12.432022887 12.511674392 11.067184158     0.080437432  0.079925354  0.090357221


 
 k-points in units of 2pi/SCALE and weight: KPOINTS created by Atomic Simulation Env
   0.00000000  0.00000000  0.00000000       0.125
   0.04021872  0.00000000  0.00000001       0.125
   0.00000000  0.03996268 -0.00000001       0.125
   0.04021872  0.03996268  0.00000000       0.125
   0.00000001 -0.00000001  0.04517861       0.125
   0.04021873 -0.00000000  0.04517862       0.125
   0.00000001  0.03996267  0.04517860       0.125
   0.04021873  0.03996268  0.04517861       0.125
 
 k-points in reciprocal lattice and weights: KPOINTS created by Atomic Simulation Env
   0.00000000  0.00000000  0.00000000       0.125
   0.50000000  0.00000000  0.00000000       0.125
   0.00000000  0.50000000  0.00000000       0.125
   0.50000000  0.50000000  0.00000000       0.125
   0.00000000  0.00000000  0.50000000       0.125
   0.50000000  0.00000000  0.50000000       0.125
   0.00000000  0.50000000  0.50000000       0.125
   0.50000000  0.50000000  0.50000000       0.125
 
 position of ions in fractional coordinates (direct lattice) 
   0.04155064  0.03851285  0.12403708
   0.22937588  0.88837252  0.36737584
   0.56460230  0.18512954  0.37388992
   0.54122426  0.53868570  0.37280557
   0.55674423  0.86430053  0.35281349
   0.89877951  0.21072850  0.37395271
   0.90909224  0.54659713  0.36833287
   0.88471242  0.86497893  0.37940813
   0.06287520  0.13468861  0.63155965
   0.06477873  0.47802473  0.64991566
   0.07723108  0.80947286  0.63831311
   0.40994023  0.14928640  0.61705769
   0.41101466  0.46399703  0.64481483
   0.41432726  0.82550102  0.62860123
   0.75648008  0.12625244  0.61754085
   0.74889504  0.47472887  0.64177604
   0.19941357  0.52234753  0.37990344
   0.23505871  0.20255042  0.37642180
   0.73867492  0.81147739  0.64131952
   0.89082158  0.64545673  0.88090179
   0.88160205  0.00284371  0.86010124
   0.05778663  0.38567583  0.10447465
   0.08214417  0.72340297  0.13651894
   0.40729747  0.04703017  0.13747303
   0.38111141  0.34977047  0.13518911
   0.73935927  0.03992743  0.12065326
   0.74455602  0.39512536  0.13656866
   0.39265659  0.68051286  0.12442763
   0.24067316  0.31055767  0.87024598
   0.22931710  0.66613094  0.84744533
   0.24457181  0.97959840  0.86497460
   0.56560127  0.32300647  0.86551622
   0.56715440  0.63780580  0.86373472
   0.55948542  0.98456992  0.87888556
   0.91407728  0.30882128  0.87990355
   0.72079556  0.68811832  0.15815082
   0.91488299  0.99505403  0.63890304
   0.22617742  0.34189038  0.65174134
   0.25925888  0.67612823  0.62381350
   0.59128997  0.99891633  0.65452026
   0.59729317  0.32685229  0.63976212
   0.58543645  0.67028667  0.63571418
   0.91589637  0.33692450  0.64118527
   0.73648774  0.00999024  0.34872167
   0.07831396  0.03050545  0.35485948
   0.07565044  0.33263549  0.33050790
   0.06847869  0.69030924  0.36080730
   0.41213681  0.01336158  0.36860138
   0.41499834  0.34914964  0.36305015
   0.39589135  0.67141303  0.35097976
   0.25638538  0.01263786  0.63693992
   0.90327391  0.67902971  0.64817169
   0.92979185  0.85319355  0.14973483
   0.23814571  0.17427184  0.14162697
   0.89645041  0.18327400  0.13774506
   0.75419234  0.35212177  0.37680567
   0.07676341  0.17793496  0.86301498
   0.06360622  0.52707700  0.87051474
   0.09830929  0.82679268  0.86822718
   0.40441664  0.18589947  0.84509513
   0.41859125  0.50444170  0.85541256
   0.41464183  0.83145407  0.86227153
   0.75628026  0.16712533  0.85494199
   0.74913540  0.49108892  0.86814783
   0.73948323  0.84857889  0.86239815
   0.23392077  0.49626425  0.13789647
   0.25727741  0.86363938  0.13322723
   0.58473957  0.18895569  0.14735571
   0.58450676  0.53174951  0.13782382
   0.56692021  0.83211983  0.13698037
   0.91109816  0.52727456  0.13734891
   0.75438629  0.69058424  0.37972613
 
 position of ions in cartesian coordinates  (Angst):
   0.51655813  0.48186037  1.37274111
   2.85160422 11.11502801  4.06581682
   7.01914745  2.31628049  4.13790746
   6.72851078  6.73986014  4.12590732
   6.92145515 10.81384684  3.90465181
  11.17364611  2.63656602  4.13860164
  11.30185395  6.83884497  4.07640622
  10.99876312 10.82233440  4.19897879
   0.78166407  1.68518098  6.98958700
   0.80532838  5.98089082  7.19273680
   0.96013584 10.12786188  7.06432974
   5.09638448  1.86782335  6.82909036
   5.10974137  5.80538037  7.13628414
   5.15092338 10.32840053  6.95684581
   9.40457577  1.57962968  6.83443660
   9.31027793  5.93965329  7.10265248
   2.47911246  6.53544264  4.20446157
   2.92225404  2.53424527  4.16592911
   9.18322089 10.15294116  7.09760064
  11.07471111  8.07574488  9.74910106
  10.96009447  0.03558001  9.51889665
   0.71840403  4.82545047  1.15624063
   1.02121705  9.05098253  1.51088105
   5.06353108  0.58842591  1.52143841
   4.73798499  4.37621402  1.49616238
   9.19173094  0.49955844  1.33529009
   9.25633662  4.94367926  1.51142929
   4.88151458  8.51435508  1.37706348
   2.99205142  3.88559758  9.63117240
   2.85087238  8.33441453  9.37883399
   3.04051891 12.25641742  9.57283401
   7.03156513  4.04135265  9.57882653
   7.05087337  7.98001926  9.55911074
   6.95553208 12.31861906  9.72678843
  11.36382691  3.86387179  9.73805290
   8.96094565  8.60951185  1.75028346
  11.37384340 12.44979209  7.07085682
   2.81184072  4.27762194  7.21294140
   3.22310992  8.45949695  6.90385918
   7.35092749 12.49811635  7.24369622
   7.42556016  4.08946980  7.08036419
   7.27815687  8.38640899  7.03556545
  11.38644251  4.21548967  7.09611372
   9.15603151  0.12499443  3.85936519
   0.97359991  0.38167471  3.92729506
   0.94048666  4.16182742  3.65779208
   0.85132690  8.63692495  3.99312167
   5.12369326  0.16717589  4.07937838
   5.15926746  4.36844674  4.01794237
   4.92172857  8.40050132  3.88435760
   3.18738709  0.15812153  7.04913081
  11.22951941  8.49579877  7.17343429
  11.55919222 10.67487910  1.65714188
   2.96063239  2.18043249  1.56741143
  11.14469139  2.29306384  1.52444804
   9.37613502  4.40563270  4.17017643
   0.95432192  2.22626562  9.55114577
   0.79075093  6.59461719  9.63414757
   1.22218007 10.34456210  9.60883108
   5.02771436  2.32591456  9.35282274
   5.20393301  6.31141128  9.46700806
   5.15483343 10.40288358  9.54291801
   9.40209097  2.09101825  9.46179882
   9.31326542  6.14434525  9.60795074
   9.19326913 10.61714336  9.54431854
   2.90810739  6.20909669  1.52612578
   3.19847730 10.80557464  1.47445094
   7.26949512  2.36415167  1.63081168
   7.26660042  6.65307629  1.52532091
   7.04796368 10.41121202  1.51598683
  11.32679218  6.59708684  1.52006426
   9.37854582  8.64036499  4.20249819
 


--------------------------------------------------------------------------------------------------------


 k-point   1 :   0.0000 0.0000 0.0000  plane waves:   46333
 k-point   2 :   0.5000 0.0000 0.0000  plane waves:   46394
 k-point   3 :   0.0000 0.5000 0.0000  plane waves:   46330
 k-point   4 :   0.5000 0.5000 0.0000  plane waves:   46440
 k-point   5 :   0.0000 0.0000 0.5000  plane waves:   46374
 k-point   6 :   0.5000 0.0000 0.5000  plane waves:   46324
 k-point   7 :   0.0000 0.5000 0.5000  plane waves:   46332
 k-point   8 :   0.5000 0.5000 0.5000  plane waves:   46336

 maximum and minimum number of plane-waves per node :      5862     5732

 maximum number of plane-waves:     46440
 maximum index in each direction: 
   IXMAX=   23   IYMAX=   23   IZMAX=   20
   IXMIN=  -23   IYMIN=  -23   IZMIN=  -21


 parallel 3D FFT for wavefunctions:
    minimum data exchange during FFTs selected (reduces bandwidth)
 parallel 3D FFT for charge:
    minimum data exchange during FFTs selected (reduces bandwidth)


 total amount of memory used by VASP MPI-rank0   110764. kBytes
=======================================================================

   base      :      30000. kBytes
   nonl-proj :      16355. kBytes
   fftplans  :       6179. kBytes
   grid      :      15593. kBytes
   one-center:        146. kBytes
   wavefun   :      42491. kBytes
 
     INWAV:  cpu time      0.0000: real time      0.0001
 Broyden mixing: mesh for mixing (old mesh)
   NGX = 47   NGY = 47   NGZ = 41
  (NGX  =192   NGY  =192   NGZ  =168)
  gives a total of  90569 points

 initial charge density was supplied:
 charge density of overlapping atoms calculated
 number of electron     360.0000000 magnetization      72.0000000
 keeping initial charge density in first step


--------------------------------------------------------------------------------------------------------


 Maximum index for augmentation-charges           794 (set IRDMAX)


--------------------------------------------------------------------------------------------------------


 First call to EWALD:  gamma=   0.148
 Maximum number of real-space cells 3x 3x 3
 Maximum number of reciprocal cells 3x 3x 3

    FEWALD:  cpu time      0.0097: real time      0.0098


--------------------------------------- Ionic step        1  -------------------------------------------




--------------------------------------- Iteration      1(   1)  ---------------------------------------


    POTLOK:  cpu time      0.1411: real time      0.1425
    SETDIJ:  cpu time      0.5956: real time      0.5974
     EDDAV:  cpu time      8.7447: real time      8.7973
       DOS:  cpu time      0.0016: real time      0.0016
    --------------------------------------------
      LOOP:  cpu time      9.4830: real time      9.5389

 eigenvalue-minimisations  :  7168
 total energy-change (2. order) : 0.1814480E+04  (-0.1416315E+05)
 number of electron     360.0000000 magnetization      72.0000000
 augmentation part      360.0000000 magnetization      72.0000000

 Free energy of the ion-electron system (eV)
  ---------------------------------------------------
  alpha Z        PSCENC =       797.29310317
  Ewald energy   TEWEN  =    -12864.76118512
  -Hartree energ DENC   =     -1112.72832157
  -exchange      EXHF   =         0.00000000
  -V(xc)+E(xc)   XCENC  =      -293.69691299
  PAW double counting   =     10738.42099860    -9719.93139476
  entropy T*S    EENTRO =        -0.02036415
  eigenvalues    EBANDS =      1233.45238920
  atomic energy  EATOM  =     13036.45147835
  Solvation  Ediel_sol  =         0.00000000
  ---------------------------------------------------
  free energy    TOTEN  =      1814.47979074 eV

  energy without entropy =     1814.50015489  energy(sigma->0) =     1814.48997282


--------------------------------------------------------------------------------------------------------




--------------------------------------- Iteration      1(   2)  ---------------------------------------


     EDDAV:  cpu time      9.9568: real time     10.0194
       DOS:  cpu time      0.0012: real time      0.0012
    --------------------------------------------
      LOOP:  cpu time      9.9580: real time     10.0206

 eigenvalue-minimisations  :  8536
 total energy-change (2. order) :-0.1879732E+04  (-0.1804306E+04)
 number of electron     360.0000000 magnetization      72.0000000
 augmentation part      360.0000000 magnetization      72.0000000

 Free energy of the ion-electron system (eV)
  ---------------------------------------------------
  alpha Z        PSCENC =       797.29310317
  Ewald energy   TEWEN  =    -12864.76118512
  -Hartree energ DENC   =     -1112.72832157
  -exchange      EXHF   =         0.00000000
  -V(xc)+E(xc)   XCENC  =      -293.69691299
  PAW double counting   =     10738.42099860    -9719.93139476
  entropy T*S    EENTRO =        -0.01555410
  eigenvalues    EBANDS =      -646.28430323
  atomic energy  EATOM  =     13036.45147835
  Solvation  Ediel_sol  =         0.00000000
  ---------------------------------------------------
  free energy    TOTEN  =       -65.25209164 eV

  energy without entropy =      -65.23653754  energy(sigma->0) =      -65.24431459


--------------------------------------------------------------------------------------------------------




--------------------------------------- Iteration      1(   3)  ---------------------------------------


     EDDAV:  cpu time     10.0010: real time     10.0581
       DOS:  cpu time      0.0016: real time      0.0016
    --------------------------------------------
      LOOP:  cpu time     10.0026: real time     10.0597

 eigenvalue-minimisations  :  8600
 total energy-change (2. order) :-0.2164244E+03  (-0.2104916E+03)
 number of electron     360.0000000 magnetization      72.0000000
 augmentation part      360.0000000 magnetization      72.0000000

 Free energy of the ion-electron system (eV)
  ---------------------------------------------------
  alpha Z        PSCENC =       797.29310317
  Ewald energy   TEWEN  =    -12864.76118512
  -Hartree energ DENC   =     -1112.72832157
  -exchange      EXHF   =         0.00000000
  -V(xc)+E(xc)   XCENC  =      -293.69691299
  PAW double counting   =     10738.42099860    -9719.93139476
  entropy T*S    EENTRO =        -0.00013030
  eigenvalues    EBANDS =      -862.72416783
  atomic energy  EATOM  =     13036.45147835
  Solvation  Ediel_sol  =         0.00000000
  ---------------------------------------------------
  free energy    TOTEN  =      -281.67653243 eV

  energy without entropy =     -281.67640213  energy(sigma->0) =     -281.67646728


--------------------------------------------------------------------------------------------------------




--------------------------------------- Iteration      1(   4)  ---------------------------------------


     EDDAV:  cpu time     10.1151: real time     10.1943
       DOS:  cpu time      0.0012: real time      0.0012
    --------------------------------------------
      LOOP:  cpu time     10.1163: real time     10.1955

 eigenvalue-minimisations  :  8792
 total energy-change (2. order) :-0.7852464E+01  (-0.7767364E+01)
 number of electron     360.0000000 magnetization      72.0000000
 augmentation part      360.0000000 magnetization      72.0000000

 Free energy of the ion-electron system (eV)
  ---------------------------------------------------
  alpha Z        PSCENC =       797.29310317
  Ewald energy   TEWEN  =    -12864.76118512
  -Hartree energ DENC   =     -1112.72832157
  -exchange      EXHF   =         0.00000000
  -V(xc)+E(xc)   XCENC  =      -293.69691299
  PAW double counting   =     10738.42099860    -9719.93139476
  entropy T*S    EENTRO =        -0.00000482
  eigenvalues    EBANDS =      -870.57675687
  atomic energy  EATOM  =     13036.45147835
  Solvation  Ediel_sol  =         0.00000000
  ---------------------------------------------------
  free energy    TOTEN  =      -289.52899601 eV

  energy without entropy =     -289.52899118  energy(sigma->0) =     -289.52899359


--------------------------------------------------------------------------------------------------------




--------------------------------------- Iteration      1(   5)  ---------------------------------------


     EDDAV:  cpu time     10.3530: real time     10.4104
       DOS:  cpu time      0.0011: real time      0.0011
    CHARGE:  cpu time      0.4493: real time      0.4512
    MIXING:  cpu time      0.0073: real time      0.0074
    --------------------------------------------
      LOOP:  cpu time     10.8107: real time     10.8700

 eigenvalue-minimisations  :  9056
 total energy-change (2. order) :-0.2834868E+00  (-0.2827265E+00)
 number of electron     359.9999996 magnetization      48.7987855
 augmentation part      -66.8792698 magnetization      49.0112912

 Broyden mixing:
  rms(total) = 0.29212E+01    rms(broyden)= 0.29212E+01
  rms(prec ) = 0.30770E+01
  weight for this iteration     100.00

 Free energy of the ion-electron system (eV)
  ---------------------------------------------------
  alpha Z        PSCENC =       797.29310317
  Ewald energy   TEWEN  =    -12864.76118512
  -Hartree energ DENC   =     -1112.72832157
  -exchange      EXHF   =         0.00000000
  -V(xc)+E(xc)   XCENC  =      -293.69691299
  PAW double counting   =     10738.42099860    -9719.93139476
  entropy T*S    EENTRO =        -0.00000450
  eigenvalues    EBANDS =      -870.86024402
  atomic energy  EATOM  =     13036.45147835
  Solvation  Ediel_sol  =         0.00000000
  ---------------------------------------------------
  free energy    TOTEN  =      -289.81248283 eV

  energy without entropy =     -289.81247833  energy(sigma->0) =     -289.81248058


--------------------------------------------------------------------------------------------------------




--------------------------------------- Iteration      1(   6)  ---------------------------------------


    POTLOK:  cpu time      0.1351: real time      0.1366
    SETDIJ:  cpu time      0.6037: real time      0.6055
     EDDAV:  cpu time      9.3619: real time      9.4194
       DOS:  cpu time      0.0013: real time      0.0014
    CHARGE:  cpu time      0.4451: real time      0.4469
    MIXING:  cpu time      0.0072: real time      0.0072
    --------------------------------------------
      LOOP:  cpu time     10.5543: real time     10.6169

 eigenvalue-minimisations  :  7968
 total energy-change (2. order) : 0.3923596E+00  (-0.2670322E+01)
 number of electron     359.9999996 magnetization      27.8848329
 augmentation part      -66.2622568 magnetization      29.0639670

 Broyden mixing:
  rms(total) = 0.17315E+01    rms(broyden)= 0.17315E+01
  rms(prec ) = 0.17677E+01
  weight for this iteration     100.00

 eigenvalues of (default mixing * dielectric matrix)
  average eigenvalue GAMMA=   1.0095
  1.0095

 Free energy of the ion-electron system (eV)
  ---------------------------------------------------
  alpha Z        PSCENC =       797.29310317
  Ewald energy   TEWEN  =    -12864.76118512
  -Hartree energ DENC   =     -1166.36766367
  -exchange      EXHF   =         0.00000000
  -V(xc)+E(xc)   XCENC  =      -287.20233911
  PAW double counting   =     13020.87126318   -12005.87515723
  entropy T*S    EENTRO =        -0.00000234
  eigenvalues    EBANDS =      -819.82962050
  atomic energy  EATOM  =     13036.45147835
  Solvation  Ediel_sol  =         0.00000000
  ---------------------------------------------------
  free energy    TOTEN  =      -289.42012328 eV

  energy without entropy =     -289.42012093  energy(sigma->0) =     -289.42012210


--------------------------------------------------------------------------------------------------------




--------------------------------------- Iteration      1(   7)  ---------------------------------------


    POTLOK:  cpu time      0.1319: real time      0.1326
    SETDIJ:  cpu time      0.6035: real time      0.6067
     EDDAV:  cpu time      9.3739: real time      9.4311
       DOS:  cpu time      0.0008: real time      0.0008
    CHARGE:  cpu time      0.4449: real time      0.4470
    MIXING:  cpu time      0.0074: real time      0.0075
    --------------------------------------------
      LOOP:  cpu time     10.5623: real time     10.6256

 eigenvalue-minimisations  :  8016
 total energy-change (2. order) :-0.7338110E+01  (-0.8735361E+00)
 number of electron     359.9999996 magnetization       9.2457671
 augmentation part      -66.2464567 magnetization       9.9204834

 Broyden mixing:
  rms(total) = 0.90978E+00    rms(broyden)= 0.90978E+00
  rms(prec ) = 0.92560E+00
  weight for this iteration     100.00

 eigenvalues of (default mixing * dielectric matrix)
  average eigenvalue GAMMA=   1.4516
  0.8620  2.0411

 Free energy of the ion-electron system (eV)
  ---------------------------------------------------
  alpha Z        PSCENC =       797.29310317
  Ewald energy   TEWEN  =    -12864.76118512
  -Hartree energ DENC   =     -1183.39211922
  -exchange      EXHF   =         0.00000000
  -V(xc)+E(xc)   XCENC  =      -290.16064412
  PAW double counting   =     15113.37180104   -14099.97894977
  entropy T*S    EENTRO =        -0.00000000
  eigenvalues    EBANDS =      -805.58171786
  atomic energy  EATOM  =     13036.45147835
  Solvation  Ediel_sol  =         0.00000000
  ---------------------------------------------------
  free energy    TOTEN  =      -296.75823353 eV

  energy without entropy =     -296.75823353  energy(sigma->0) =     -296.75823353


--------------------------------------------------------------------------------------------------------




--------------------------------------- Iteration      1(   8)  ---------------------------------------


    POTLOK:  cpu time      0.1320: real time      0.1327
    SETDIJ:  cpu time      0.6035: real time      0.6052
     EDDAV:  cpu time      9.5192: real time      9.5698
       DOS:  cpu time      0.0011: real time      0.0011
    CHARGE:  cpu time      0.4412: real time      0.4430
    MIXING:  cpu time      0.0094: real time      0.0094
    --------------------------------------------
      LOOP:  cpu time     10.7064: real time     10.7612

 eigenvalue-minimisations  :  8160
 total energy-change (2. order) :-0.3199665E+01  (-0.1710663E+00)
 number of electron     359.9999996 magnetization       4.4368061
 augmentation part      -66.2550955 magnetization       4.7460192

 Broyden mixing:
  rms(total) = 0.33471E+00    rms(broyden)= 0.33471E+00
  rms(prec ) = 0.34007E+00
  weight for this iteration     100.00

 eigenvalues of (default mixing * dielectric matrix)
  average eigenvalue GAMMA=   1.3555
  2.4947  0.9233  0.6485

 Free energy of the ion-electron system (eV)
  ---------------------------------------------------
  alpha Z        PSCENC =       797.29310317
  Ewald energy   TEWEN  =    -12864.76118512
  -Hartree energ DENC   =     -1187.95646552
  -exchange      EXHF   =         0.00000000
  -V(xc)+E(xc)   XCENC  =      -289.89246588
  PAW double counting   =     16877.76462868   -15865.29302546
  entropy T*S    EENTRO =        -0.00000000
  eigenvalues    EBANDS =      -803.56396718
  atomic energy  EATOM  =     13036.45147835
  Solvation  Ediel_sol  =         0.00000000
  ---------------------------------------------------
  free energy    TOTEN  =      -299.95789896 eV

  energy without entropy =     -299.95789896  energy(sigma->0) =     -299.95789896


--------------------------------------------------------------------------------------------------------




--------------------------------------- Iteration      1(   9)  ---------------------------------------


    POTLOK:  cpu time      0.1315: real time      0.1324
    SETDIJ:  cpu time      0.6169: real time      0.6186
     EDDAV:  cpu time     10.2741: real time     10.3291
       DOS:  cpu time      0.0008: real time      0.0008
    CHARGE:  cpu time      0.4407: real time      0.4425
    MIXING:  cpu time      0.0074: real time      0.0074
    --------------------------------------------
      LOOP:  cpu time     11.4713: real time     11.5308

 eigenvalue-minimisations  :  9032
 total energy-change (2. order) :-0.3803030E+00  (-0.4248815E-01)
 number of electron     359.9999996 magnetization       2.2881407
 augmentation part      -66.2935586 magnetization       2.4429169

 Broyden mixing:
  rms(total) = 0.14888E+00    rms(broyden)= 0.14888E+00
  rms(prec ) = 0.15055E+00
  weight for this iteration     100.00

 eigenvalues of (default mixing * dielectric matrix)
  average eigenvalue GAMMA=   1.3298
  2.6308  1.2381  0.8325  0.6179

 Free energy of the ion-electron system (eV)
  ---------------------------------------------------
  alpha Z        PSCENC =       797.29310317
  Ewald energy   TEWEN  =    -12864.76118512
  -Hartree energ DENC   =     -1186.90247578
  -exchange      EXHF   =         0.00000000
  -V(xc)+E(xc)   XCENC  =      -289.93954771
  PAW double counting   =     17163.67297093   -16151.53857548
  entropy T*S    EENTRO =        -0.00000000
  eigenvalues    EBANDS =      -804.61397028
  atomic energy  EATOM  =     13036.45147835
  Solvation  Ediel_sol  =         0.00000000
  ---------------------------------------------------
  free energy    TOTEN  =      -300.33820192 eV

  energy without entropy =     -300.33820192  energy(sigma->0) =     -300.33820192


--------------------------------------------------------------------------------------------------------




--------------------------------------- Iteration      1(  10)  ---------------------------------------


    POTLOK:  cpu time      0.1315: real time      0.1321
    SETDIJ:  cpu time      0.6037: real time      0.6060
     EDDAV:  cpu time      9.5223: real time      9.5725
       DOS:  cpu time      0.0009: real time      0.0009
    CHARGE:  cpu time      0.4443: real time      0.4464
    MIXING:  cpu time      0.0078: real time      0.0078
    --------------------------------------------
      LOOP:  cpu time     10.7104: real time     10.7658

 eigenvalue-minimisations  :  8144
 total energy-change (2. order) :-0.1107548E+00  (-0.1004879E-01)
 number of electron     359.9999996 magnetization       0.7568447
 augmentation part      -66.2969588 magnetization       0.8250247

 Broyden mixing:
  rms(total) = 0.73011E-01    rms(broyden)= 0.73011E-01
  rms(prec ) = 0.74110E-01
  weight for this iteration     100.00

 eigenvalues of (default mixing * dielectric matrix)
  average eigenvalue GAMMA=   1.3725
  2.7032  1.7440  0.9687  0.8220  0.6249

 Free energy of the ion-electron system (eV)
  ---------------------------------------------------
  alpha Z        PSCENC =       797.29310317
  Ewald energy   TEWEN  =    -12864.76118512
  -Hartree energ DENC   =     -1187.03238466
  -exchange      EXHF   =         0.00000000
  -V(xc)+E(xc)   XCENC  =      -289.93808802
  PAW double counting   =     17176.09146419   -16163.96773732
  entropy T*S    EENTRO =        -0.00000000
  eigenvalues    EBANDS =      -804.58560733
  atomic energy  EATOM  =     13036.45147835
  Solvation  Ediel_sol  =         0.00000000
  ---------------------------------------------------
  free energy    TOTEN  =      -300.44895674 eV

  energy without entropy =     -300.44895674  energy(sigma->0) =     -300.44895674


--------------------------------------------------------------------------------------------------------




--------------------------------------- Iteration      1(  11)  ---------------------------------------


    POTLOK:  cpu time      0.1333: real time      0.1339
    SETDIJ:  cpu time      0.6056: real time      0.6073
     EDDAV:  cpu time     10.2080: real time     10.2617
       DOS:  cpu time      0.0008: real time      0.0008
    CHARGE:  cpu time      0.4413: real time      0.4432
    MIXING:  cpu time      0.0079: real time      0.0079
    --------------------------------------------
      LOOP:  cpu time     11.3968: real time     11.4548

 eigenvalue-minimisations  :  8992
 total energy-change (2. order) :-0.3137124E-01  (-0.3571236E-02)
 number of electron     359.9999996 magnetization       0.1889910
 augmentation part      -66.2827090 magnetization       0.2086109

 Broyden mixing:
  rms(total) = 0.29131E-01    rms(broyden)= 0.29131E-01
  rms(prec ) = 0.29598E-01
  weight for this iteration     100.00

 eigenvalues of (default mixing * dielectric matrix)
  average eigenvalue GAMMA=   1.4039
  2.9059  2.1609  1.1787  0.8581  0.6959  0.6238

 Free energy of the ion-electron system (eV)
  ---------------------------------------------------
  alpha Z        PSCENC =       797.29310317
  Ewald energy   TEWEN  =    -12864.76118512
  -Hartree energ DENC   =     -1188.13687620
  -exchange      EXHF   =         0.00000000
  -V(xc)+E(xc)   XCENC  =      -289.89460664
  PAW double counting   =     17102.36299409   -16090.21360847
  entropy T*S    EENTRO =        -0.00000000
  eigenvalues    EBANDS =      -803.58162715
  atomic energy  EATOM  =     13036.45147835
  Solvation  Ediel_sol  =         0.00000000
  ---------------------------------------------------
  free energy    TOTEN  =      -300.48032798 eV

  energy without entropy =     -300.48032798  energy(sigma->0) =     -300.48032798


--------------------------------------------------------------------------------------------------------




--------------------------------------- Iteration      1(  12)  ---------------------------------------


    POTLOK:  cpu time      0.1312: real time      0.1330
    SETDIJ:  cpu time      0.6039: real time      0.6062
     EDDAV:  cpu time      9.8040: real time      9.8565
       DOS:  cpu time      0.0007: real time      0.0007
    CHARGE:  cpu time      0.4409: real time      0.4427
    MIXING:  cpu time      0.0079: real time      0.0079
    --------------------------------------------
      LOOP:  cpu time     10.9886: real time     11.0471

 eigenvalue-minimisations  :  8488
 total energy-change (2. order) :-0.3476546E-02  (-0.4747201E-03)
 number of electron     359.9999996 magnetization       0.0625531
 augmentation part      -66.2817506 magnetization       0.0673942

 Broyden mixing:
  rms(total) = 0.11111E-01    rms(broyden)= 0.11111E-01
  rms(prec ) = 0.11743E-01
  weight for this iteration     100.00

 eigenvalues of (default mixing * dielectric matrix)
  average eigenvalue GAMMA=   1.3665
  3.0041  2.3285  1.2026  0.8843  0.8843  0.6093  0.6523

 Free energy of the ion-electron system (eV)
  ---------------------------------------------------
  alpha Z        PSCENC =       797.29310317
  Ewald energy   TEWEN  =    -12864.76118512
  -Hartree energ DENC   =     -1188.25701581
  -exchange      EXHF   =         0.00000000
  -V(xc)+E(xc)   XCENC  =      -289.89595177
  PAW double counting   =     17065.61478063   -16053.44252060
  entropy T*S    EENTRO =        -0.00000000
  eigenvalues    EBANDS =      -803.48649337
  atomic energy  EATOM  =     13036.45147835
  Solvation  Ediel_sol  =         0.00000000
  ---------------------------------------------------
  free energy    TOTEN  =      -300.48380452 eV

  energy without entropy =     -300.48380452  energy(sigma->0) =     -300.48380452


--------------------------------------------------------------------------------------------------------




--------------------------------------- Iteration      1(  13)  ---------------------------------------


    POTLOK:  cpu time      0.1313: real time      0.1319
    SETDIJ:  cpu time      0.6024: real time      0.6044
     EDDAV:  cpu time     11.1092: real time     11.1654
       DOS:  cpu time      0.0007: real time      0.0007
    CHARGE:  cpu time      0.4433: real time      0.4454
    MIXING:  cpu time      0.0080: real time      0.0080
    --------------------------------------------
      LOOP:  cpu time     12.2949: real time     12.3558

 eigenvalue-minimisations  :  9992
 total energy-change (2. order) :-0.1339355E-03  (-0.6521028E-04)
 number of electron     359.9999996 magnetization       0.0166079
 augmentation part      -66.2831288 magnetization       0.0175099

 Broyden mixing:
  rms(total) = 0.46104E-02    rms(broyden)= 0.46104E-02
  rms(prec ) = 0.48106E-02
  weight for this iteration     100.00

 eigenvalues of (default mixing * dielectric matrix)
  average eigenvalue GAMMA=   1.3465
  3.0523  2.4317  1.0535  1.0535  1.0697  0.8545  0.6477  0.6091

 Free energy of the ion-electron system (eV)
  ---------------------------------------------------
  alpha Z        PSCENC =       797.29310317
  Ewald energy   TEWEN  =    -12864.76118512
  -Hartree energ DENC   =     -1188.16396399
  -exchange      EXHF   =         0.00000000
  -V(xc)+E(xc)   XCENC  =      -289.90602125
  PAW double counting   =     17051.40333563   -16039.21977725
  entropy T*S    EENTRO =        -0.00000000
  eigenvalues    EBANDS =      -803.58090799
  atomic energy  EATOM  =     13036.45147835
  Solvation  Ediel_sol  =         0.00000000
  ---------------------------------------------------
  free energy    TOTEN  =      -300.48393846 eV

  energy without entropy =     -300.48393846  energy(sigma->0) =     -300.48393846


--------------------------------------------------------------------------------------------------------




--------------------------------------- Iteration      1(  14)  ---------------------------------------


    POTLOK:  cpu time      0.1306: real time      0.1312
    SETDIJ:  cpu time      0.6045: real time      0.6063
     EDDAV:  cpu time      9.5887: real time      9.6440
       DOS:  cpu time      0.0008: real time      0.0008
    CHARGE:  cpu time      0.4424: real time      0.4441
    MIXING:  cpu time      0.0083: real time      0.0083
    --------------------------------------------
      LOOP:  cpu time     10.7753: real time     10.8348

 eigenvalue-minimisations  :  8248
 total energy-change (2. order) :-0.1854437E-04  (-0.1049645E-04)
 number of electron     359.9999996 magnetization       0.0053791
 augmentation part      -66.2827647 magnetization       0.0056936

 Broyden mixing:
  rms(total) = 0.17655E-02    rms(broyden)= 0.17655E-02
  rms(prec ) = 0.18699E-02
  weight for this iteration     100.00

 eigenvalues of (default mixing * dielectric matrix)
  average eigenvalue GAMMA=   1.3325
  3.0794  2.4656  1.4164  1.2130  0.8960  0.8960  0.7729  0.6123  0.6412

 Free energy of the ion-electron system (eV)
  ---------------------------------------------------
  alpha Z        PSCENC =       797.29310317
  Ewald energy   TEWEN  =    -12864.76118512
  -Hartree energ DENC   =     -1188.17146823
  -exchange      EXHF   =         0.00000000
  -V(xc)+E(xc)   XCENC  =      -289.90648472
  PAW double counting   =     17046.79598448   -16034.60954390
  entropy T*S    EENTRO =        -0.00000000
  eigenvalues    EBANDS =      -803.57584103
  atomic energy  EATOM  =     13036.45147835
  Solvation  Ediel_sol  =         0.00000000
  ---------------------------------------------------
  free energy    TOTEN  =      -300.48395700 eV

  energy without entropy =     -300.48395700  energy(sigma->0) =     -300.48395700


--------------------------------------------------------------------------------------------------------




--------------------------------------- Iteration      1(  15)  ---------------------------------------


    POTLOK:  cpu time      0.1307: real time      0.1316
    SETDIJ:  cpu time      0.6057: real time      0.6102
     EDDAV:  cpu time      9.8616: real time      9.9113
       DOS:  cpu time      0.0008: real time      0.0008
    CHARGE:  cpu time      0.4421: real time      0.4441
    MIXING:  cpu time      0.0082: real time      0.0082
    --------------------------------------------
      LOOP:  cpu time     11.0490: real time     11.1062

 eigenvalue-minimisations  :  8592
 total energy-change (2. order) :-0.3408692E-05  (-0.1738571E-05)
 number of electron     359.9999996 magnetization       0.0019189
 augmentation part      -66.2829353 magnetization       0.0021256

 Broyden mixing:
  rms(total) = 0.83121E-03    rms(broyden)= 0.83121E-03
  rms(prec ) = 0.88068E-03
  weight for this iteration     100.00

 eigenvalues of (default mixing * dielectric matrix)
  average eigenvalue GAMMA=   1.2987
  3.0909  2.4419  1.6692  1.1148  0.9524  0.9524  0.8283  0.7009  0.6180  0.6180

 Free energy of the ion-electron system (eV)
  ---------------------------------------------------
  alpha Z        PSCENC =       797.29310317
  Ewald energy   TEWEN  =    -12864.76118512
  -Hartree energ DENC   =     -1188.15691675
  -exchange      EXHF   =         0.00000000
  -V(xc)+E(xc)   XCENC  =      -289.90702234
  PAW double counting   =     17046.22871486   -16034.04139897
  entropy T*S    EENTRO =        -0.00000000
  eigenvalues    EBANDS =      -803.59073360
  atomic energy  EATOM  =     13036.45147835
  Solvation  Ediel_sol  =         0.00000000
  ---------------------------------------------------
  free energy    TOTEN  =      -300.48396041 eV

  energy without entropy =     -300.48396041  energy(sigma->0) =     -300.48396041


--------------------------------------------------------------------------------------------------------




--------------------------------------- Iteration      1(  16)  ---------------------------------------


    POTLOK:  cpu time      0.1304: real time      0.1311
    SETDIJ:  cpu time      0.6083: real time      0.6100
     EDDAV:  cpu time      6.6734: real time      6.7086
       DOS:  cpu time      0.0008: real time      0.0008
    --------------------------------------------
      LOOP:  cpu time      7.4129: real time      7.4505

 eigenvalue-minimisations  :  4832
 total energy-change (2. order) :-0.5442553E-06  (-0.1497588E-06)
 number of electron     359.9999996 magnetization       0.0019189
 augmentation part      -66.2829353 magnetization       0.0021256

 Free energy of the ion-electron system (eV)
  ---------------------------------------------------
  alpha Z        PSCENC =       797.29310317
  Ewald energy   TEWEN  =    -12864.76118512
  -Hartree energ DENC   =     -1188.14935932
  -exchange      EXHF   =         0.00000000
  -V(xc)+E(xc)   XCENC  =      -289.90733049
  PAW double counting   =     17046.17962312   -16033.99201641
  entropy T*S    EENTRO =        -0.00000000
  eigenvalues    EBANDS =      -803.59827425
  atomic energy  EATOM  =     13036.45147835
  Solvation  Ediel_sol  =         0.00000000
  ---------------------------------------------------
  free energy    TOTEN  =      -300.48396095 eV

  energy without entropy =     -300.48396095  energy(sigma->0) =     -300.48396095


--------------------------------------------------------------------------------------------------------




 average (electrostatic) potential at core
  the test charge radii are     1.1631  1.0808
  (the norm of the test charge is              1.0000)
       1 -33.2921       2 -33.4505       3 -33.5715       4 -33.4864       5 -33.3605
       6 -33.4099       7 -33.4325       8 -33.4119       9 -33.5933      10 -33.3610
      11 -33.6076      12 -33.6533      13 -33.4925      14 -33.5788      15 -33.6345
      16 -33.3347      17 -33.7090      18 -33.5981      19 -33.1558      20 -33.3542
      21 -33.4058      22 -33.4787      23 -33.3129      24 -33.4879      25 -33.4626
      26 -33.4743      27 -33.4554      28 -33.5703      29 -33.4152      30 -33.3538
      31 -33.5333      32 -33.5667      33 -33.4378      34 -33.4895      35 -33.5249
      36 -33.2400      37 -55.2417      38 -54.9065      39 -54.7891      40 -54.8482
      41 -54.7105      42 -54.7415      43 -54.8774      44 -54.8133      45 -54.6247
      46 -54.8925      47 -54.8771      48 -55.0399      49 -54.7880      50 -54.7511
      51 -54.9301      52 -54.7428      53 -54.6877      54 -54.8054      55 -54.8876
      56 -54.5063      57 -54.8658      58 -54.8881      59 -54.8816      60 -54.9558
      61 -54.9744      62 -54.9163      63 -54.9018      64 -54.8446      65 -54.6845
      66 -54.8460      67 -54.6674      68 -54.7120      69 -54.9068      70 -54.6889
      71 -55.0283      72 -54.8616
 
 
 
 E-fermi :   3.5270     XC(G=0):  -9.3763     alpha+bet : -8.8254

 Fermi energy:         3.5270479806

 spin component 1

 k-point     1 :       0.0000    0.0000    0.0000
  band No.  band energies     occupation 
      1     -10.9104      1.00000
      2     -10.5782      1.00000
      3     -10.4683      1.00000
      4     -10.3641      1.00000
      5     -10.3285      1.00000
      6     -10.2296      1.00000
      7     -10.0573      1.00000
      8     -10.0509      1.00000
      9     -10.0388      1.00000
     10      -9.9876      1.00000
     11      -9.8957      1.00000
     12      -9.8262      1.00000
     13      -9.8088      1.00000
     14      -9.7513      1.00000
     15      -9.7351      1.00000
     16      -9.6087      1.00000
     17      -9.5731      1.00000
     18      -9.5436      1.00000
     19      -9.5140      1.00000
     20      -9.5026      1.00000
     21      -9.4503      1.00000
     22      -9.4083      1.00000
     23      -9.3517      1.00000
     24      -9.3318      1.00000
     25      -9.3056      1.00000
     26      -9.2479      1.00000
     27      -9.2319      1.00000
     28      -9.1959      1.00000
     29      -9.1461      1.00000
     30      -9.1185      1.00000
     31      -9.0953      1.00000
     32      -9.0655      1.00000
     33      -9.0342      1.00000
     34      -8.9847      1.00000
     35      -8.9443      1.00000
     36      -8.8898      1.00000
     37      -5.3885      1.00000
     38      -5.3643      1.00000
     39      -5.2643      1.00000
     40      -5.2338      1.00000
     41      -5.0857      1.00000
     42      -5.0092      1.00000
     43      -4.9884      1.00000
     44      -4.8987      1.00000
     45      -4.7501      1.00000
     46      -4.6687      1.00000
     47      -4.5726      1.00000
     48      -4.5184      1.00000
     49      -4.4818      1.00000
     50      -4.4694      1.00000
     51      -4.4193      1.00000
     52      -4.3912      1.00000
     53      -4.3825      1.00000
     54      -4.3432      1.00000
     55      -4.3231      1.00000
     56      -4.2942      1.00000
     57      -4.2332      1.00000
     58      -4.2317      1.00000
     59      -4.1939      1.00000
     60      -4.1604      1.00000
     61      -4.1198      1.00000
     62      -4.0213      1.00000
     63      -3.9500      1.00000
     64      -3.9057      1.00000
     65      -3.8640      1.00000
     66      -3.7913      1.00000
     67      -3.6889      1.00000
     68      -3.6255      1.00000
     69      -3.5512      1.00000
     70      -3.5100      1.00000
     71      -2.6052      1.00000
     72      -2.4313      1.00000
     73      -1.8367      1.00000
     74      -1.5939      1.00000
     75      -1.5531      1.00000
     76      -1.5015      1.00000
     77      -1.4874      1.00000
     78      -1.3912      1.00000
     79      -1.3689      1.00000
     80      -1.2793      1.00000
     81      -1.2217      1.00000
     82      -1.1653      1.00000
     83      -1.1571      1.00000
     84      -1.0772      1.00000
     85      -1.0082      1.00000
     86      -0.8568      1.00000
     87      -0.8295      1.00000
     88      -0.7230      1.00000
     89      -0.6866      1.00000
     90      -0.6312      1.00000
     91      -0.6046      1.00000
     92      -0.5605      1.00000
     93      -0.4768      1.00000
     94      -0.3190      1.00000
     95      -0.1100      1.00000
     96      -0.0679      1.00000
     97      -0.0136      1.00000
     98       0.0333      1.00000
     99       0.0477      1.00000
    100       0.0983      1.00000
    101       0.1339      1.00000
    102       0.1547      1.00000
    103       0.1803      1.00000
    104       0.2189      1.00000
    105       0.2326      1.00000
    106       0.2755      1.00000
    107       0.3213      1.00000
    108       0.3527      1.00000
    109       0.3920      1.00000
    110       0.4224      1.00000
    111       0.4639      1.00000
    112       0.5016      1.00000
    113       0.5458      1.00000
    114       0.5613      1.00000
    115       0.5777      1.00000
    116       0.6168      1.00000
    117       0.6931      1.00000
    118       0.7015      1.00000
    119       0.7222      1.00000
    120       0.7350      1.00000
    121       0.8018      1.00000
    122       0.8836      1.00000
    123       0.8988      1.00000
    124       0.9303      1.00000
    125       0.9529      1.00000
    126       0.9817      1.00000
    127       1.0272      1.00000
    128       1.0744      1.00000
    129       1.1146      1.00000
    130       1.1446      1.00000
    131       1.1735      1.00000
    132       1.1865      1.00000
    133       1.2479      1.00000
    134       1.3162      1.00000
    135       1.3379      1.00000
    136       1.3923      1.00000
    137       1.4350      1.00000
    138       1.4950      1.00000
    139       1.5024      1.00000
    140       1.5378      1.00000
    141       1.5738      1.00000
    142       1.5900      1.00000
    143       1.6445      1.00000
    144       1.6970      1.00000
    145       1.7249      1.00000
    146       1.7692      1.00000
    147       1.8196      1.00000
    148       1.8512      1.00000
    149       1.8799      1.00000
    150       1.8998      1.00000
    151       1.9353      1.00000
    152       1.9571      1.00000
[...]
   0.236E+01 -.114E+02 -.183E+02   -.233E+01 0.134E+02 0.204E+02   -.212E+00 -.206E+01 -.248E+01   0.544E-04 -.177E-03 -.299E-04
   -.110E+02 -.912E+01 0.255E+02   0.136E+02 0.937E+01 -.286E+02   -.250E+01 0.159E+00 0.246E+01   -.612E-05 -.157E-03 0.278E-03
   -.154E+02 0.212E+02 0.280E+02   0.158E+02 -.226E+02 -.299E+02   -.139E+00 0.103E+01 0.153E+01   -.141E-03 -.210E-03 0.194E-03
   -.549E+01 -.175E+01 0.402E+02   0.566E+01 0.803E+00 -.422E+02   0.337E+00 0.114E+01 0.143E+01   0.123E-03 0.221E-03 0.143E-03
   -.146E+01 0.170E+02 0.338E+02   0.146E+01 -.179E+02 -.361E+02   -.240E+00 0.971E+00 0.222E+01   0.271E-05 -.437E-03 0.327E-03
   0.137E+02 -.490E+00 0.290E+02   -.142E+02 -.408E+00 -.308E+02   -.207E+00 0.138E+01 0.123E+01   0.111E-03 -.288E-03 0.119E-03
   0.899E+01 0.580E+01 0.330E+02   -.917E+01 -.665E+01 -.348E+02   -.126E+00 0.115E+01 0.200E+01   -.394E-03 0.358E-03 -.126E-03
   0.133E+02 0.147E+02 0.304E+02   -.136E+02 -.156E+02 -.324E+02   -.644E-02 0.936E+00 0.214E+01   0.410E-03 -.248E-04 -.140E-03
   -.211E+01 0.617E+01 0.313E+02   0.189E+01 -.704E+01 -.327E+02   0.257E+00 0.765E+00 0.179E+01   0.241E-03 0.214E-03 -.192E-03
   0.644E+01 -.506E+01 -.202E+02   -.679E+01 0.580E+01 0.217E+02   0.210E+00 -.975E+00 -.131E+01   -.143E-03 -.307E-03 0.587E-04
   0.802E+01 0.398E+01 -.282E+02   -.880E+01 -.382E+01 0.298E+02   0.110E+01 -.352E+00 -.143E+01   -.222E-03 -.513E-04 -.211E-03
   0.110E+01 -.115E+02 -.329E+02   -.143E+01 0.122E+02 0.339E+02   0.168E+00 -.240E+00 -.420E+00   -.181E-03 0.291E-03 0.202E-03
   -.146E+02 -.809E+01 -.307E+02   0.147E+02 0.878E+01 0.325E+02   0.354E+00 -.108E+01 -.149E+01   -.346E-03 -.281E-03 -.113E-03
   0.882E+00 -.144E+01 -.218E+02   -.110E+01 0.186E+01 0.236E+02   0.170E+00 -.141E+00 -.203E+01   0.473E-03 0.660E-04 -.223E-03
   -.258E+01 -.128E+02 -.264E+02   0.229E+01 0.131E+02 0.282E+02   0.361E+00 -.475E+00 -.183E+01   0.292E-03 0.193E-04 0.707E-04
   0.158E+02 -.661E+01 -.298E+02   -.169E+02 0.757E+01 0.316E+02   0.692E+00 -.799E+00 -.162E+01   0.583E-03 -.139E-03 0.242E-04
   0.107E+02 0.997E+01 0.199E+02   -.112E+02 -.108E+02 -.217E+02   0.104E+00 0.552E+00 0.170E+01   0.490E-04 0.209E-03 0.173E-03
   -.106E+02 0.968E+01 0.213E+02   0.107E+02 -.107E+02 -.230E+02   0.295E+00 0.899E+00 0.191E+01   -.483E-03 0.493E-04 -.804E-04
   0.218E+02 0.135E+01 0.336E+02   -.234E+02 -.129E+01 -.354E+02   0.965E+00 0.251E+00 0.186E+01   -.310E-03 -.285E-04 -.330E-03
   0.785E+00 0.105E+01 0.298E+02   -.171E+01 -.102E+01 -.310E+02   0.180E+01 0.353E+00 0.153E+01   0.247E-03 -.167E-04 -.295E-03
   0.731E+01 -.132E+02 0.155E+02   -.743E+01 0.144E+02 -.168E+02   -.756E-01 -.123E+01 0.154E+01   -.681E-05 -.103E-03 -.220E-03
   0.235E+02 -.136E+02 -.140E+02   -.244E+02 0.142E+02 0.154E+02   0.741E+00 -.507E+00 -.210E+01   0.153E-04 0.279E-03 -.751E-04
   -.105E+02 0.203E+02 -.210E+02   0.108E+02 -.216E+02 0.228E+02   -.770E-01 0.859E+00 -.192E+01   -.757E-04 -.546E-04 0.214E-03
   -.180E+02 0.356E+01 -.169E+02   0.185E+02 -.436E+01 0.187E+02   -.123E+00 0.497E+00 -.192E+01   0.128E-03 -.127E-03 -.173E-03
   0.239E+02 -.124E+02 -.229E+02   -.253E+02 0.128E+02 0.245E+02   0.125E+01 0.847E-01 -.205E+01   -.146E-03 0.120E-03 0.268E-03
   -.849E+01 0.135E+02 -.308E+02   0.877E+01 -.147E+02 0.324E+02   0.411E-01 0.888E+00 -.142E+01   0.957E-04 0.483E-04 0.200E-03
   0.188E+02 0.212E+01 -.340E+02   -.202E+02 -.235E+01 0.364E+02   0.124E+01 -.210E+00 -.137E+01   -.941E-04 -.178E-03 -.327E-03
   0.784E+00 0.910E+01 -.240E+02   -.881E+00 -.986E+01 0.258E+02   -.873E-02 0.118E+01 -.214E+01   0.172E-03 0.106E-03 0.201E-03
   0.293E+02 -.106E+02 -.254E+02   -.306E+02 0.111E+02 0.266E+02   0.118E+01 -.233E+00 -.143E+01   0.941E-04 -.315E-03 0.232E-03
   0.132E+02 0.337E+01 -.232E+02   -.136E+02 -.403E+01 0.250E+02   0.190E+00 0.100E+01 -.153E+01   -.102E-03 0.188E-03 -.651E-04
   -.190E+01 0.189E+02 -.449E+02   0.182E+01 -.201E+02 0.473E+02   -.106E+00 0.127E+01 -.186E+01   0.213E-03 0.721E-05 -.123E-03
   -.142E+02 -.214E+02 0.191E+02   0.145E+02 0.227E+02 -.203E+02   -.215E+00 -.872E+00 0.178E+01   0.824E-04 -.194E-03 -.216E-03
   -.251E+01 -.503E+00 0.178E+02   0.260E+01 0.879E+00 -.193E+02   -.279E+00 -.101E+01 0.197E+01   -.570E-04 0.654E-04 -.207E-03
   0.434E+01 -.187E+02 0.323E+02   -.440E+01 0.200E+02 -.339E+02   -.240E-01 -.164E+01 0.154E+01   -.149E-03 -.398E-04 -.485E-04
   0.204E+02 0.192E+02 0.166E+02   -.212E+02 -.196E+02 -.182E+02   0.786E+00 0.436E-01 0.203E+01   0.433E-03 0.167E-03 0.279E-03
   -.288E+01 -.127E+02 0.315E+02   0.274E+01 0.135E+02 -.339E+02   0.876E-01 -.856E+00 0.182E+01   0.513E-03 -.124E-03 0.283E-03
   0.228E+01 -.163E+02 0.129E+02   -.223E+01 0.177E+02 -.145E+02   -.124E+00 -.128E+01 0.188E+01   -.358E-03 0.226E-03 0.313E-03
   0.190E+02 0.630E+01 -.227E+02   -.200E+02 -.638E+01 0.251E+02   0.923E+00 -.959E-01 -.235E+01   -.265E-03 -.714E-04 -.193E-03
 -----------------------------------------------------------------------------------------------
   0.158E+02 0.268E+01 -.117E+01   -.213E-13 0.302E-13 0.320E-13   -.158E+02 -.268E+01 0.117E+01   -.483E-04 -.461E-03 0.203E-03
 
 
 POSITION                                       TOTAL-FORCE (eV/Angst)
 -----------------------------------------------------------------------------------
      0.51656      0.48186      1.37274         0.382795     -0.349483      0.105462
      2.85160     11.11503      4.06582        -0.092619     -0.019259     -0.386323
      7.01915      2.31628      4.13791         0.078288      0.616783     -0.149064
      6.72851      6.73986      4.12591         0.334149     -0.509232     -0.129302
      6.92146     10.81385      3.90465         0.339918     -0.117178      0.736553
     11.17365      2.63657      4.13860        -0.029390      0.063818     -0.177892
     11.30185      6.83884      4.07641        -0.192526     -0.020469      0.202881
     10.99876     10.82233      4.19898         0.101655     -0.041004     -0.240981
      0.78166      1.68518      6.98959         0.486627      0.551325      0.049168
      0.80533      5.98089      7.19274         0.043616      0.250369     -0.454683
      0.96014     10.12786      7.06433        -0.089405     -0.250245      0.024908
      5.09638      1.86782      6.82909         0.320007     -0.144510      0.205839
      5.10974      5.80538      7.13628        -0.070252      0.032615     -1.221926
      5.15092     10.32840      6.95685         0.083566     -0.474289      0.207753
      9.40458      1.57963      6.83444        -0.607251      0.580695      0.251958
      9.31028      5.93965      7.10265        -0.090279     -0.106662     -0.378460
      2.47911      6.53544      4.20446         0.244108      0.224215     -0.417987
      2.92225      2.53425      4.16593        -0.358167     -0.198065     -0.580966
      9.18322     10.15294      7.09760        -0.107924      0.040944     -0.398590
     11.07471      8.07574      9.74910        -0.012927      0.240534     -0.133513
     10.96009      0.03558      9.51890         0.132553     -0.456431      0.756710
      0.71840      4.82545      1.15624         0.192941     -0.336397     -0.137072
      1.02122      9.05098      1.51088         0.276666      0.044836     -0.197774
      5.06353      0.58843      1.52144        -0.097408      0.006523     -0.084197
      4.73798      4.37621      1.49616        -0.168194     -0.236696      0.062629
      9.19173      0.49956      1.33529        -0.265360      0.310082      0.126344
      9.25634      4.94368      1.51143        -0.108751     -0.485193      0.450924
      4.88151      8.51436      1.37706        -0.065332      0.779261      0.050122
      2.99205      3.88560      9.63117        -0.303292      0.086258      0.469324
      2.85087      8.33441      9.37883         0.096653     -0.168602      0.445262
      3.04052     12.25642      9.57283         0.104099     -0.296931      0.244217
      7.03157      4.04135      9.57883        -0.053612      0.027634     -0.108058
      7.05087      7.98002      9.55911         0.562955      0.333877     -0.113364
      6.95553     12.31862      9.72679         0.386897     -0.351848      0.129111
     11.36383      3.86387      9.73805        -0.183377      0.001420     -0.371293
      8.96095      8.60951      1.75028         0.101561      0.403321     -0.663134
     11.37384     12.44979      7.07086         0.220362     -0.376765     -0.316539
      2.81184      4.27762      7.21294         0.504463      0.187851     -0.573750
      3.22311      8.45950      6.90386        -0.244694      0.056974     -0.060138
      7.35093     12.49812      7.24370        -0.663466      0.480870     -0.515342
      7.42556      4.08947      7.08036        -0.305436      0.298526      0.130995
      7.27816      8.38641      7.03557        -0.299169      0.101428      0.140965
     11.38644      4.21549      7.09611         0.032464     -0.109291      0.398598
      9.15603      0.12499      3.85937        -0.143053     -0.234802      0.147389
      0.97360      0.38167      3.92730         0.322198     -0.191785      0.152732
      0.94049      4.16183      3.65779        -0.156781      0.432429      0.565773
      0.85133      8.63692      3.99312         0.522793     -0.394698      0.295820
      5.12369      0.16718      4.07938        -0.048486      0.280734     -0.284448
      5.15927      4.36845      4.01794         0.070029     -0.171060     -0.108795
      4.92173      8.40050      3.88436        -0.411558      0.167408      0.111190
      3.18739      0.15812      7.04913        -0.401240     -0.324633     -0.074014
     11.22952      8.49580      7.17343         0.423608     -0.107802      0.134125
     11.55919     10.67488      1.65714        -0.616745      0.311624     -0.024281
      2.96063      2.18043      1.56741         0.876071      0.380080      0.282575
     11.14469      2.29306      1.52445        -0.190813     -0.068662      0.254192
      9.37614      4.40563      4.17018        -0.226260      0.151047     -0.665771
      0.95432      2.22627      9.55115         0.201341     -0.494653     -0.137293
      0.79075      6.59462      9.63415         0.421921     -0.295774     -0.093068
      1.22218     10.34456      9.60883        -0.186602      0.477732     -0.410691
      5.02771      2.32591      9.35282         0.325059     -0.319282      0.184754
      5.20393      6.31141      9.46701        -0.205902     -0.441696      1.044877
      5.15483     10.40288      9.54292        -0.105117      0.423742     -0.318863
      9.40209      2.09102      9.46180        -0.130218      0.255350     -0.222919
      9.31327      6.14435      9.60795        -0.235213      0.340304      0.182107
      9.19327     10.61714      9.54432        -0.178404      0.142862      0.574030
      2.90811      6.20910      1.52613         0.028190      0.448664      0.529299
      3.19848     10.80557      1.47445        -0.188798     -0.637799      0.459215
      7.26950      2.36415      1.63081        -0.083646     -0.334033     -0.117480
      7.26660      6.65308      1.52532        -0.074116     -0.344317      0.458238
      7.04796     10.41121      1.51599        -0.048019     -0.090315     -0.507949
     11.32679      6.59709      1.52006        -0.072582      0.147916      0.192395
      9.37855      8.64036      4.20250        -0.105172     -0.180194      0.017482
 -----------------------------------------------------------------------------------
    total drift:                               -0.000874     -0.000585     -0.000037


--------------------------------------------------------------------------------------------------------



  FREE ENERGIE OF THE ION-ELECTRON SYSTEM (eV)
  ---------------------------------------------------
  free  energy   TOTEN  =      -300.48396095 eV

  energy  without entropy=     -300.48396095  energy(sigma->0) =     -300.48396095
 


--------------------------------------------------------------------------------------------------------


    POTLOK:  cpu time      0.7374: real time      0.7398


--------------------------------------------------------------------------------------------------------


     LOOP+:  cpu time    182.6598: real time    183.6779
    4ORBIT:  cpu time      0.0000: real time      0.0000



 total charge

# of ion       s       p       d       tot
------------------------------------------
    1        1.329   0.763   0.056   2.148
    2        1.326   0.746   0.050   2.122
    3        1.332   0.723   0.052   2.106
    4        1.328   0.752   0.053   2.133
    5        1.321   0.788   0.059   2.168
    6        1.314   0.770   0.057   2.142
    7        1.332   0.753   0.055   2.140
    8        1.328   0.749   0.054   2.132
    9        1.333   0.745   0.052   2.131
   10        1.303   0.816   0.060   2.179
   11        1.333   0.726   0.049   2.108
   12        1.326   0.741   0.053   2.120
   13        1.327   0.771   0.056   2.154
   14        1.332   0.719   0.050   2.102
   15        1.328   0.748   0.057   2.133
   16        1.330   0.759   0.058   2.148
   17        1.344   0.684   0.043   2.071
   18        1.329   0.727   0.053   2.109
   19        1.306   0.824   0.066   2.196
   20        1.332   0.757   0.056   2.145
   21        1.311   0.814   0.064   2.189
   22        1.317   0.782   0.061   2.160
   23        1.316   0.796   0.059   2.171
   24        1.328   0.740   0.052   2.120
   25        1.321   0.759   0.052   2.131
   26        1.321   0.756   0.054   2.131
   27        1.333   0.738   0.050   2.122
   28        1.333   0.718   0.051   2.102
   29        1.307   0.818   0.064   2.189
   30        1.320   0.787   0.061   2.169
   31        1.333   0.736   0.051   2.121
   32        1.332   0.736   0.053   2.122
   33        1.323   0.773   0.056   2.152
   34        1.323   0.755   0.053   2.130
   35        1.323   0.751   0.058   2.132
   36        1.317   0.807   0.061   2.186
   37        1.480   2.325   0.044   3.849
   38        1.477   2.308   0.033   3.818
   39        1.480   2.282   0.030   3.792
   40        1.477   2.294   0.031   3.801
   41        1.480   2.286   0.030   3.797
   42        1.478   2.282   0.029   3.789
   43        1.479   2.290   0.032   3.800
   44        1.474   2.300   0.029   3.803
   45        1.476   2.294   0.029   3.798
   46        1.472   2.307   0.031   3.810
   47        1.478   2.301   0.033   3.812
   48        1.478   2.299   0.035   3.813
   49        1.477   2.281   0.027   3.785
   50        1.476   2.316   0.032   3.824
   51        1.476   2.300   0.031   3.807
   52        1.477   2.292   0.030   3.799
   53        1.475   2.309   0.031   3.815
   54        1.481   2.272   0.029   3.783
   55        1.477   2.302   0.033   3.812
   56        1.478   2.279   0.025   3.781
   57        1.476   2.300   0.032   3.808
   58        1.478   2.305   0.034   3.816
   59        1.478   2.300   0.033   3.811
   60        1.474   2.313   0.033   3.821
   61        1.478   2.335   0.039   3.852
   62        1.479   2.280   0.032   3.791
   63        1.476   2.297   0.032   3.805
   64        1.477   2.302   0.033   3.812
   65        1.478   2.300   0.031   3.809
   66        1.477   2.292   0.030   3.799
   67        1.479   2.263   0.026   3.769
   68        1.478   2.286   0.028   3.791
   69        1.478   2.298   0.033   3.809
   70        1.477   2.310   0.032   3.819
   71        1.477   2.307   0.037   3.822
   72        1.481   2.297   0.035   3.813
--------------------------------------------------
tot        100.880 110.031   3.136 214.047



 magnetization (x)

# of ion       s       p       d       tot
------------------------------------------
    1       -0.000   0.000   0.000   0.000
    2       -0.000   0.000   0.000   0.000
    3       -0.000   0.000   0.000   0.000
    4       -0.000   0.000  -0.000   0.000
    5       -0.000   0.000  -0.000  -0.000
    6       -0.000   0.000   0.000   0.000
    7       -0.000   0.000  -0.000   0.000
    8       -0.000   0.000  -0.000   0.000
    9       -0.000   0.000   0.000   0.000
   10       -0.000   0.000   0.000   0.000
   11       -0.000   0.000   0.000   0.000
   12       -0.000   0.000   0.000   0.000
   13       -0.000   0.000   0.000   0.000
   14       -0.000   0.000   0.000   0.000
   15       -0.000   0.000   0.000   0.000
   16       -0.000   0.000  -0.000   0.000
   17       -0.000   0.000   0.000   0.000
   18       -0.000   0.000   0.000   0.000
   19       -0.000   0.000  -0.000  -0.000
   20       -0.000  -0.000  -0.000  -0.000
   21       -0.000   0.000  -0.000  -0.000
   22       -0.000   0.000   0.000   0.000
   23       -0.000   0.000  -0.000   0.000
   24       -0.000   0.000   0.000   0.000
   25       -0.000   0.000   0.000   0.000
   26       -0.000  -0.000  -0.000  -0.000
   27       -0.000   0.000  -0.000  -0.000
   28       -0.000   0.000   0.000   0.000
   29       -0.000   0.000   0.000   0.000
   30       -0.000   0.000   0.000   0.000
   31       -0.000   0.000   0.000   0.000
   32       -0.000  -0.000  -0.000  -0.000
   33       -0.000  -0.000  -0.000  -0.000
   34       -0.000   0.000  -0.000   0.000
   35       -0.000   0.000   0.000   0.000
   36       -0.000  -0.000  -0.000  -0.000
   37        0.000  -0.000   0.000  -0.000
   38       -0.000  -0.000   0.000  -0.000
   39       -0.000  -0.000   0.000  -0.000
   40       -0.000  -0.000   0.000  -0.000
   41       -0.000  -0.000   0.000  -0.000
   42       -0.000  -0.000   0.000  -0.000
   43       -0.000  -0.000   0.000  -0.000
   44       -0.000  -0.000  -0.000  -0.000
   45       -0.000  -0.000   0.000  -0.000
   46       -0.000  -0.000   0.000  -0.000
   47       -0.000  -0.000   0.000  -0.000
   48       -0.000  -0.000   0.000  -0.000
   49       -0.000  -0.000   0.000  -0.000
   50       -0.000  -0.000   0.000  -0.000
   51       -0.000  -0.000   0.000  -0.000
   52       -0.000  -0.000  -0.000  -0.000
   53       -0.000  -0.000  -0.000  -0.000
   54       -0.000  -0.000   0.000  -0.000
   55       -0.000  -0.000   0.000  -0.000
   56       -0.000  -0.000   0.000  -0.000
   57       -0.000  -0.000   0.000  -0.000
   58       -0.000  -0.000   0.000  -0.000
   59       -0.000  -0.000   0.000  -0.000
   60       -0.000  -0.000   0.000  -0.000
   61       -0.000  -0.000   0.000  -0.000
   62       -0.000  -0.000   0.000  -0.000
   63       -0.000  -0.000  -0.000  -0.000
   64       -0.000  -0.000  -0.000  -0.000
   65       -0.000  -0.000  -0.000  -0.000
   66       -0.000  -0.000   0.000  -0.000
   67       -0.000  -0.000   0.000  -0.000
   68       -0.000  -0.000   0.000  -0.000
   69       -0.000  -0.000  -0.000  -0.000
   70       -0.000  -0.000  -0.000  -0.000
   71       -0.000  -0.000  -0.000  -0.000
   72       -0.000  -0.000  -0.000  -0.000
--------------------------------------------------
tot         -0.000  -0.000   0.000  -0.000
 

 total amount of memory used by VASP MPI-rank0   110764. kBytes
=======================================================================

   base      :      30000. kBytes
   nonl-proj :      16355. kBytes
   fftplans  :       6179. kBytes
   grid      :      15593. kBytes
   one-center:        146. kBytes
   wavefun   :      42491. kBytes
 
  
  
 General timing and accounting informations for this job:
 ========================================================
  
                  Total CPU time used (sec):      194.198
                            User time (sec):      188.548
                          System time (sec):        5.650
                         Elapsed time (sec):      197.265
  
                   Maximum memory used (kb):      316752.
                   Average memory used (kb):          N/A
  
                          Minor page faults:       102685
                          Major page faults:          103
                 Voluntary context switches:        10820
