 vasp.6.4.2 20Jul23 (build Oct 12 2023 10:31:02) complex                         
 executed on              LinuxNV date 2025.05.28  09:08:10
 running  128 mpi-ranks, with    1 threads/rank, on    2 nodes
 distrk:  each k-point on   64 cores,    2 groups
 distr:  one band on NCORE=   4 cores,   16 groups


--------------------------------------------------------------------------------------------------------


 INCAR:
   ENCUT = 360.000000
   SIGMA = 0.050000
   EDIFF = 1.00e-06
   ALGO = Normal
   GGA = PE
   PREC = Normal
   SYSTEM = ./
   ICHARG = 2
   ISMEAR = 0
   ISPIN = 1
   ISTART = 0
   ISYM = 0
   KPAR = 2
   LMAXMIX = 4
   NELM = 100
   NPAR = 16
   LASPH = .TRUE.
   LCHARG = .FALSE.
   LWAVE = .FALSE.

 POTCAR:    PAW_PBE Ge 05Jan2001                  
 POTCAR:    PAW_PBE Se 06Sep2000                  
 POTCAR:    PAW_PBE Ge 05Jan2001                  
   VRHFIN =Ge: s2p2                                                                                 
   LEXCH  = PE                                                                                      
   EATOM  =   104.9960 eV,    7.7170 Ry                                                             
                                                                                                    
   TITEL  = PAW_PBE Ge 05Jan2001                                                                    
   LULTRA =        F    use ultrasoft PP ?                                                          
   IUNSCR =        1    unscreen: 0-lin 1-nonlin 2-no                                               
   RPACOR =    2.170    partial core radius                                                         
   POMASS =   72.610; ZVAL   =    4.000    mass and valenz                                          
   RCORE  =    2.300    outmost cutoff radius                                                       
   RWIGS  =    2.300; RWIGS  =    1.217    wigner-seitz radius (au A)                               
   ENMAX  =  173.807; ENMIN  =  130.355 eV                                                          
   ICORE  =        3    local potential                                                             
   LCOR   =        T    correct aug charges                                                         
   LPAW   =        T    paw PP                                                                      
   EAUG   =  385.843                                                                                
   DEXC   =    0.000                                                                                
   RMAX   =    2.342    core radius for proj-oper                                                   
   RAUG   =    1.300    factor for augmentation sphere                                              
   RDEP   =    2.318    radius for radial grids                                                     
   RDEPT  =    2.103    core radius for aug-charge                                                  
                                                                                                    
   Atomic configuration                                                                             
   10 entries                                                                                       
     n  l   j            E        occ.                                                              
     1  0  0.50    -10959.8463   2.0000                                                             
     2  0  0.50     -1371.6056   2.0000                                                             
     2  1  1.50     -1198.4791   6.0000                                                             
     3  0  0.50      -168.4733   2.0000                                                             
     3  1  1.50      -115.6019   6.0000                                                             
     3  2  2.50       -29.3106  10.0000                                                             
     4  0  0.50       -11.7309   2.0000                                                             
     4  1  0.50        -3.8952   2.0000                                                             
     4  2  1.50        -4.0817   0.0000                                                             
     4  3  2.50        -4.0817   0.0000                                                             
   Description                                                                                      
     l       E           TYP  RCUT    TYP  RCUT                                                     
     0    -11.7309493     23  2.300                                                                 
     0     -7.4578696     23  2.300                                                                 
     1     -3.8952261     23  2.300                                                                 
     1      6.1178114     23  2.300                                                                 
     2     -4.0817478     23  2.300                                                                 
     3     -1.3605826      7  2.300                                                                 
  local pseudopotential read in
  partial core-charges read in
  partial kinetic energy density read in
  atomic valenz-charges read in
  non local Contribution for L=            0  read in
    real space projection operators read in
  non local Contribution for L=            0  read in
    real space projection operators read in
  non local Contribution for L=            1  read in
    real space projection operators read in
  non local Contribution for L=            1  read in
    real space projection operators read in
  non local Contribution for L=            2  read in
    real space projection operators read in
    PAW grid and wavefunctions read in
 
   number of l-projection  operators is LMAX  =            5
   number of lm-projection operators is LMMAX =           13
 
 POTCAR:    PAW_PBE Se 06Sep2000                  
   VRHFIN =Se: s2p4                                                                                 
   LEXCH  = PE                                                                                      
   EATOM  =   257.1286 eV,   18.8984 Ry                                                             
                                                                                                    
   TITEL  = PAW_PBE Se 06Sep2000                                                                    
   LULTRA =        F    use ultrasoft PP ?                                                          
   IUNSCR =        1    unscreen: 0-lin 1-nonlin 2-no                                               
   RPACOR =    1.900    partial core radius                                                         
   POMASS =   78.960; ZVAL   =    6.000    mass and valenz                                          
   RCORE  =    2.100    outmost cutoff radius                                                       
   RWIGS  =    2.200; RWIGS  =    1.164    wigner-seitz radius (au A)                               
   ENMAX  =  211.555; ENMIN  =  158.666 eV                                                          
   ICORE  =        3    local potential                                                             
   LCOR   =        T    correct aug charges                                                         
   LPAW   =        T    paw PP                                                                      
   EAUG   =  446.842                                                                                
   DEXC   =    0.000                                                                                
   RMAX   =    2.147    core radius for proj-oper                                                   
   RAUG   =    1.300    factor for augmentation sphere                                              
   RDEP   =    2.177    radius for radial grids                                                     
   RDEPT  =    1.928    core radius for aug-charge                                                  
                                                                                                    
   Atomic configuration                                                                             
   10 entries                                                                                       
     n  l   j            E        occ.                                                              
     1  0  0.50    -12503.4787   2.0000                                                             
     2  0  0.50     -1606.9547   2.0000                                                             
     2  1  1.50     -1413.3140   6.0000                                                             
     3  0  0.50      -213.4885   2.0000                                                             
     3  1  1.50      -152.9538   6.0000                                                             
     3  2  2.50       -53.1221  10.0000                                                             
     4  0  0.50       -17.2865   2.0000                                                             
     4  1  0.50        -6.5110   4.0000                                                             
     4  2  2.50        -6.8029   0.0000                                                             
     4  3  2.50        -6.8029   0.0000                                                             
   Description                                                                                      
     l       E           TYP  RCUT    TYP  RCUT                                                     
     0    -17.2865377     23  2.100                                                                 
     0    -15.3094411     23  2.100                                                                 
     1     -6.5110275     23  2.100                                                                 
     1     -0.0695192     23  2.100                                                                 
     2     -6.8029130     23  2.100                                                                 
     3     -1.3605826      7  2.100                                                                 
  local pseudopotential read in
  partial core-charges read in
  partial kinetic energy density read in
  atomic valenz-charges read in
  non local Contribution for L=            0  read in
    real space projection operators read in
  non local Contribution for L=            0  read in
    real space projection operators read in
  non local Contribution for L=            1  read in
    real space projection operators read in
  non local Contribution for L=            1  read in
    real space projection operators read in
  non local Contribution for L=            2  read in
    real space projection operators read in
    PAW grid and wavefunctions read in
 
   number of l-projection  operators is LMAX  =            5
   number of lm-projection operators is LMMAX =           13
 
  PAW_PBE Ge 05Jan2001                  :
 energy of atom  1       EATOM= -104.9960
 kinetic energy error for atom=    0.0005 (will be added to EATOM!!)
  PAW_PBE Se 06Sep2000                  :
 energy of atom  2       EATOM= -257.1286
 kinetic energy error for atom=    0.0030 (will be added to EATOM!!)
 
 
 POSCAR: Ge Se
  positions in cartesian coordinates
  No initial velocities read in
 exchange correlation table for  LEXCH =        8
   RHO(1)=    0.500       N(1)  =     2000
   RHO(2)=  100.500       N(2)  =     4000
 


--------------------------------------------------------------------------------------------------------


 ion  position               nearest neighbor table
   1  0.098  0.250  0.131-   5 2.56   6 2.67   6 2.67
   2  0.598  0.750  0.369-   6 2.56   5 2.67   5 2.67
   3  0.902  0.750  0.869-   7 2.56   8 2.67   8 2.67
   4  0.402  0.250  0.631-   8 2.56   7 2.67   7 2.67
   5  0.999  0.250  0.358-   1 2.56   2 2.67   2 2.67
   6  0.499  0.750  0.142-   2 2.56   1 2.67   1 2.67
   7  0.001  0.750  0.642-   3 2.56   4 2.67   4 2.67
   8  0.501  0.250  0.858-   4 2.56   3 2.67   3 2.67
 

IMPORTANT INFORMATION: All symmetrisations will be switched off!
NOSYMM: (Re-)initialisation of all symmetry stuff for point group C_1.


----------------------------------------------------------------------------------------

                                     Primitive cell                                     

  volume of cell :     194.2089

  direct lattice vectors                    reciprocal lattice vectors
     4.200000000  0.000000000  0.000000000     0.238095238  0.000000000  0.000000000
     0.000000000  4.150000000  0.000000000     0.000000000  0.240963855  0.000000000
     0.000000000  0.000000000 11.142221000     0.000000000  0.000000000  0.089748713

  length of vectors
     4.200000000  4.150000000 11.142221000     0.238095238  0.240963855  0.089748713

  position of ions in fractional coordinates (direct lattice)
     0.098264035  0.250000000  0.131498892
     0.598264035  0.750000000  0.368501108
     0.901735965  0.750000000  0.868501108
     0.401735965  0.250000000  0.631498892
     0.998739585  0.250000000  0.358090741
     0.498739585  0.750000000  0.141909259
     0.001260415  0.750000000  0.641909259
     0.501260415  0.250000000  0.858090741

  ion indices of the primitive-cell ions
   primitive index   ion index
                 1           1
                 2           2
                 3           3
                 4           4
                 5           5
                 6           6
                 7           7
                 8           8

----------------------------------------------------------------------------------------

 
 
 KPOINTS: KPOINTS created by Atomic Simulation Env

Automatic generation of k-mesh.
 Grid dimensions read from file:
 generate k-points for:    6    6    2

 Generating k-lattice:

  Cartesian coordinates                     Fractional coordinates (reciprocal lattice)
     0.039682540  0.000000000  0.000000000     0.166666667  0.000000000  0.000000000
     0.000000000  0.040160643  0.000000000     0.000000000  0.166666667  0.000000000
     0.000000000  0.000000000  0.044874357     0.000000000  0.000000000  0.500000000

  Length of vectors
     0.039682540  0.040160643  0.044874357

  Shift w.r.t. Gamma in fractional coordinates (k-lattice)
     0.000000000  0.000000000  0.000000000

 
 Subroutine IBZKPT returns following result:
 ===========================================
 
 Found     40 irreducible k-points:
 
 Following reciprocal coordinates:
            Coordinates               Weight
  0.000000  0.000000  0.000000      1.000000
  0.166667  0.000000  0.000000      2.000000
  0.333333  0.000000  0.000000      2.000000
  0.500000  0.000000  0.000000      1.000000
  0.000000  0.166667  0.000000      2.000000
  0.166667  0.166667  0.000000      2.000000
 -0.166667  0.166667  0.000000      2.000000
  0.333333  0.166667  0.000000      2.000000
 -0.333333  0.166667  0.000000      2.000000
  0.500000  0.166667  0.000000      2.000000
  0.000000  0.333333  0.000000      2.000000
  0.166667  0.333333  0.000000      2.000000
 -0.166667  0.333333  0.000000      2.000000
  0.333333  0.333333  0.000000      2.000000
 -0.333333  0.333333  0.000000      2.000000
  0.500000  0.333333  0.000000      2.000000
  0.000000  0.500000  0.000000      1.000000
  0.166667  0.500000  0.000000      2.000000
  0.333333  0.500000  0.000000      2.000000
  0.500000  0.500000  0.000000      1.000000
  0.000000  0.000000  0.500000      1.000000
  0.166667  0.000000  0.500000      2.000000
  0.333333  0.000000  0.500000      2.000000
  0.500000  0.000000  0.500000      1.000000
  0.000000  0.166667  0.500000      2.000000
  0.166667  0.166667  0.500000      2.000000
 -0.166667  0.166667  0.500000      2.000000
  0.333333  0.166667  0.500000      2.000000
 -0.333333  0.166667  0.500000      2.000000
  0.500000  0.166667  0.500000      2.000000
  0.000000  0.333333  0.500000      2.000000
  0.166667  0.333333  0.500000      2.000000
 -0.166667  0.333333  0.500000      2.000000
  0.333333  0.333333  0.500000      2.000000
 -0.333333  0.333333  0.500000      2.000000
  0.500000  0.333333  0.500000      2.000000
  0.000000  0.500000  0.500000      1.000000
  0.166667  0.500000  0.500000      2.000000
  0.333333  0.500000  0.500000      2.000000
  0.500000  0.500000  0.500000      1.000000
 
 Following cartesian coordinates:
            Coordinates               Weight
  0.000000  0.000000  0.000000      1.000000
  0.039683  0.000000  0.000000      2.000000
  0.079365  0.000000  0.000000      2.000000
  0.119048  0.000000  0.000000      1.000000
  0.000000  0.040161  0.000000      2.000000
  0.039683  0.040161  0.000000      2.000000
 -0.039683  0.040161  0.000000      2.000000
  0.079365  0.040161  0.000000      2.000000
 -0.079365  0.040161  0.000000      2.000000
  0.119048  0.040161  0.000000      2.000000
  0.000000  0.080321  0.000000      2.000000
  0.039683  0.080321  0.000000      2.000000
 -0.039683  0.080321  0.000000      2.000000
  0.079365  0.080321  0.000000      2.000000
 -0.079365  0.080321  0.000000      2.000000
  0.119048  0.080321  0.000000      2.000000
  0.000000  0.120482  0.000000      1.000000
  0.039683  0.120482  0.000000      2.000000
  0.079365  0.120482  0.000000      2.000000
  0.119048  0.120482  0.000000      1.000000
  0.000000  0.000000  0.044874      1.000000
  0.039683  0.000000  0.044874      2.000000
  0.079365  0.000000  0.044874      2.000000
  0.119048  0.000000  0.044874      1.000000
  0.000000  0.040161  0.044874      2.000000
  0.039683  0.040161  0.044874      2.000000
 -0.039683  0.040161  0.044874      2.000000
  0.079365  0.040161  0.044874      2.000000
 -0.079365  0.040161  0.044874      2.000000
  0.119048  0.040161  0.044874      2.000000
  0.000000  0.080321  0.044874      2.000000
  0.039683  0.080321  0.044874      2.000000
 -0.039683  0.080321  0.044874      2.000000
  0.079365  0.080321  0.044874      2.000000
 -0.079365  0.080321  0.044874      2.000000
  0.119048  0.080321  0.044874      2.000000
  0.000000  0.120482  0.044874      1.000000
  0.039683  0.120482  0.044874      2.000000
  0.079365  0.120482  0.044874      2.000000
  0.119048  0.120482  0.044874      1.000000
 


--------------------------------------------------------------------------------------------------------




 Dimension of arrays:
   k-points           NKPTS =     40   k-points in BZ     NKDIM =     40   number of bands    NBANDS=     32
   number of dos      NEDOS =    301   number of ions     NIONS =      8
   non local maximal  LDIM  =      5   non local SUM 2l+1 LMDIM =     13
   total plane-waves  NPLWV =  21600
   max r-space proj   IRMAX =      1   max aug-charges    IRDMAX=   6244
   dimension x,y,z NGX =    20 NGY =   20 NGZ =   54
   dimension x,y,z NGXF=    40 NGYF=   40 NGZF=  108
   support grid    NGXF=    40 NGYF=   40 NGZF=  108
   ions per type =               4   4
   NGX,Y,Z   is equivalent  to a cutoff of   7.92,  8.01,  8.06 a.u.
   NGXF,Y,Z  is equivalent  to a cutoff of  15.83, 16.02, 16.11 a.u.

 SYSTEM =  ./                                      
 POSCAR =  Ge Se                                   

 Startparameter for this run:
   NWRITE =      2    write-flag & timer
   PREC   = normal    normal or accurate (medium, high low for compatibility)
   ISTART =      0    job   : 0-new  1-cont  2-samecut
   ICHARG =      2    charge: 1-file 2-atom 10-const
   ISPIN  =      1    spin polarized calculation?
   LNONCOLLINEAR =      F non collinear calculations
   LSORBIT =      F    spin-orbit coupling
   INIWAV =      1    electr: 0-lowe 1-rand  2-diag
   LASPH  =      T    aspherical Exc in radial PAW
 Electronic Relaxation 1
   ENCUT  =  360.0 eV  26.46 Ry    5.14 a.u.   6.50  6.42 17.24*2*pi/ulx,y,z
   ENINI  =  360.0     initial cutoff
   ENAUG  =  446.8 eV  augmentation charge cutoff
   NELM   =    100;   NELMIN=  2; NELMDL= -5     # of ELM steps 
   EDIFF  = 0.1E-05   stopping-criterion for ELM
   LREAL  =      F    real-space projection
   NLSPLINE    = F    spline interpolate recip. space projectors
   LCOMPAT=      F    compatible to vasp.4.4
   GGA_COMPAT  = T    GGA compatible to vasp.4.4-vasp.4.6
   LMAXPAW     = -100 max onsite density
   LMAXMIX     =    4 max onsite mixed and CHGCAR
   VOSKOWN=      0    Vosko Wilk Nusair interpolation
   ROPT   =    0.00000   0.00000
 Ionic relaxation
   EDIFFG = 0.1E-04   stopping-criterion for IOM
   NSW    =      0    number of steps for IOM
   NBLOCK =      1;   KBLOCK =      1    inner block; outer block 
   IBRION =     -1    ionic relax: 0-MD 1-quasi-New 2-CG
   NFREE  =      0    steps in history (QN), initial steepest desc. (CG)
   ISIF   =      2    stress and relaxation
   IWAVPR =     10    prediction:  0-non 1-charg 2-wave 3-comb
   ISYM   =      0    0-nonsym 1-usesym 2-fastsym
   LCORR  =      T    Harris-Foulkes like correction to forces

   POTIM  = 0.5000    time-step for ionic-motion
   TEIN   =    0.0    initial temperature
   TEBEG  =    0.0;   TEEND  =   0.0 temperature during run
   SMASS  =  -3.00    Nose mass-parameter (am)
   estimated Nose-frequenzy (Omega)   =  0.10E-29 period in steps = 0.13E+47 mass=  -0.403E-27a.u.
   SCALEE = 1.0000    scale energy and forces
   NPACO  =    256;   APACO  = 10.0  distance and # of slots for P.C.
   PSTRESS=    0.0 pullay stress

  Mass of Ions in am
   POMASS =  72.61 78.96
  Ionic Valenz
   ZVAL   =   4.00  6.00
  Atomic Wigner-Seitz radii
   RWIGS  =  -1.00 -1.00
  virtual crystal weights 
   VCA    =   1.00  1.00
   NELECT =      40.0000    total number of electrons
   NUPDOWN=      -1.0000    fix difference up-down

 DOS related values:
   EMIN   =  10.00;   EMAX   =-10.00  energy-range for DOS
   EFERMI =   0.00;   METHOD = LEGACY      
   ISMEAR =     0;   SIGMA  =   0.05  broadening in eV -4-tet -1-fermi 0-gaus

 Electronic relaxation 2 (details)
   IALGO  =     38    algorithm
   LDIAG  =      T    sub-space diagonalisation (order eigenvalues)
   LSUBROT=      F    optimize rotation matrix (better conditioning)
   TURBO    =      0    0=normal 1=particle mesh
   IRESTART =      0    0=no restart 2=restart with 2 vectors
   NREBOOT  =      0    no. of reboots
   NMIN     =      0    reboot dimension
   EREF     =   0.00    reference energy to select bands
   IMIX   =      4    mixing-type and parameters
     AMIX     =   0.40;   BMIX     =  1.00
     AMIX_MAG =   1.60;   BMIX_MAG =  1.00
     AMIN     =   0.10
     WC   =   100.;   INIMIX=   1;  MIXPRE=   1;  MAXMIX= -45

 Intra band minimization:
   WEIMIN = 0.0000     energy-eigenvalue tresh-hold
   EBREAK =  0.78E-08  absolut break condition
   DEPER  =   0.30     relativ break condition  

   TIME   =   0.40     timestep for ELM

  volume/ion in A,a.u.               =      24.28       163.82
  Fermi-wavevector in a.u.,A,eV,Ry     =   0.966804  1.826995 12.717502  0.934710
  Thomas-Fermi vector in A             =   2.096636
 
 Write flags
   LWAVE        =      F    write WAVECAR
   LDOWNSAMPLE  =      F    k-point downsampling of WAVECAR
   LCHARG       =      F    write CHGCAR
   LVTOT        =      F    write LOCPOT, total local potential
   LVHAR        =      F    write LOCPOT, Hartree potential only
   LELF         =      F    write electronic localiz. function (ELF)
   LORBIT       =      0    0 simple, 1 ext, 2 COOP (PROOUT), +10 PAW based schemes


 Dipole corrections
   LMONO  =      F    monopole corrections only (constant potential shift)
   LDIPOL =      F    correct potential (dipole corrections)
   IDIPOL =      0    1-x, 2-y, 3-z, 4-all directions 
   EPSILON=  1.0000000 bulk dielectric constant

 Exchange correlation treatment:
   GGA     =    PE    GGA type
   LEXCH   =     8    internal setting for exchange type
   LIBXC   =     F    Libxc                    
   VOSKOWN =     0    Vosko Wilk Nusair interpolation
   LHFCALC =     F    Hartree Fock is set to
   LHFONE  =     F    Hartree Fock one center treatment
   AEXX    =    0.0000 exact exchange contribution

 Linear response parameters
   LEPSILON=     F    determine dielectric tensor
   LRPA    =     F    only Hartree local field effects (RPA)
   LNABLA  =     F    use nabla operator in PAW spheres
   LVEL    =     F    velocity operator in full k-point grid
   CSHIFT  =0.1000    complex shift for real part using Kramers Kronig
   OMEGAMAX=  -1.0    maximum frequency
   DEG_THRESHOLD= 0.2000000E-02 threshold for treating states as degnerate
   RTIME   =   -0.100 relaxation time in fs
  (WPLASMAI=    0.000 imaginary part of plasma frequency in eV, 0.658/RTIME)
   DFIELD  = 0.0000000 0.0000000 0.0000000 field for delta impulse in time
 
  Optional k-point grid parameters
   LKPOINTS_OPT  =     F    use optional k-point grid
   KPOINTS_OPT_MODE=     1    mode for optional k-point grid
 
 Orbital magnetization related:
   ORBITALMAG=     F  switch on orbital magnetization
   LCHIMAG   =     F  perturbation theory with respect to B field
   DQ        =  0.001000  dq finite difference perturbation B field
   LLRAUG    =     F  two centre corrections for induced B field
   LBONE     =     F  B-component reconstruction in AE one-centre
   LVGVCALC  =     T  calculate vGv susceptibility
   LVGVAPPL  =     F  apply vGv susceptibility instead of pGv for G=0

 Random number generation:
   RANDOM_GENERATOR = DEFAULT
   PCG_SEED         = not used


--------------------------------------------------------------------------------------------------------


 Static calculation
 charge density and potential will be updated during run
 non-spin polarized calculation
 Variant of blocked Davidson
 Davidson routine will perform the subspace rotation
 perform sub-space diagonalisation
    after iterative eigenvector-optimisation
 modified Broyden-mixing scheme, WC =      100.0
 initial mixing is a Kerker type mixing with AMIX =  0.4000 and BMIX =      1.0000
 Hartree-type preconditioning will be used
 using additional bands            12
 reciprocal scheme for non local part
 use partial core corrections
 calculate Harris-corrections to forces 
   (improved forces if not selfconsistent)
 use gradient corrections 
 use of overlap-Matrix (Vanderbilt PP)
 Gauss-broadening in eV      SIGMA  =   0.05


--------------------------------------------------------------------------------------------------------


  energy-cutoff  :      360.00
  volume of cell :      194.21
      direct lattice vectors                 reciprocal lattice vectors
     4.200000000  0.000000000  0.000000000     0.238095238  0.000000000  0.000000000
     0.000000000  4.150000000  0.000000000     0.000000000  0.240963855  0.000000000
     0.000000000  0.000000000 11.142221000     0.000000000  0.000000000  0.089748713

  length of vectors
     4.200000000  4.150000000 11.142221000     0.238095238  0.240963855  0.089748713


 
 k-points in units of 2pi/SCALE and weight: KPOINTS created by Atomic Simulation Env
   0.00000000  0.00000000  0.00000000       0.014
   0.03968254  0.00000000  0.00000000       0.028
   0.07936508  0.00000000  0.00000000       0.028
   0.11904762  0.00000000  0.00000000       0.014
   0.00000000  0.04016064  0.00000000       0.028
   0.03968254  0.04016064  0.00000000       0.028
  -0.03968254  0.04016064  0.00000000       0.028
   0.07936508  0.04016064  0.00000000       0.028
  -0.07936508  0.04016064  0.00000000       0.028
   0.11904762  0.04016064  0.00000000       0.028
   0.00000000  0.08032129  0.00000000       0.028
   0.03968254  0.08032129  0.00000000       0.028
  -0.03968254  0.08032129  0.00000000       0.028
   0.07936508  0.08032129  0.00000000       0.028
  -0.07936508  0.08032129  0.00000000       0.028
   0.11904762  0.08032129  0.00000000       0.028
   0.00000000  0.12048193  0.00000000       0.014
   0.03968254  0.12048193  0.00000000       0.028
   0.07936508  0.12048193  0.00000000       0.028
   0.11904762  0.12048193  0.00000000       0.014
   0.00000000  0.00000000  0.04487436       0.014
   0.03968254  0.00000000  0.04487436       0.028
   0.07936508  0.00000000  0.04487436       0.028
   0.11904762  0.00000000  0.04487436       0.014
   0.00000000  0.04016064  0.04487436       0.028
   0.03968254  0.04016064  0.04487436       0.028
  -0.03968254  0.04016064  0.04487436       0.028
   0.07936508  0.04016064  0.04487436       0.028
  -0.07936508  0.04016064  0.04487436       0.028
   0.11904762  0.04016064  0.04487436       0.028
   0.00000000  0.08032129  0.04487436       0.028
   0.03968254  0.08032129  0.04487436       0.028
  -0.03968254  0.08032129  0.04487436       0.028
   0.07936508  0.08032129  0.04487436       0.028
  -0.07936508  0.08032129  0.04487436       0.028
   0.11904762  0.08032129  0.04487436       0.028
   0.00000000  0.12048193  0.04487436       0.014
   0.03968254  0.12048193  0.04487436       0.028
   0.07936508  0.12048193  0.04487436       0.028
   0.11904762  0.12048193  0.04487436       0.014
 
 k-points in reciprocal lattice and weights: KPOINTS created by Atomic Simulation Env
   0.00000000  0.00000000  0.00000000       0.014
   0.16666667  0.00000000  0.00000000       0.028
   0.33333333  0.00000000  0.00000000       0.028
   0.50000000  0.00000000  0.00000000       0.014
   0.00000000  0.16666667  0.00000000       0.028
   0.16666667  0.16666667  0.00000000       0.028
  -0.16666667  0.16666667  0.00000000       0.028
   0.33333333  0.16666667  0.00000000       0.028
  -0.33333333  0.16666667  0.00000000       0.028
   0.50000000  0.16666667  0.00000000       0.028
   0.00000000  0.33333333  0.00000000       0.028
   0.16666667  0.33333333  0.00000000       0.028
  -0.16666667  0.33333333  0.00000000       0.028
   0.33333333  0.33333333  0.00000000       0.028
  -0.33333333  0.33333333  0.00000000       0.028
   0.50000000  0.33333333  0.00000000       0.028
   0.00000000  0.50000000  0.00000000       0.014
   0.16666667  0.50000000  0.00000000       0.028
   0.33333333  0.50000000  0.00000000       0.028
   0.50000000  0.50000000  0.00000000       0.014
   0.00000000  0.00000000  0.50000000       0.014
   0.16666667  0.00000000  0.50000000       0.028
   0.33333333  0.00000000  0.50000000       0.028
   0.50000000  0.00000000  0.50000000       0.014
   0.00000000  0.16666667  0.50000000       0.028
   0.16666667  0.16666667  0.50000000       0.028
  -0.16666667  0.16666667  0.50000000       0.028
   0.33333333  0.16666667  0.50000000       0.028
  -0.33333333  0.16666667  0.50000000       0.028
   0.50000000  0.16666667  0.50000000       0.028
   0.00000000  0.33333333  0.50000000       0.028
   0.16666667  0.33333333  0.50000000       0.028
  -0.16666667  0.33333333  0.50000000       0.028
   0.33333333  0.33333333  0.50000000       0.028
  -0.33333333  0.33333333  0.50000000       0.028
   0.50000000  0.33333333  0.50000000       0.028
   0.00000000  0.50000000  0.50000000       0.014
   0.16666667  0.50000000  0.50000000       0.028
   0.33333333  0.50000000  0.50000000       0.028
   0.50000000  0.50000000  0.50000000       0.014
 
 position of ions in fractional coordinates (direct lattice) 
   0.09826404  0.25000000  0.13149889
   0.59826404  0.75000000  0.36850111
   0.90173596  0.75000000  0.86850111
   0.40173596  0.25000000  0.63149889
   0.99873958  0.25000000  0.35809074
   0.49873958  0.75000000  0.14190926
   0.00126042  0.75000000  0.64190926
   0.50126042  0.25000000  0.85809074
 
 position of ions in cartesian coordinates  (Angst):
   0.41270895  1.03750000  1.46518971
   2.51270895  3.11250000  4.10592079
   3.78729105  3.11250000  9.67703129
   1.68729105  1.03750000  7.03630021
   4.19470626  1.03750000  3.98992617
   2.09470626  3.11250000  1.58118433
   0.00529374  3.11250000  7.15229483
   2.10529374  1.03750000  9.56103667
 


--------------------------------------------------------------------------------------------------------


 k-point   1 :   0.0000 0.0000 0.0000  plane waves:    3063
 k-point   2 :   0.1667 0.0000 0.0000  plane waves:    3035
 k-point   3 :   0.3333 0.0000 0.0000  plane waves:    3011
 k-point   4 :   0.5000 0.0000 0.0000  plane waves:    2996
 k-point   5 :   0.0000 0.1667 0.0000  plane waves:    3021
 k-point   6 :   0.1667 0.1667 0.0000  plane waves:    3014
 k-point   7 :  -0.1667 0.1667 0.0000  plane waves:    3014
 k-point   8 :   0.3333 0.1667 0.0000  plane waves:    3012
 k-point   9 :  -0.3333 0.1667 0.0000  plane waves:    3012
 k-point  10 :   0.5000 0.1667 0.0000  plane waves:    3018
 k-point  11 :   0.0000 0.3333 0.0000  plane waves:    3019
 k-point  12 :   0.1667 0.3333 0.0000  plane waves:    3015
 k-point  13 :  -0.1667 0.3333 0.0000  plane waves:    3015
 k-point  14 :   0.3333 0.3333 0.0000  plane waves:    3005
 k-point  15 :  -0.3333 0.3333 0.0000  plane waves:    3005
 k-point  16 :   0.5000 0.3333 0.0000  plane waves:    2996
 k-point  17 :   0.0000 0.5000 0.0000  plane waves:    3000
 k-point  18 :   0.1667 0.5000 0.0000  plane waves:    3010
 k-point  19 :   0.3333 0.5000 0.0000  plane waves:    2992
 k-point  20 :   0.5000 0.5000 0.0000  plane waves:    2964
 k-point  21 :   0.0000 0.0000 0.5000  plane waves:    3010
 k-point  22 :   0.1667 0.0000 0.5000  plane waves:    3018
 k-point  23 :   0.3333 0.0000 0.5000  plane waves:    3020
 k-point  24 :   0.5000 0.0000 0.5000  plane waves:    3008
 k-point  25 :   0.0000 0.1667 0.5000  plane waves:    3020
 k-point  26 :   0.1667 0.1667 0.5000  plane waves:    3016
 k-point  27 :  -0.1667 0.1667 0.5000  plane waves:    3016
 k-point  28 :   0.3333 0.1667 0.5000  plane waves:    3016
 k-point  29 :  -0.3333 0.1667 0.5000  plane waves:    3016
 k-point  30 :   0.5000 0.1667 0.5000  plane waves:    2996
 k-point  31 :   0.0000 0.3333 0.5000  plane waves:    3022
 k-point  32 :   0.1667 0.3333 0.5000  plane waves:    3016
 k-point  33 :  -0.1667 0.3333 0.5000  plane waves:    3016
 k-point  34 :   0.3333 0.3333 0.5000  plane waves:    3004
 k-point  35 :  -0.3333 0.3333 0.5000  plane waves:    3004
 k-point  36 :   0.5000 0.3333 0.5000  plane waves:    2996
 k-point  37 :   0.0000 0.5000 0.5000  plane waves:    3004
 k-point  38 :   0.1667 0.5000 0.5000  plane waves:    3008
 k-point  39 :   0.3333 0.5000 0.5000  plane waves:    2992
 k-point  40 :   0.5000 0.5000 0.5000  plane waves:    2952

 maximum and minimum number of plane-waves per node :       785      722

 maximum number of plane-waves:      3063
 maximum index in each direction: 
   IXMAX=    6   IYMAX=    6   IZMAX=   17
   IXMIN=   -6   IYMIN=   -6   IZMIN=  -17


 parallel 3D FFT for wavefunctions:
    minimum data exchange during FFTs selected (reduces bandwidth)
 parallel 3D FFT for charge:
    minimum data exchange during FFTs selected (reduces bandwidth)


 total amount of memory used by VASP MPI-rank0    38465. kBytes
=======================================================================

   base      :      30000. kBytes
   nonl-proj :       6623. kBytes
   fftplans  :        320. kBytes
   grid      :        462. kBytes
   one-center:         16. kBytes
   wavefun   :       1044. kBytes
 
     INWAV:  cpu time      0.0000: real time      0.0001
 Broyden mixing: mesh for mixing (old mesh)
   NGX = 13   NGY = 13   NGZ = 35
  (NGX  = 40   NGY  = 40   NGZ  =108)
  gives a total of   5915 points

 initial charge density was supplied:
 charge density of overlapping atoms calculated
 number of electron      40.0000000 magnetization 
 keeping initial charge density in first step


--------------------------------------------------------------------------------------------------------


 Maximum index for augmentation-charges           349 (set IRDMAX)


--------------------------------------------------------------------------------------------------------


 First call to EWALD:  gamma=   0.306
 Maximum number of real-space cells 4x 4x 2
 Maximum number of reciprocal cells 2x 2x 5

    FEWALD:  cpu time      0.0008: real time      0.0008


--------------------------------------- Ionic step        1  -------------------------------------------




--------------------------------------- Iteration      1(   1)  ---------------------------------------


    POTLOK:  cpu time      0.0059: real time      0.0062
    SETDIJ:  cpu time      0.1397: real time      0.1402
     EDDAV:  cpu time      0.2670: real time      0.2697
       DOS:  cpu time      0.0013: real time      0.0013
    --------------------------------------------
      LOOP:  cpu time      0.4138: real time      0.4175

 eigenvalue-minimisations  :  2560
 total energy-change (2. order) : 0.1295224E+03  (-0.1283521E+04)
 number of electron      40.0000000 magnetization 
 augmentation part       40.0000000 magnetization 

 Free energy of the ion-electron system (eV)
  ---------------------------------------------------
  alpha Z        PSCENC =        87.24854726
  Ewald energy   TEWEN  =     -1424.50079884
  -Hartree energ DENC   =      -123.34214825
  -exchange      EXHF   =         0.00000000
  -V(xc)+E(xc)   XCENC  =       -33.59223779
  PAW double counting   =      1193.78262552    -1080.73714043
  entropy T*S    EENTRO =        -0.00195151
  eigenvalues    EBANDS =        62.18088216
  atomic energy  EATOM  =      1448.48460880
  Solvation  Ediel_sol  =         0.00000000
  ---------------------------------------------------
  free energy    TOTEN  =       129.52238692 eV

  energy without entropy =      129.52433843  energy(sigma->0) =      129.52336267


--------------------------------------------------------------------------------------------------------




--------------------------------------- Iteration      1(   2)  ---------------------------------------


     EDDAV:  cpu time      0.3313: real time      0.3348
       DOS:  cpu time      0.0005: real time      0.0005
    --------------------------------------------
      LOOP:  cpu time      0.3318: real time      0.3353

 eigenvalue-minimisations  :  3760
 total energy-change (2. order) :-0.1552110E+03  (-0.1506215E+03)
 number of electron      40.0000000 magnetization 
 augmentation part       40.0000000 magnetization 

 Free energy of the ion-electron system (eV)
  ---------------------------------------------------
  alpha Z        PSCENC =        87.24854726
  Ewald energy   TEWEN  =     -1424.50079884
  -Hartree energ DENC   =      -123.34214825
  -exchange      EXHF   =         0.00000000
  -V(xc)+E(xc)   XCENC  =       -33.59223779
  PAW double counting   =      1193.78262552    -1080.73714043
  entropy T*S    EENTRO =        -0.00000000
  eigenvalues    EBANDS =       -93.03205503
  atomic energy  EATOM  =      1448.48460880
  Solvation  Ediel_sol  =         0.00000000
  ---------------------------------------------------
  free energy    TOTEN  =       -25.68859877 eV

  energy without entropy =      -25.68859877  energy(sigma->0) =      -25.68859877


--------------------------------------------------------------------------------------------------------




--------------------------------------- Iteration      1(   3)  ---------------------------------------


     EDDAV:  cpu time      0.3036: real time      0.3069
       DOS:  cpu time      0.0006: real time      0.0005
    --------------------------------------------
      LOOP:  cpu time      0.3042: real time      0.3075

 eigenvalue-minimisations  :  3216
 total energy-change (2. order) :-0.8415900E+01  (-0.8398930E+01)
 number of electron      40.0000000 magnetization 
 augmentation part       40.0000000 magnetization 

 Free energy of the ion-electron system (eV)
  ---------------------------------------------------
  alpha Z        PSCENC =        87.24854726
  Ewald energy   TEWEN  =     -1424.50079884
  -Hartree energ DENC   =      -123.34214825
  -exchange      EXHF   =         0.00000000
  -V(xc)+E(xc)   XCENC  =       -33.59223779
  PAW double counting   =      1193.78262552    -1080.73714043
  entropy T*S    EENTRO =        -0.00000000
  eigenvalues    EBANDS =      -101.44795531
  atomic energy  EATOM  =      1448.48460880
  Solvation  Ediel_sol  =         0.00000000
  ---------------------------------------------------
  free energy    TOTEN  =       -34.10449904 eV

  energy without entropy =      -34.10449904  energy(sigma->0) =      -34.10449904


--------------------------------------------------------------------------------------------------------




--------------------------------------- Iteration      1(   4)  ---------------------------------------


     EDDAV:  cpu time      0.3056: real time      0.3089
       DOS:  cpu time      0.0005: real time      0.0006
    --------------------------------------------
      LOOP:  cpu time      0.3062: real time      0.3095

 eigenvalue-minimisations  :  3248
 total energy-change (2. order) :-0.5351482E-01  (-0.5350249E-01)
 number of electron      40.0000000 magnetization 
 augmentation part       40.0000000 magnetization 

 Free energy of the ion-electron system (eV)
  ---------------------------------------------------
  alpha Z        PSCENC =        87.24854726
  Ewald energy   TEWEN  =     -1424.50079884
  -Hartree energ DENC   =      -123.34214825
  -exchange      EXHF   =         0.00000000
  -V(xc)+E(xc)   XCENC  =       -33.59223779
  PAW double counting   =      1193.78262552    -1080.73714043
  entropy T*S    EENTRO =        -0.00000000
  eigenvalues    EBANDS =      -101.50147012
  atomic energy  EATOM  =      1448.48460880
  Solvation  Ediel_sol  =         0.00000000
  ---------------------------------------------------
  free energy    TOTEN  =       -34.15801386 eV

  energy without entropy =      -34.15801386  energy(sigma->0) =      -34.15801386


--------------------------------------------------------------------------------------------------------




--------------------------------------- Iteration      1(   5)  ---------------------------------------


     EDDAV:  cpu time      0.3013: real time      0.3048
       DOS:  cpu time      0.0005: real time      0.0005
    CHARGE:  cpu time      0.0048: real time      0.0049
    MIXING:  cpu time      0.0007: real time      0.0007
    --------------------------------------------
      LOOP:  cpu time      0.3074: real time      0.3110

 eigenvalue-minimisations  :  3184
 total energy-change (2. order) :-0.3355562E-03  (-0.3355531E-03)
 number of electron      39.9999941 magnetization 
 augmentation part       -7.4156098 magnetization 

 Broyden mixing:
  rms(total) = 0.62739E+00    rms(broyden)= 0.62737E+00
  rms(prec ) = 0.71838E+00
  weight for this iteration     100.00

 Free energy of the ion-electron system (eV)
  ---------------------------------------------------
  alpha Z        PSCENC =        87.24854726
  Ewald energy   TEWEN  =     -1424.50079884
  -Hartree energ DENC   =      -123.34214825
  -exchange      EXHF   =         0.00000000
  -V(xc)+E(xc)   XCENC  =       -33.59223779
  PAW double counting   =      1193.78262552    -1080.73714043
  entropy T*S    EENTRO =        -0.00000000
  eigenvalues    EBANDS =      -101.50180568
  atomic energy  EATOM  =      1448.48460880
  Solvation  Ediel_sol  =         0.00000000
  ---------------------------------------------------
  free energy    TOTEN  =       -34.15834941 eV

  energy without entropy =      -34.15834941  energy(sigma->0) =      -34.15834941


--------------------------------------------------------------------------------------------------------




--------------------------------------- Iteration      1(   6)  ---------------------------------------


    POTLOK:  cpu time      0.0053: real time      0.0055
    SETDIJ:  cpu time      0.1374: real time      0.1382
     EDDAV:  cpu time      0.3165: real time      0.3197
       DOS:  cpu time      0.0006: real time      0.0006
    CHARGE:  cpu time      0.0046: real time      0.0046
    MIXING:  cpu time      0.0005: real time      0.0005
    --------------------------------------------
      LOOP:  cpu time      0.4650: real time      0.4691

 eigenvalue-minimisations  :  3136
 total energy-change (2. order) : 0.4332518E+00  (-0.8884168E-01)
 number of electron      39.9999942 magnetization 
 augmentation part       -7.3576232 magnetization 

 Broyden mixing:
  rms(total) = 0.39101E+00    rms(broyden)= 0.39101E+00
  rms(prec ) = 0.41149E+00
  weight for this iteration     100.00

 eigenvalues of (default mixing * dielectric matrix)
  average eigenvalue GAMMA=   2.0982
  2.0982

 Free energy of the ion-electron system (eV)
  ---------------------------------------------------
  alpha Z        PSCENC =        87.24854726
  Ewald energy   TEWEN  =     -1424.50079884
  -Hartree energ DENC   =      -129.22492953
  -exchange      EXHF   =         0.00000000
  -V(xc)+E(xc)   XCENC  =       -33.00515621
  PAW double counting   =      1442.57684206    -1329.82699248
  entropy T*S    EENTRO =        -0.00000000
  eigenvalues    EBANDS =       -95.47721865
  atomic energy  EATOM  =      1448.48460880
  Solvation  Ediel_sol  =         0.00000000
  ---------------------------------------------------
  free energy    TOTEN  =       -33.72509760 eV

  energy without entropy =      -33.72509760  energy(sigma->0) =      -33.72509760


--------------------------------------------------------------------------------------------------------




--------------------------------------- Iteration      1(   7)  ---------------------------------------


    POTLOK:  cpu time      0.0053: real time      0.0055
    SETDIJ:  cpu time      0.1374: real time      0.1382
     EDDAV:  cpu time      0.3390: real time      0.3423
       DOS:  cpu time      0.0005: real time      0.0005
    CHARGE:  cpu time      0.0053: real time      0.0054
    MIXING:  cpu time      0.0005: real time      0.0005
    --------------------------------------------
      LOOP:  cpu time      0.4880: real time      0.4924

 eigenvalue-minimisations  :  3296
 total energy-change (2. order) : 0.6407335E-02  (-0.2504629E-01)
 number of electron      39.9999942 magnetization 
 augmentation part       -7.3476443 magnetization 

 Broyden mixing:
  rms(total) = 0.13688E+00    rms(broyden)= 0.13688E+00
  rms(prec ) = 0.14542E+00
  weight for this iteration     100.00

 eigenvalues of (default mixing * dielectric matrix)
  average eigenvalue GAMMA=   1.7935
  1.2196  2.3674

 Free energy of the ion-electron system (eV)
  ---------------------------------------------------
  alpha Z        PSCENC =        87.24854726
  Ewald energy   TEWEN  =     -1424.50079884
  -Hartree energ DENC   =      -131.46795750
  -exchange      EXHF   =         0.00000000
  -V(xc)+E(xc)   XCENC  =       -32.59952568
  PAW double counting   =      1733.63276808    -1621.08143128
  entropy T*S    EENTRO =        -0.00000000
  eigenvalues    EBANDS =       -93.43490111
  atomic energy  EATOM  =      1448.48460880
  Solvation  Ediel_sol  =         0.00000000
  ---------------------------------------------------
  free energy    TOTEN  =       -33.71869026 eV

  energy without entropy =      -33.71869026  energy(sigma->0) =      -33.71869026


--------------------------------------------------------------------------------------------------------




--------------------------------------- Iteration      1(   8)  ---------------------------------------


    POTLOK:  cpu time      0.0052: real time      0.0054
    SETDIJ:  cpu time      0.1368: real time      0.1379
     EDDAV:  cpu time      0.2873: real time      0.2903
       DOS:  cpu time      0.0005: real time      0.0005
    CHARGE:  cpu time      0.0042: real time      0.0042
    MIXING:  cpu time      0.0005: real time      0.0005
    --------------------------------------------
      LOOP:  cpu time      0.4345: real time      0.4388

 eigenvalue-minimisations  :  3088
 total energy-change (2. order) : 0.1344579E-02  (-0.2689738E-02)
 number of electron      39.9999942 magnetization 
 augmentation part       -7.3588218 magnetization 

 Broyden mixing:
  rms(total) = 0.17148E-01    rms(broyden)= 0.17148E-01
  rms(prec ) = 0.21542E-01
  weight for this iteration     100.00

 eigenvalues of (default mixing * dielectric matrix)
  average eigenvalue GAMMA=   1.6763
  2.4960  1.2664  1.2664

 Free energy of the ion-electron system (eV)
  ---------------------------------------------------
  alpha Z        PSCENC =        87.24854726
  Ewald energy   TEWEN  =     -1424.50079884
  -Hartree energ DENC   =      -131.30480208
  -exchange      EXHF   =         0.00000000
  -V(xc)+E(xc)   XCENC  =       -32.48065530
  PAW double counting   =      1873.53742204    -1761.04005481
  entropy T*S    EENTRO =        -0.00000000
  eigenvalues    EBANDS =       -93.66161275
  atomic energy  EATOM  =      1448.48460880
  Solvation  Ediel_sol  =         0.00000000
  ---------------------------------------------------
  free energy    TOTEN  =       -33.71734568 eV

  energy without entropy =      -33.71734568  energy(sigma->0) =      -33.71734568


--------------------------------------------------------------------------------------------------------




--------------------------------------- Iteration      1(   9)  ---------------------------------------


    POTLOK:  cpu time      0.0051: real time      0.0053
    SETDIJ:  cpu time      0.1373: real time      0.1380
     EDDAV:  cpu time      0.3050: real time      0.3080
       DOS:  cpu time      0.0006: real time      0.0006
    CHARGE:  cpu time      0.0042: real time      0.0042
    MIXING:  cpu time      0.0005: real time      0.0005
    --------------------------------------------
      LOOP:  cpu time      0.4526: real time      0.4567

 eigenvalue-minimisations  :  3264
 total energy-change (2. order) :-0.9883841E-04  (-0.3642202E-03)
 number of electron      39.9999942 magnetization 
 augmentation part       -7.3565251 magnetization 

 Broyden mixing:
  rms(total) = 0.66457E-02    rms(broyden)= 0.66457E-02
  rms(prec ) = 0.75268E-02
  weight for this iteration     100.00

 eigenvalues of (default mixing * dielectric matrix)
  average eigenvalue GAMMA=   1.7939
  2.4190  2.4190  1.1687  1.1687

 Free energy of the ion-electron system (eV)
  ---------------------------------------------------
  alpha Z        PSCENC =        87.24854726
  Ewald energy   TEWEN  =     -1424.50079884
  -Hartree energ DENC   =      -131.70239896
  -exchange      EXHF   =         0.00000000
  -V(xc)+E(xc)   XCENC  =       -32.44015134
  PAW double counting   =      1886.65789678    -1774.17200269
  entropy T*S    EENTRO =        -0.00000000
  eigenvalues    EBANDS =       -93.29314552
  atomic energy  EATOM  =      1448.48460880
  Solvation  Ediel_sol  =         0.00000000
  ---------------------------------------------------
  free energy    TOTEN  =       -33.71744452 eV

  energy without entropy =      -33.71744452  energy(sigma->0) =      -33.71744452


--------------------------------------------------------------------------------------------------------




--------------------------------------- Iteration      1(  10)  ---------------------------------------


    POTLOK:  cpu time      0.0051: real time      0.0053
    SETDIJ:  cpu time      0.1370: real time      0.1379
     EDDAV:  cpu time      0.2484: real time      0.2495
       DOS:  cpu time      0.0003: real time      0.0003
    CHARGE:  cpu time      0.0035: real time      0.0035
    MIXING:  cpu time      0.0003: real time      0.0003
    --------------------------------------------
      LOOP:  cpu time      0.3946: real time      0.3968

 eigenvalue-minimisations  :  2944
 total energy-change (2. order) :-0.5752211E-04  (-0.3174807E-04)
 number of electron      39.9999942 magnetization 
 augmentation part       -7.3565297 magnetization 

 Broyden mixing:
  rms(total) = 0.23983E-02    rms(broyden)= 0.23983E-02
  rms(prec ) = 0.28308E-02
  weight for this iteration     100.00

 eigenvalues of (default mixing * dielectric matrix)
  average eigenvalue GAMMA=   1.7595
  2.7925  2.4954  1.1321  1.1889  1.1889

 Free energy of the ion-electron system (eV)
  ---------------------------------------------------
  alpha Z        PSCENC =        87.24854726
  Ewald energy   TEWEN  =     -1424.50079884
  -Hartree energ DENC   =      -131.72063164
  -exchange      EXHF   =         0.00000000
  -V(xc)+E(xc)   XCENC  =       -32.43940932
  PAW double counting   =      1879.36627199    -1766.87507469
  entropy T*S    EENTRO =        -0.00000000
  eigenvalues    EBANDS =       -93.28101558
  atomic energy  EATOM  =      1448.48460880
  Solvation  Ediel_sol  =         0.00000000
  ---------------------------------------------------
  free energy    TOTEN  =       -33.71750204 eV

  energy without entropy =      -33.71750204  energy(sigma->0) =      -33.71750204


--------------------------------------------------------------------------------------------------------




--------------------------------------- Iteration      1(  11)  ---------------------------------------


    POTLOK:  cpu time      0.0036: real time      0.0037
    SETDIJ:  cpu time      0.1365: real time      0.1370
     EDDAV:  cpu time      0.1984: real time      0.1994
       DOS:  cpu time      0.0003: real time      0.0003
    CHARGE:  cpu time      0.0034: real time      0.0035
    MIXING:  cpu time      0.0003: real time      0.0003
    --------------------------------------------
      LOOP:  cpu time      0.3426: real time      0.3442

 eigenvalue-minimisations  :  3168
 total energy-change (2. order) :-0.1726151E-04  (-0.3121659E-05)
 number of electron      39.9999942 magnetization 
 augmentation part       -7.3567411 magnetization 

 Broyden mixing:
  rms(total) = 0.12239E-02    rms(broyden)= 0.12239E-02
  rms(prec ) = 0.13500E-02
  weight for this iteration     100.00

 eigenvalues of (default mixing * dielectric matrix)
  average eigenvalue GAMMA=   1.7547
  2.6632  2.6632  1.9387  0.9847  1.1393  1.1393

 Free energy of the ion-electron system (eV)
  ---------------------------------------------------
  alpha Z        PSCENC =        87.24854726
  Ewald energy   TEWEN  =     -1424.50079884
  -Hartree energ DENC   =      -131.74214491
  -exchange      EXHF   =         0.00000000
  -V(xc)+E(xc)   XCENC  =       -32.43421246
  PAW double counting   =      1881.32390622    -1768.83330098
  entropy T*S    EENTRO =        -0.00000000
  eigenvalues    EBANDS =       -93.26412439
  atomic energy  EATOM  =      1448.48460880
  Solvation  Ediel_sol  =         0.00000000
  ---------------------------------------------------
  free energy    TOTEN  =       -33.71751931 eV

  energy without entropy =      -33.71751931  energy(sigma->0) =      -33.71751931


--------------------------------------------------------------------------------------------------------




--------------------------------------- Iteration      1(  12)  ---------------------------------------


    POTLOK:  cpu time      0.0036: real time      0.0038
    SETDIJ:  cpu time      0.1165: real time      0.1168
     EDDAV:  cpu time      0.1885: real time      0.1895
       DOS:  cpu time      0.0003: real time      0.0003
    --------------------------------------------
      LOOP:  cpu time      0.3090: real time      0.3104

 eigenvalue-minimisations  :  3040
 total energy-change (2. order) : 0.5724035E-06  (-0.4950425E-06)
 number of electron      39.9999942 magnetization 
 augmentation part       -7.3567411 magnetization 

 Free energy of the ion-electron system (eV)
  ---------------------------------------------------
  alpha Z        PSCENC =        87.24854726
  Ewald energy   TEWEN  =     -1424.50079884
  -Hartree energ DENC   =      -131.75067085
  -exchange      EXHF   =         0.00000000
  -V(xc)+E(xc)   XCENC  =       -32.43357583
  PAW double counting   =      1880.43490410    -1767.94384838
  entropy T*S    EENTRO =        -0.00000000
  eigenvalues    EBANDS =       -93.25668499
  atomic energy  EATOM  =      1448.48460880
  Solvation  Ediel_sol  =         0.00000000
  ---------------------------------------------------
  free energy    TOTEN  =       -33.71751873 eV

  energy without entropy =      -33.71751873  energy(sigma->0) =      -33.71751873


--------------------------------------------------------------------------------------------------------




 average (electrostatic) potential at core
  the test charge radii are     1.1631  1.0808
  (the norm of the test charge is              1.0000)
       1 -33.5765       2 -33.5765       3 -33.5765       4 -33.5765       5 -54.9569
       6 -54.9569       7 -54.9569       8 -54.9569
 
 
 
 E-fermi :   3.3417     XC(G=0):  -9.3127     alpha+bet : -8.6919

 Fermi energy:         3.3416821198

 k-point     1 :       0.0000    0.0000    0.0000
  band No.  band energies     occupation 
      1     -10.8791      2.00000
      2     -10.5500      2.00000
      3      -9.5913      2.00000
      4      -9.0955      2.00000
      5      -4.5253      2.00000
      6      -4.0077      2.00000
      7      -2.5284      2.00000
      8      -2.4293      2.00000
      9      -1.8460      2.00000
     10      -0.5222      2.00000
     11      -0.0985      2.00000
     12       0.1346      2.00000
     13       0.1546      2.00000
     14       0.3174      2.00000
     15       0.8053      2.00000
     16       1.4848      2.00000
     17       1.8849      2.00000
     18       2.1182      2.00000
     19       2.6145      2.00000
     20       2.6608      2.00000
     21       4.1116      0.00000
     22       5.7784      0.00000
     23       5.8714      0.00000
     24       6.0370      0.00000
     25       6.3132      0.00000
     26       6.8622      0.00000
     27       7.1365      0.00000
     28       7.3903      0.00000
     29       7.9959      0.00000
     30       8.3205      0.00000
     31       8.7615      0.00000
     32       9.0117      0.00000

 k-point     2 :       0.1667    0.0000    0.0000
  band No.  band energies     occupation 
      1     -10.7411      2.00000
      2     -10.4193      2.00000
      3      -9.5692      2.00000
      4      -9.1167      2.00000
      5      -4.8468      2.00000
      6      -4.1625      2.00000
      7      -3.1634      2.00000
      8      -2.8135      2.00000
      9      -1.6491      2.00000
     10      -0.3368      2.00000
     11       0.0781      2.00000
     12       0.1807      2.00000
     13       0.5021      2.00000
     14       0.7223      2.00000
     15       0.9124      2.00000
     16       1.5414      2.00000
     17       1.9973      2.00000
     18       2.3544      2.00000
     19       2.5005      2.00000
     20       2.6371      2.00000
     21       4.1127      0.00000
     22       5.2115      0.00000
     23       5.6541      0.00000
     24       5.8540      0.00000
     25       6.0311      0.00000
     26       6.3253      0.00000
     27       6.6939      0.00000
     28       7.3597      0.00000
     29       7.4197      0.00000
     30       7.9578      0.00000
     31       8.2012      0.00000
     32       8.4692      0.00000

 k-point     3 :       0.3333    0.0000    0.0000
  band No.  band energies     occupation 
      1     -10.3683      2.00000
      2     -10.0647      2.00000
      3      -9.6126      2.00000
      4      -9.2584      2.00000
      5      -5.2572      2.00000
      6      -4.3884      2.00000
      7      -4.2804      2.00000
      8      -3.5724      2.00000
      9      -1.0932      2.00000
     10       0.1756      2.00000
     11       0.3259      2.00000
     12       0.5604      2.00000
     13       1.0723      2.00000
     14       1.1179      2.00000
     15       1.2564      2.00000
     16       1.5354      2.00000
     17       1.9805      2.00000
     18       2.3372      2.00000
     19       2.4793      2.00000
     20       3.0991      2.00000
     21       4.0523      0.00000
     22       4.4533      0.00000
     23       4.5557      0.00000
     24       4.9716      0.00000
     25       5.2332      0.00000
     26       5.7687      0.00000
     27       5.8690      0.00000
     28       5.9753      0.00000
     29       6.8042      0.00000
     30       6.8484      0.00000
     31       8.2204      0.00000
     32       8.8435      0.00000

 k-point     4 :       0.5000    0.0000    0.0000
  band No.  band energies     occupation 
      1      -9.9083      2.00000
      2      -9.9083      2.00000
      3      -9.6116      2.00000
      4      -9.6116      2.00000
      5      -5.0942      2.00000
      6      -5.0942      2.00000
      7      -4.2092      2.00000
      8      -4.2092      2.00000
      9      -0.2929      2.00000
     10      -0.2929      2.00000
     11       0.8122      2.00000
     12       0.8122      2.00000
     13       1.1598      2.00000
     14       1.1598      2.00000
     15       1.7529      2.00000
     16       1.7529      2.00000
     17       2.0726      2.00000
     18       2.0726      2.00000
     19       2.5612      2.00000
     20       2.5612      2.00000
     21       4.1960      0.00000
     22       4.1960      0.00000
     23       4.7826      0.00000
     24       4.7826      0.00000
     25       4.8867      0.00000
     26       4.8867      0.00000
     27       5.6360      0.00000
     28       5.6360      0.00000
     29       5.8067      0.00000
     30       5.8067      0.00000
     31       8.8044      0.00000
     32       8.8044      0.00000

 k-point     5 :       0.0000    0.1667    0.0000
  band No.  band energies     occupation 
      1     -10.7188      2.00000
      2     -10.4061      2.00000
      3      -9.5188      2.00000
      4      -9.0970      2.00000
      5      -4.8511      2.00000
      6      -4.3990      2.00000
      7      -3.2502      2.00000
      8      -2.8985      2.00000
      9      -1.6736      2.00000
     10      -0.2946      2.00000
     11       0.0656      2.00000
     12       0.3605      2.00000
     13       0.3665      2.00000
     14       0.4581      2.00000
     15       1.2433      2.00000
     16       1.5843      2.00000
     17       2.0014      2.00000
     18       2.4131      2.00000
     19       2.4273      2.00000
     20       2.6042      2.00000
     21       4.2376      0.00000
     22       5.6652      0.00000
     23       5.8631      0.00000
     24       6.1181      0.00000
     25       6.2072      0.00000
     26       6.4870      0.00000
     27       6.5968      0.00000
     28       6.9711      0.00000
     29       7.6591      0.00000
     30       7.6798      0.00000
     31       8.3034      0.00000
     32       8.5243      0.00000

 k-point     6 :       0.1667    0.1667    0.0000
  band No.  band energies     occupation 
      1     -10.5870      2.00000
      2     -10.2825      2.00000
      3      -9.4994      2.00000
      4      -9.1130      2.00000
      5      -4.9959      2.00000
      6      -4.3904      2.00000
      7      -3.4624      2.00000
      8      -3.2221      2.00000
      9      -1.4891      2.00000
     10      -0.8650      2.00000
     11      -0.6269      2.00000
     12       0.4014      2.00000
     13       0.7543      2.00000
     14       1.1069      2.00000
     15       1.2319      2.00000
     16       1.3564      2.00000
     17       2.3910      2.00000
     18       2.4061      2.00000
     19       2.5407      2.00000
     20       2.6373      2.00000
     21       4.2604      0.00000
     22       4.8224      0.00000
     23       5.1884      0.00000
     24       5.3148      0.00000
     25       6.1338      0.00000
     26       6.5703      0.00000
     27       7.0398      0.00000
     28       7.2529      0.00000
     29       7.6402      0.00000
     30       7.7594      0.00000
     31       7.9450      0.00000
     32       8.5959      0.00000

 k-point     7 :      -0.1667    0.1667    0.0000
  band No.  band energies     occupation 
      1     -10.5870      2.00000
      2     -10.2825      2.00000
      3      -9.4994      2.00000
      4      -9.1130      2.00000
      5      -4.9959      2.00000
      6      -4.3904      2.00000
      7      -3.4624      2.00000
      8      -3.2221      2.00000
      9      -1.4891      2.00000
     10      -0.8650      2.00000
     11      -0.6269      2.00000
     12       0.4014      2.00000
     13       0.7543      2.00000
     14       1.1069      2.00000
     15       1.2319      2.00000
     16       1.3564      2.00000
     17       2.3910      2.00000
     18       2.4061      2.00000
     19       2.5407      2.00000
     20       2.6373      2.00000
     21       4.2604      0.00000
     22       4.8224      0.00000
     23       5.1884      0.00000
     24       5.3148      0.00000
     25       6.1338      0.00000
     26       6.5703      0.00000
     27       7.0398      0.00000
     28       7.2529      0.00000
     29       7.6402      0.00000
     30       7.7594      0.00000
     31       7.9450      0.00000
     32       8.5959      0.00000

 k-point     8 :       0.3333    0.1667    0.0000
  band No.  band energies     occupation 
      1     -10.2343      2.00000
      2      -9.9513      2.00000
      3      -9.5397      2.00000
      4      -9.2305      2.00000
      5      -5.1923      2.00000
      6      -4.3774      2.00000
      7      -4.2591      2.00000
      8      -3.6997      2.00000
      9      -0.9946      2.00000
     10      -0.9722      2.00000
     11      -0.7496      2.00000
     12       0.2476      2.00000
     13       0.3708      2.00000
     14       0.9612      2.00000
     15       1.2451      2.00000
     16       1.7474      2.00000
     17       2.0550      2.00000
     18       2.3986      2.00000
     19       2.5132      2.00000
     20       2.6442      2.00000
     21       4.2169      0.00000
     22       4.5259      0.00000
     23       5.0021      0.00000
     24       5.2334      0.00000
     25       5.4002      0.00000
     26       6.3635      0.00000
     27       6.5174      0.00000
     28       7.2689      0.00000
     29       7.4743      0.00000
     30       7.9551      0.00000
     31       8.1257      0.00000
     32       8.5055      0.00000

 k-point     9 :      -0.3333    0.1667    0.0000
  band No.  band energies     occupation 
      1     -10.2343      2.00000
      2      -9.9513      2.00000
      3      -9.5397      2.00000
      4      -9.2305      2.00000
      5      -5.1923      2.00000
      6      -4.3774      2.00000
      7      -4.2591      2.00000
      8      -3.6997      2.00000
      9      -0.9946      2.00000
     10      -0.9722      2.00000
     11      -0.7496      2.00000
     12       0.2476      2.00000
     13       0.3708      2.00000
     14       0.9612      2.00000
     15       1.2451      2.00000
     16       1.7474      2.00000
     17       2.0550      2.00000
     18       2.3986      2.00000
     19       2.5132      2.00000
     20       2.6442      2.00000
     21       4.2169      0.00000
     22       4.5259      0.00000
     23       5.0021      0.00000
     24       5.2334      0.00000
     25       5.4002      0.00000
     26       6.3635      0.00000
     27       6.5174      0.00000
     28       7.2689      0.00000
     29       7.4743      0.00000
     30       7.9551      0.00000
     31       8.1257      0.00000
     32       8.5055      0.00000

 k-point    10 :       0.5000    0.1667    0.0000
  band No.  band energies     occupation 
      1      -9.8080      2.00000
      2      -9.8080      2.00000
      3      -9.5390      2.00000
      4      -9.5390      2.00000
      5      -4.9794      2.00000
      6      -4.9794      2.00000
      7      -4.1667      2.00000
      8      -4.1667      2.00000
      9      -0.5628      2.00000
     10      -0.5628      2.00000
     11      -0.3360      2.00000
     12      -0.3360      2.00000
     13       0.2386      2.00000
     14       0.2386      2.00000
     15       1.4254      2.00000
     16       1.4254      2.00000
     17       2.1292      2.00000
     18       2.1292      2.00000
     19       2.6086      2.00000
     20       2.6086      2.00000
     21       4.5121      0.00000
     22       4.5121      0.00000
     23       4.9014      0.00000
     24       4.9014      0.00000
     25       5.9720      0.00000
     26       5.9720      0.00000
     27       6.7091      0.00000
     28       6.7091      0.00000
     29       7.2337      0.00000
     30       7.2337      0.00000
     31       8.5023      0.00000
     32       8.5023      0.00000

 k-point    11 :       0.0000    0.3333    0.0000
  band No.  band energies     occupation 
      1     -10.2749      2.00000
      2     -10.0250      2.00000
      3      -9.4245      2.00000
      4      -9.2352      2.00000
      5      -5.3676      2.00000
      6      -4.8843      2.00000
      7      -4.4650      2.00000
      8      -3.8861      2.00000
      9      -1.1338      2.00000
     10       0.1012      2.00000
     11       0.5461      2.00000
     12       0.6766      2.00000
     13       0.8440      2.00000
     14       0.9452      2.00000
     15       1.6356      2.00000
     16       1.6767      2.00000
     17       2.0923      2.00000
     18       2.3142      2.00000
     19       2.4418      2.00000
     20       2.8920      2.00000
     21       4.3753      0.00000
     22       4.5468      0.00000
     23       5.0995      0.00000
     24       5.2903      0.00000
     25       5.6144      0.00000
     26       5.6913      0.00000
     27       5.8686      0.00000
     28       6.5808      0.00000
     29       6.9595      0.00000
     30       6.9880      0.00000
     31       7.7509      0.00000
     32       8.5958      0.00000

 k-point    12 :       0.1667    0.3333    0.0000
  band No.  band energies     occupation 
      1     -10.1646      2.00000
      2      -9.9259      2.00000
      3      -9.4025      2.00000
      4      -9.2227      2.00000
      5      -5.2762      2.00000
      6      -4.7531      2.00000
      7      -4.3987      2.00000
      8      -3.9433      2.00000
      9      -1.0080      2.00000
     10      -0.8679      2.00000
     11      -0.6222      2.00000
     12       0.3137      2.00000
     13       0.8607      2.00000
     14       1.0073      2.00000
     15       1.1336      2.00000
     16       1.6313      2.00000
     17       1.7797      2.00000
     18       2.2149      2.00000
     19       2.3434      2.00000
     20       2.6715      2.00000
     21       4.2540      0.00000
     22       4.8385      0.00000
     23       5.4386      0.00000
     24       5.5034      0.00000
     25       5.7575      0.00000
     26       6.3283      0.00000
     27       6.8302      0.00000
     28       7.3046      0.00000
     29       7.5031      0.00000
     30       7.7875      0.00000
     31       8.2542      0.00000
     32       8.3726      0.00000

 k-point    13 :      -0.1667    0.3333    0.0000
  band No.  band energies     occupation 
      1     -10.1646      2.00000
      2      -9.9259      2.00000
      3      -9.4025      2.00000
      4      -9.2227      2.00000
      5      -5.2762      2.00000
      6      -4.7531      2.00000
      7      -4.3987      2.00000
      8      -3.9433      2.00000
      9      -1.0080      2.00000
     10      -0.8679      2.00000
     11      -0.6222      2.00000
     12       0.3137      2.00000
     13       0.8607      2.00000
     14       1.0073      2.00000
     15       1.1336      2.00000
     16       1.6313      2.00000
     17       1.7797      2.00000
     18       2.2149      2.00000
     19       2.3434      2.00000
     20       2.6715      2.00000
     21       4.2540      0.00000
     22       4.8385      0.00000
     23       5.4386      0.00000
     24       5.5034      0.00000
     25       5.7575      0.00000
     26       6.3283      0.00000
     27       6.8302      0.00000
     28       7.3046      0.00000
     29       7.5031      0.00000
     30       7.7875      0.00000
     31       8.2542      0.00000
     32       8.3726      0.00000

 k-point    14 :       0.3333    0.3333    0.0000
  band No.  band energies     occupation 
      1      -9.8816      2.00000
      2      -9.6737      2.00000
      3      -9.4072      2.00000
      4      -9.2428      2.00000
      5      -5.0487      2.00000
      6      -4.4421      2.00000
      7      -4.3794      2.00000
      8      -4.1032      2.00000
      9      -1.6485      2.00000
     10      -1.3577      2.00000
     11      -0.8603      2.00000
     12      -0.5663      2.00000
     13      -0.0914      2.00000
     14       0.3274      2.00000
     15       0.6101      2.00000
     16       0.9695      2.00000
     17       1.3415      2.00000
     18       1.7820      2.00000
     19       1.9593      2.00000
     20       2.3106      2.00000
     21       4.6234      0.00000
     22       5.8419      0.00000
     23       6.4210      0.00000
     24       6.5342      0.00000
     25       6.9104      0.00000
     26       7.1046      0.00000
     27       7.4112      0.00000
     28       7.6306      0.00000
     29       8.1353      0.00000
     30       8.3595      0.00000
     31       8.8086      0.00000
     32       8.9920      0.00000

 k-point    15 :      -0.3333    0.3333    0.0000
  band No.  band energies     occupation 
      1      -9.8816      2.00000
      2      -9.6737      2.00000
      3      -9.4072      2.00000
      4      -9.2428      2.00000
      5      -5.0487      2.00000
      6      -4.4421      2.00000
      7      -4.3794      2.00000
      8      -4.1032      2.00000
      9      -1.6485      2.00000
     10      -1.3577      2.00000
     11      -0.8603      2.00000
     12      -0.5663      2.00000
     13      -0.0914      2.00000
     14       0.3274      2.00000
     15       0.6101      2.00000
     16       0.9695      2.00000
     17       1.3415      2.00000
     18       1.7820      2.00000
     19       1.9593      2.00000
     20       2.3106      2.00000
     21       4.6234      0.00000
     22       5.8419      0.00000
     23       6.4210      0.00000
     24       6.5342      0.00000
     25       6.9104      0.00000
     26       7.1046      0.00000
     27       7.4112      0.00000
     28       7.6306      0.00000
     29       8.1353      0.00000
     30       8.3595      0.00000
     31       8.8086      0.00000
     32       8.9920      0.00000

 k-point    16 :       0.5000    0.3333    0.0000
  band No.  band energies     occupation 
      1      -9.5711      2.00000
      2      -9.5711      2.00000
      3      -9.3981      2.00000
      4      -9.3981      2.00000
      5      -4.7224      2.00000
      6      -4.7224      2.00000
      7      -4.1895      2.00000
      8      -4.1895      2.00000
      9      -1.5574      2.00000
     10      -1.5574      2.00000
     11      -1.1625      2.00000
     12      -1.1625      2.00000
     13      -0.1332      2.00000
     14      -0.1332      2.00000
     15       0.6162      2.00000
     16       0.6162      2.00000
     17       1.1539      2.00000
     18       1.1539      2.00000
     19       1.9872      2.00000
     20       1.9872      2.00000
     21       5.6002      0.00000
     22       5.6002      0.00000
     23       6.9082      0.00000
     24       6.9082      0.00000
     25       7.4625      0.00000
     26       7.4625      0.00000
     27       7.8067      0.00000
     28       7.8067      0.00000
     29       8.5713      0.00000
     30       8.5713      0.00000
     31       8.7712      0.00000
     32       8.7712      0.00000

 k-point    17 :       0.0000    0.5000    0.0000
  band No.  band energies     occupation 
      1      -9.6871      2.00000
      2      -9.6871      2.00000
      3      -9.5958      2.00000
      4      -9.5958      2.00000
      5      -5.3047      2.00000
      6      -5.3047      2.00000
      7      -4.7026      2.00000
      8      -4.7026      2.00000
      9      -0.3502      2.00000
     10      -0.3502      2.00000
     11       1.0369      2.00000
     12       1.0369      2.00000
     13       1.1781      2.00000
     14       1.1781      2.00000
     15       1.6488      2.00000
     16       1.6488      2.00000
     17       2.3178      2.00000
     18       2.3178      2.00000
     19       2.4054      2.00000
     20       2.4054      2.00000
     21       4.6079      0.00000
     22       4.6079      0.00000
     23       4.7484      0.00000
     24       4.7484      0.00000
     25       5.1797      0.00000
     26       5.1797      0.00000
     27       5.7068      0.00000
     28       5.7068      0.00000
     29       6.2747      0.00000
     30       6.2747      0.00000
     31       8.2550      0.00000
     32       8.2550      0.00000

 k-point    18 :       0.1667    0.5000    0.0000
  band No.  band energies     occupation 
      1      -9.6207      2.00000
      2      -9.6207      2.00000
      3      -9.5396      2.00000
      4      -9.5396      2.00000
      5      -5.1562      2.00000
      6      -5.1562      2.00000
      7      -4.6112      2.00000
      8      -4.6112      2.00000
      9      -0.4953      2.00000
     10      -0.4953      2.00000
     11      -0.0535      2.00000
     12      -0.0535      2.00000
     13       0.5129      2.00000
     14       0.5129      2.00000
     15       1.2116      2.00000
     16       1.2116      2.00000
     17       1.8220      2.00000
     18       1.8220      2.00000
     19       2.4923      2.00000
     20       2.4923      2.00000
     21       4.5964      0.00000
     22       4.5964      0.00000
     23       5.6078      0.00000
     24       5.6078      0.00000
     25       6.4084      0.00000
     26       6.4084      0.00000
     27       6.6289      0.00000
     28       6.6289      0.00000
     29       7.4091      0.00000
     30       7.4091      0.00000
     31       7.9273      0.00000
     32       7.9273      0.00000

 k-point    19 :       0.3333    0.5000    0.0000
  band No.  band energies     occupation 
      1      -9.4758      2.00000
      2      -9.4758      2.00000
      3      -9.4242      2.00000
      4      -9.4242      2.00000
      5      -4.7865      2.00000
      6      -4.7865      2.00000
      7      -4.4270      2.00000
      8      -4.4270      2.00000
      9      -1.3134      2.00000
     10      -1.3134      2.00000
     11      -1.0598      2.00000
     12      -1.0598      2.00000
     13      -0.1384      2.00000
     14      -0.1384      2.00000
     15       0.4965      2.00000
     16       0.4965      2.00000
     17       1.0816      2.00000
     18       1.0816      2.00000
     19       1.9690      2.00000
     20       1.9690      2.00000
     21       5.6453      0.00000
     22       5.6453      0.00000
     23       7.0317      0.00000
     24       7.0317      0.00000
     25       7.5986      0.00000
     26       7.5986      0.00000
     27       7.6997      0.00000
     28       7.6997      0.00000
     29       8.5135      0.00000
     30       8.5135      0.00000
     31       9.0689      0.00000
     32       9.0689      0.00000

 k-point    20 :       0.5000    0.5000    0.0000
  band No.  band energies     occupation 
      1      -9.3915      2.00000
      2      -9.3915      2.00000
      3      -9.3698      2.00000
      4      -9.3698      2.00000
      5      -4.5231      2.00000
      6      -4.5231      2.00000
      7      -4.3589      2.00000
      8      -4.3589      2.00000
      9      -1.7076      2.00000
     10      -1.7076      2.00000
     11      -1.5045      2.00000
     12      -1.5045      2.00000
     13      -0.4055      2.00000
     14      -0.4055      2.00000
     15      -0.0238      2.00000
     16      -0.0238      2.00000
     17       1.2012      2.00000
     18       1.2012      2.00000
[...]
     32       7.4914      0.00000

 k-point    32 :       0.1667    0.3333    0.5000
  band No.  band energies     occupation 
      1     -10.0630      2.00000
      2     -10.0630      2.00000
      3      -9.2938      2.00000
      4      -9.2938      2.00000
      5      -5.0501      2.00000
      6      -5.0501      2.00000
      7      -4.1795      2.00000
      8      -4.1795      2.00000
      9      -0.7893      2.00000
     10      -0.7893      2.00000
     11      -0.0733      2.00000
     12      -0.0733      2.00000
     13       0.6491      2.00000
     14       0.6491      2.00000
     15       1.3442      2.00000
     16       1.3442      2.00000
     17       1.8618      2.00000
     18       1.8618      2.00000
     19       2.5683      2.00000
     20       2.5683      2.00000
     21       5.0181      0.00000
     22       5.0181      0.00000
     23       5.4564      0.00000
     24       5.4564      0.00000
     25       6.5007      0.00000
     26       6.5007      0.00000
     27       6.5436      0.00000
     28       6.5436      0.00000
     29       7.2737      0.00000
     30       7.2737      0.00000
     31       8.1273      0.00000
     32       8.1273      0.00000

 k-point    33 :      -0.1667    0.3333    0.5000
  band No.  band energies     occupation 
      1     -10.0630      2.00000
      2     -10.0630      2.00000
      3      -9.2938      2.00000
      4      -9.2938      2.00000
      5      -5.0501      2.00000
      6      -5.0501      2.00000
      7      -4.1795      2.00000
      8      -4.1795      2.00000
      9      -0.7893      2.00000
     10      -0.7893      2.00000
     11      -0.0733      2.00000
     12      -0.0733      2.00000
     13       0.6491      2.00000
     14       0.6491      2.00000
     15       1.3442      2.00000
     16       1.3442      2.00000
     17       1.8618      2.00000
     18       1.8618      2.00000
     19       2.5683      2.00000
     20       2.5683      2.00000
     21       5.0181      0.00000
     22       5.0181      0.00000
     23       5.4564      0.00000
     24       5.4564      0.00000
     25       6.5007      0.00000
     26       6.5007      0.00000
     27       6.5436      0.00000
     28       6.5436      0.00000
     29       7.2737      0.00000
     30       7.2737      0.00000
     31       8.1273      0.00000
     32       8.1273      0.00000

 k-point    34 :       0.3333    0.3333    0.5000
  band No.  band energies     occupation 
      1      -9.7973      2.00000
      2      -9.7973      2.00000
      3      -9.3055      2.00000
      4      -9.3055      2.00000
      5      -4.8020      2.00000
      6      -4.8020      2.00000
      7      -4.2123      2.00000
      8      -4.2123      2.00000
      9      -1.4810      2.00000
     10      -1.4810      2.00000
     11      -0.5247      2.00000
     12      -0.5247      2.00000
     13      -0.0534      2.00000
     14      -0.0534      2.00000
     15       0.6673      2.00000
     16       0.6673      2.00000
     17       1.4860      2.00000
     18       1.4860      2.00000
     19       2.2840      2.00000
     20       2.2840      2.00000
     21       5.7275      0.00000
     22       5.7275      0.00000
     23       6.1542      0.00000
     24       6.1542      0.00000
     25       6.6497      0.00000
     26       6.6497      0.00000
     27       7.3651      0.00000
     28       7.3651      0.00000
     29       7.9456      0.00000
     30       7.9456      0.00000
     31       9.1010      0.00000
     32       9.1010      0.00000

 k-point    35 :      -0.3333    0.3333    0.5000
  band No.  band energies     occupation 
      1      -9.7973      2.00000
      2      -9.7973      2.00000
      3      -9.3055      2.00000
      4      -9.3055      2.00000
      5      -4.8020      2.00000
      6      -4.8020      2.00000
      7      -4.2123      2.00000
      8      -4.2123      2.00000
      9      -1.4810      2.00000
     10      -1.4810      2.00000
     11      -0.5247      2.00000
     12      -0.5247      2.00000
     13      -0.0534      2.00000
     14      -0.0534      2.00000
     15       0.6673      2.00000
     16       0.6673      2.00000
     17       1.4860      2.00000
     18       1.4860      2.00000
     19       2.2840      2.00000
     20       2.2840      2.00000
     21       5.7275      0.00000
     22       5.7275      0.00000
     23       6.1542      0.00000
     24       6.1542      0.00000
     25       6.6497      0.00000
     26       6.6497      0.00000
     27       7.3651      0.00000
     28       7.3651      0.00000
     29       7.9456      0.00000
     30       7.9456      0.00000
     31       9.1010      0.00000
     32       9.1010      0.00000

 k-point    36 :       0.5000    0.3333    0.5000
  band No.  band energies     occupation 
      1      -9.5680      2.00000
      2      -9.5680      2.00000
      3      -9.4019      2.00000
      4      -9.4019      2.00000
      5      -4.6692      2.00000
      6      -4.6692      2.00000
      7      -4.2621      2.00000
      8      -4.2621      2.00000
      9      -1.3613      2.00000
     10      -1.3613      2.00000
     11      -1.3228      2.00000
     12      -1.3228      2.00000
     13       0.0785      2.00000
     14       0.0785      2.00000
     15       0.1302      2.00000
     16       0.1302      2.00000
     17       1.5163      2.00000
     18       1.5163      2.00000
     19       1.9285      2.00000
     20       1.9285      2.00000
     21       5.9121      0.00000
     22       5.9121      0.00000
     23       6.5660      0.00000
     24       6.5660      0.00000
     25       7.1450      0.00000
     26       7.1450      0.00000
     27       7.2427      0.00000
     28       7.2427      0.00000
     29       8.7141      0.00000
     30       8.7141      0.00000
     31       8.8725      0.00000
     32       8.8725      0.00000

 k-point    37 :       0.0000    0.5000    0.5000
  band No.  band energies     occupation 
      1      -9.6426      2.00000
      2      -9.6426      2.00000
      3      -9.6426      2.00000
      4      -9.6426      2.00000
      5      -5.0272      2.00000
      6      -5.0272      2.00000
      7      -5.0272      2.00000
      8      -5.0272      2.00000
      9       0.4018      2.00000
     10       0.4018      2.00000
     11       0.4018      2.00000
     12       0.4018      2.00000
     13       1.2923      2.00000
     14       1.2923      2.00000
     15       1.2923      2.00000
     16       1.2923      2.00000
     17       2.2766      2.00000
     18       2.2766      2.00000
     19       2.2766      2.00000
     20       2.2766      2.00000
     21       4.9997      0.00000
     22       4.9997      0.00000
     23       4.9997      0.00000
     24       4.9997      0.00000
     25       5.4075      0.00000
     26       5.4075      0.00000
     27       5.4075      0.00000
     28       5.4075      0.00000
     29       6.9797      0.00000
     30       6.9797      0.00000
     31       6.9797      0.00000
     32       6.9797      0.00000

 k-point    38 :       0.1667    0.5000    0.5000
  band No.  band energies     occupation 
      1      -9.5811      2.00000
      2      -9.5811      2.00000
      3      -9.5811      2.00000
      4      -9.5811      2.00000
      5      -4.9035      2.00000
      6      -4.9035      2.00000
      7      -4.9035      2.00000
      8      -4.9035      2.00000
      9      -0.1276      2.00000
     10      -0.1276      2.00000
     11      -0.1276      2.00000
     12      -0.1276      2.00000
     13       0.6906      2.00000
     14       0.6906      2.00000
     15       0.6906      2.00000
     16       0.6906      2.00000
     17       2.0621      2.00000
     18       2.0621      2.00000
     19       2.0621      2.00000
     20       2.0621      2.00000
     21       5.4214      0.00000
     22       5.4214      0.00000
     23       5.4214      0.00000
     24       5.4214      0.00000
     25       6.5838      0.00000
     26       6.5838      0.00000
     27       6.5838      0.00000
     28       6.5838      0.00000
     29       7.2385      0.00000
     30       7.2385      0.00000
     31       7.2385      0.00000
     32       7.2385      0.00000

 k-point    39 :       0.3333    0.5000    0.5000
  band No.  band energies     occupation 
      1      -9.4504      2.00000
      2      -9.4504      2.00000
      3      -9.4504      2.00000
      4      -9.4504      2.00000
      5      -4.6174      2.00000
      6      -4.6174      2.00000
      7      -4.6174      2.00000
      8      -4.6174      2.00000
      9      -1.1081      2.00000
     10      -1.1081      2.00000
     11      -1.1081      2.00000
     12      -1.1081      2.00000
     13      -0.0587      2.00000
     14      -0.0587      2.00000
     15      -0.0587      2.00000
     16      -0.0587      2.00000
     17       1.7227      2.00000
     18       1.7227      2.00000
     19       1.7227      2.00000
     20       1.7227      2.00000
     21       6.1938      0.00000
     22       6.1939      0.00000
     23       6.1939      0.00000
     24       6.1939      0.00000
     25       7.3694      0.00000
     26       7.3694      0.00000
     27       7.3694      0.00000
     28       7.3694      0.00000
     29       8.8834      0.00000
     30       8.8834      0.00000
     31       8.8834      0.00000
     32       8.8834      0.00000

 k-point    40 :       0.5000    0.5000    0.5000
  band No.  band energies     occupation 
      1      -9.3807      2.00000
      2      -9.3807      2.00000
      3      -9.3807      2.00000
      4      -9.3807      2.00000
      5      -4.4481      2.00000
      6      -4.4481      2.00000
      7      -4.4481      2.00000
      8      -4.4481      2.00000
      9      -1.4719      2.00000
     10      -1.4719      2.00000
     11      -1.4719      2.00000
     12      -1.4719      2.00000
     13      -0.5378      2.00000
     14      -0.5378      2.00000
     15      -0.5378      2.00000
     16      -0.5378      2.00000
     17       1.7393      2.00000
     18       1.7393      2.00000
     19       1.7393      2.00000
     20       1.7393      2.00000
     21       6.0027      0.00000
     22       6.0027      0.00000
     23       6.0027      0.00000
     24       6.0027      0.00000
     25       8.2887      0.00000
     26       8.2887      0.00000
     27       8.2887      0.00000
     28       8.2887      0.00000
     29       9.6942      0.00000
     30       9.6942      0.00000
     31       9.6942      0.00000
     32       9.6942      0.00000


--------------------------------------------------------------------------------------------------------


 soft charge-density along one line, spin component            1
         0         1         2         3         4         5         6         7         8         9
 total charge-density along one line
 
 pseudopotential strength for first ion, spin component:            1
 14.535  18.134   0.000   0.046   0.033   0.000   0.082   0.059
 18.134  22.640   0.000   0.058   0.042   0.000   0.104   0.075
  0.000   0.000   3.227  -0.000  -0.000   5.494  -0.000  -0.000
  0.046   0.058  -0.000   3.223  -0.002  -0.000   5.487  -0.003
  0.033   0.042  -0.000  -0.002   3.227  -0.000  -0.003   5.494
  0.000   0.000   5.494  -0.000  -0.000   9.409  -0.000  -0.000
  0.082   0.104  -0.000   5.487  -0.003  -0.000   9.398  -0.005
  0.059   0.075  -0.000  -0.003   5.494  -0.000  -0.005   9.410
 -0.000  -0.000   0.005   0.000   0.000   0.010   0.000   0.000
 -0.000  -0.000   0.012   0.000   0.000   0.022   0.000   0.000
 -0.005  -0.006  -0.000   0.011  -0.003  -0.000   0.021  -0.005
 -0.004  -0.005   0.000   0.010   0.012   0.000   0.018   0.022
  0.000   0.000  -0.000   0.000   0.010  -0.000   0.000   0.018
 total augmentation occupancy for first ion, spin component:            1
  2.630  -0.648  -0.000   0.387   0.239   0.000  -0.071  -0.038  -0.000   0.000   0.007  -0.015  -0.013
 -0.648   0.657   0.000  -0.491  -0.327  -0.000   0.076   0.048   0.000   0.000  -0.003   0.013   0.013
 -0.000   0.000   1.150  -0.000   0.000  -0.195   0.000  -0.000   0.110   0.027   0.000  -0.000   0.000
  0.387  -0.491  -0.000   1.331   0.016   0.000  -0.215   0.009  -0.000  -0.000   0.126  -0.020   0.000
  0.239  -0.327   0.000   0.016   1.090   0.000   0.009  -0.171  -0.000  -0.000  -0.073   0.031  -0.013
  0.000  -0.000  -0.195   0.000   0.000   0.037  -0.000  -0.000  -0.019  -0.004   0.000   0.000  -0.000
 -0.071   0.076   0.000  -0.215   0.009  -0.000   0.040  -0.003   0.000   0.000  -0.021   0.003  -0.000
 -0.038   0.048  -0.000   0.009  -0.171  -0.000  -0.003   0.030   0.000   0.000   0.012  -0.005   0.002
 -0.000   0.000   0.110  -0.000  -0.000  -0.019   0.000   0.000   0.028   0.001  -0.000   0.000  -0.000
  0.000   0.000   0.027  -0.000  -0.000  -0.004   0.000   0.000   0.001   0.010   0.000   0.000   0.000
  0.007  -0.003   0.000   0.126  -0.073   0.000  -0.021   0.012  -0.000   0.000   0.033  -0.006   0.003
 -0.015   0.013  -0.000  -0.020   0.031   0.000   0.003  -0.005   0.000   0.000  -0.006   0.011  -0.001
 -0.013   0.013   0.000   0.000  -0.013  -0.000  -0.000   0.002  -0.000   0.000   0.003  -0.001   0.008


------------------------ aborting loop because EDIFF is reached ----------------------------------------


    CHARGE:  cpu time      0.0035: real time      0.0035
    FORLOC:  cpu time      0.0002: real time      0.0002
    FORNL :  cpu time      0.0213: real time      0.0214
    STRESS:  cpu time      0.1879: real time      0.1886
    FORCOR:  cpu time      0.0033: real time      0.0033
    FORHAR:  cpu time      0.0008: real time      0.0008
    MIXING:  cpu time      0.0005: real time      0.0005
    OFIELD:  cpu time      0.0000: real time      0.0000

  FORCE on cell =-STRESS in cart. coord.  units (eV):
  Direction    XX          YY          ZZ          XY          YZ          ZX
  --------------------------------------------------------------------------------------
  Alpha Z    87.24855    87.24855    87.24855
  Ewald    -495.53823  -440.60126  -488.36331    -0.00000     0.00000     0.00000
  Hartree    41.70300    58.92994    31.12342     0.00000     0.00000    -0.00000
  E(xc)    -140.59134  -140.39917  -141.23422    -0.00000    -0.00000     0.00000
  Local    -116.23711  -182.19071  -114.91450    -0.00000     0.00000     0.00000
  n-local   237.61021   238.48177   242.52838     0.00000    -0.00000     0.00000
  augment   -11.82015   -11.32624   -12.16308    -0.00000    -0.00000     0.00000
  Kinetic   398.16163   386.79127   396.96069     0.00000     0.00000     0.00000
  Fock        0.00000     0.00000     0.00000     0.00000     0.00000     0.00000
  -------------------------------------------------------------------------------------
  Total       0.53656    -3.06585     1.18592    -0.00000     0.00000     0.00000
  in kB       4.42648   -25.29251     9.78353    -0.00000     0.00000     0.00001
  external pressure =       -3.69 kB  Pullay stress =        0.00 kB


 VOLUME and BASIS-vectors are now :
 -----------------------------------------------------------------------------
  energy-cutoff  :      360.00
  volume of cell :      194.21
      direct lattice vectors                 reciprocal lattice vectors
     4.200000000  0.000000000  0.000000000     0.238095238  0.000000000  0.000000000
     0.000000000  4.150000000  0.000000000     0.000000000  0.240963855  0.000000000
     0.000000000  0.000000000 11.142221000     0.000000000  0.000000000  0.089748713

  length of vectors
     4.200000000  4.150000000 11.142221000     0.238095238  0.240963855  0.089748713


 FORCES acting on ions
    electron-ion (+dipol)            ewald-force                    non-local-force                 convergence-correction
 -----------------------------------------------------------------------------------------------
   0.938E+01 -.348E-06 0.263E+02   -.116E+02 0.275E-14 -.291E+02   0.224E+01 -.528E-07 0.281E+01   -.106E-03 0.338E-06 -.114E-02
   0.938E+01 0.991E-06 -.263E+02   -.116E+02 -.289E-14 0.291E+02   0.224E+01 -.594E-06 -.281E+01   -.106E-03 -.492E-06 0.114E-02
   -.938E+01 -.508E-06 -.263E+02   0.116E+02 -.280E-14 0.291E+02   -.224E+01 0.426E-06 -.281E+01   0.105E-03 0.156E-06 0.114E-02
   -.938E+01 -.906E-06 0.263E+02   0.116E+02 0.202E-14 -.291E+02   -.224E+01 0.554E-06 0.281E+01   0.105E-03 0.381E-06 -.114E-02
   -.863E+01 0.742E-07 -.287E+02   0.966E+01 0.246E-14 0.305E+02   -.100E+01 -.679E-07 -.186E+01   0.412E-03 0.892E-07 0.222E-02
   -.863E+01 0.309E-05 0.287E+02   0.966E+01 -.368E-14 -.305E+02   -.100E+01 -.106E-05 0.186E+01   0.412E-03 -.172E-05 -.221E-02
   0.863E+01 0.384E-06 0.287E+02   -.966E+01 -.279E-14 -.305E+02   0.100E+01 -.322E-07 0.186E+01   -.412E-03 -.238E-06 -.222E-02
   0.863E+01 -.151E-05 -.287E+02   -.966E+01 0.258E-14 0.305E+02   0.100E+01 0.637E-06 -.186E+01   -.411E-03 0.430E-06 0.221E-02
 -----------------------------------------------------------------------------------------------
   -.636E-06 0.126E-05 -.261E-05   0.888E-14 -.235E-14 0.107E-13   -.360E-07 -.193E-06 0.436E-06   0.476E-06 -.105E-05 0.213E-05
 
 
 POSITION                                       TOTAL-FORCE (eV/Angst)
 -----------------------------------------------------------------------------------
      0.41271      1.03750      1.46519        -0.019881     -0.000000      0.006873
      2.51271      3.11250      4.10592        -0.019881     -0.000000     -0.006872
      3.78729      3.11250      9.67703         0.019881      0.000000     -0.006873
      1.68729      1.03750      7.03630         0.019881      0.000000      0.006872
      4.19471      1.03750      3.98993         0.033343      0.000000      0.008771
      2.09471      3.11250      1.58118         0.033343      0.000000     -0.008772
      0.00529      3.11250      7.15229        -0.033343      0.000000     -0.008771
      2.10529      1.03750      9.56104        -0.033343     -0.000000      0.008771
 -----------------------------------------------------------------------------------
    total drift:                               -0.000000      0.000000     -0.000000


--------------------------------------------------------------------------------------------------------



  FREE ENERGIE OF THE ION-ELECTRON SYSTEM (eV)
  ---------------------------------------------------
  free  energy   TOTEN  =       -33.71751873 eV

  energy  without entropy=      -33.71751873  energy(sigma->0) =      -33.71751873
 


--------------------------------------------------------------------------------------------------------


    POTLOK:  cpu time      0.1133: real time      0.1135


--------------------------------------------------------------------------------------------------------


     LOOP+:  cpu time      4.9917: real time      5.0344
    4ORBIT:  cpu time      0.0000: real time      0.0000

 total amount of memory used by VASP MPI-rank0    38465. kBytes
=======================================================================

   base      :      30000. kBytes
   nonl-proj :       6623. kBytes
   fftplans  :        320. kBytes
   grid      :        462. kBytes
   one-center:         16. kBytes
   wavefun   :       1044. kBytes
 
  
  
 General timing and accounting informations for this job:
 ========================================================
  
                  Total CPU time used (sec):        5.795
                            User time (sec):        5.496
                          System time (sec):        0.299
                         Elapsed time (sec):        7.295
  
                   Maximum memory used (kb):      189584.
                   Average memory used (kb):          N/A
  
                          Minor page faults:        21682
                          Major page faults:           34
                 Voluntary context switches:         3868
