 running  128 mpi-ranks, with    1 threads/rank, on    2 nodes
 distrk:  each k-point on   64 cores,    2 groups
 distr:  one band on    8 cores,    8 groups
 vasp.6.4.2 20Jul23 (build Oct 12 2023 10:31:02) complex                         
 POSCAR found type information on POSCAR GeSe
 POSCAR found :  2 types and      72 ions
 Reading from existing POTCAR
 -----------------------------------------------------------------------------
|                                                                             |
|           W    W    AA    RRRRR   N    N  II  N    N   GGGG   !!!           |
|           W    W   A  A   R    R  NN   N  II  NN   N  G    G  !!!           |
|           W    W  A    A  R    R  N N  N  II  N N  N  G       !!!           |
|           W WW W  AAAAAA  RRRRR   N  N N  II  N  N N  G  GGG   !            |
|           WW  WW  A    A  R   R   N   NN  II  N   NN  G    G                |
|           W    W  A    A  R    R  N    N  II  N    N   GGGG   !!!           |
|                                                                             |
|     You use a magnetic or noncollinear calculation, but did not specify     |
|     the initial magnetic moment with the MAGMOM tag. Note that a            |
|     default of 1 will be used for all atoms. This ferromagnetic setup       |
|     may break the symmetry of the crystal, in particular it may rule        |
|     out finding an antiferromagnetic solution. Thence, we recommend         |
|     setting the initial magnetic moment manually or verifying carefully     |
|     that this magnetic setup is desired.                                    |
|                                                                             |
 -----------------------------------------------------------------------------

 scaLAPACK will be used
 Reading from existing POTCAR
 -----------------------------------------------------------------------------
|                                                                             |
|               ----> ADVICE to this user running VASP <----                  |
|                                                                             |
|     You have a (more or less) 'large supercell' and for larger cells it     |
|     might be more efficient to use real-space projection operators.         |
|     Therefore, try LREAL= Auto in the INCAR file.                           |
|     Mind: For very accurate calculation, you might also keep the            |
|     reciprocal projection scheme (i.e. LREAL=.FALSE.).                      |
|                                                                             |
 -----------------------------------------------------------------------------

 LDA part: xc-table for Pade appr. of Perdew
 -----------------------------------------------------------------------------
|                                                                             |
|           W    W    AA    RRRRR   N    N  II  N    N   GGGG   !!!           |
|           W    W   A  A   R    R  NN   N  II  NN   N  G    G  !!!           |
|           W    W  A    A  R    R  N N  N  II  N N  N  G       !!!           |
|           W WW W  AAAAAA  RRRRR   N  N N  II  N  N N  G  GGG   !            |
|           WW  WW  A    A  R   R   N   NN  II  N   NN  G    G                |
|           W    W  A    A  R    R  N    N  II  N    N   GGGG   !!!           |
|                                                                             |
|     The number of bands has been changed from the values supplied in        |
|     the INCAR file. This is a result of running the parallel version.       |
|     The orbitals not found in the WAVECAR file will be initialized with     |
|     random numbers, which is usually adequate. For correlated               |
|     calculations, however, you should redo the groundstate calculation.     |
|     I found NBANDS = 220. Now, NBANDS = 224.                                |
|                                                                             |
 -----------------------------------------------------------------------------

 POSCAR, INCAR and KPOINTS ok, starting setup
 FFT: planning ... GRIDC
 FFT: planning ... GRID_SOFT
 FFT: planning ... GRID
 WAVECAR not read
 WARNING: random wavefunctions but no delay for mixing, default for NELMDL
 entering main loop
       N       E                     dE             d eps       ncg     rms          rms(c)
DAV:   1     0.180436592588E+04    0.18044E+04   -0.14157E+05  7168   0.135E+03
DAV:   2    -0.642131511641E+02   -0.18686E+04   -0.17932E+04  8456   0.204E+02
DAV:   3    -0.281995632720E+03   -0.21778E+03   -0.21173E+03  8592   0.689E+01
DAV:   4    -0.289924225303E+03   -0.79286E+01   -0.78393E+01  8816   0.130E+01
DAV:   5    -0.290203661281E+03   -0.27944E+00   -0.27863E+00  9056   0.209E+00    0.287E+01
DAV:   6    -0.289433119115E+03    0.77054E+00   -0.28033E+01  7992   0.770E+00    0.169E+01
DAV:   7    -0.296743748689E+03   -0.73106E+01   -0.85094E+00  8008   0.440E+00    0.905E+00
DAV:   8    -0.300068713595E+03   -0.33250E+01   -0.17266E+00  8136   0.223E+00    0.331E+00
DAV:   9    -0.300484957849E+03   -0.41624E+00   -0.45651E-01  9024   0.103E+00    0.146E+00
DAV:  10    -0.300585746899E+03   -0.10079E+00   -0.94428E-02  8160   0.460E-01    0.728E-01
DAV:  11    -0.300616484159E+03   -0.30737E-01   -0.38378E-02  8960   0.282E-01    0.274E-01
DAV:  12    -0.300619281346E+03   -0.27972E-02   -0.42925E-03  8688   0.117E-01    0.100E-01
DAV:  13    -0.300619362656E+03   -0.81310E-04   -0.56394E-04  9800   0.365E-02    0.415E-02
DAV:  14    -0.300619376352E+03   -0.13696E-04   -0.82483E-05  8272   0.176E-02    0.153E-02
DAV:  15    -0.300619378595E+03   -0.22426E-05   -0.14010E-05  8600   0.777E-03    0.678E-03
DAV:  16    -0.300619379041E+03   -0.44620E-06   -0.12915E-06  4800   0.244E-03
   1 F= -.30061938E+03 E0= -.30061938E+03  d E =-.170697E-12  mag=     0.0004
