 running  128 mpi-ranks, with    1 threads/rank, on    2 nodes
 distrk:  each k-point on   64 cores,    2 groups
 distr:  one band on    4 cores,   16 groups
 vasp.6.4.2 20Jul23 (build Oct 12 2023 10:31:02) complex                         
 POSCAR found type information on POSCAR GeSe
 POSCAR found :  2 types and       8 ions
 Reading from existing POTCAR
 scaLAPACK will be used
 Reading from existing POTCAR
 LDA part: xc-table for Pade appr. of Perdew
 POSCAR, INCAR and KPOINTS ok, starting setup
 FFT: planning ... GRIDC
 FFT: planning ... GRID_SOFT
 FFT: planning ... GRID
 WAVECAR not read
 entering main loop
       N       E                     dE             d eps       ncg     rms          rms(c)
DAV:   1     0.135581375108E+03    0.13558E+03   -0.12431E+04  2560   0.755E+02
DAV:   2    -0.230887907493E+02   -0.15867E+03   -0.15367E+03  3712   0.134E+02
DAV:   3    -0.334109758929E+02   -0.10322E+02   -0.10293E+02  3216   0.402E+01
DAV:   4    -0.334970000012E+02   -0.86024E-01   -0.86016E-01  3024   0.423E+00
DAV:   5    -0.334976121721E+02   -0.61217E-03   -0.61217E-03  3216   0.354E-01    0.605E+00
DAV:   6    -0.327313796937E+02    0.76623E+00   -0.18215E+00  2832   0.426E+00    0.365E+00
DAV:   7    -0.327261364675E+02    0.52432E-02   -0.31603E-01  2848   0.197E+00    0.177E+00
DAV:   8    -0.327260316590E+02    0.10481E-03   -0.33619E-02  2960   0.734E-01    0.195E-01
DAV:   9    -0.327255848451E+02    0.44681E-03   -0.71611E-03  3088   0.331E-01    0.865E-02
DAV:  10    -0.327259112649E+02   -0.32642E-03   -0.86895E-04  2816   0.125E-01    0.314E-02
DAV:  11    -0.327259643210E+02   -0.53056E-04   -0.67701E-05  3152   0.372E-02    0.169E-02
DAV:  12    -0.327259673646E+02   -0.30436E-05   -0.17962E-05  2896   0.169E-02    0.361E-03
DAV:  13    -0.327259684074E+02   -0.10428E-05   -0.21814E-06  2464   0.548E-03    0.150E-03
DAV:  14    -0.327259685376E+02   -0.13025E-06   -0.23784E-07  1280   0.210E-03
   1 F= -.32725969E+02 E0= -.32725969E+02  d E =-.696449E-14
