 vasp.6.4.1 05Apr23 (build May 18 2023 13:19:41) complex                         
 executed on    LinuxNV_CrayMPICH date 2023.11.06  07:02:55
 running  256 mpi-ranks, with    1 threads/rank, on    7 nodes
 distrk:  each k-point on  128 cores,    2 groups
 distr:  one band on NCORE=   4 cores,   32 groups


--------------------------------------------------------------------------------------------------------


 INCAR:
   SIGMA = 0.010000
   EDIFF = 1.00e-06
   ALGO = N
   GGA = PE
   PREC = Accurate
   SYSTEM = 02_SCF
   ICHARG = 0
   ISMEAR = 0
   ISPIN = 1
   ISTART = 1
   KPAR = 2
   LORBIT = 11
   NBANDS = 896
   NELMIN = 5
   NPAR = 32
   IVDW = 11
   LCHARG = .TRUE.
   LWAVE = .TRUE.
   LREAL = .FALSE.

 POTCAR:   PAW_PBE C 08Apr2002                    
 POTCAR:    PAW_PBE S 17Jan2003                   
 POTCAR:   PAW_PBE O 08Apr2002                    
 POTCAR:   PAW_PBE C 08Apr2002                    
   VRHFIN =C: s2p2                                                                                  
   LEXCH  = PE                                                                                      
   EATOM  =   147.1560 eV,   10.8157 Ry                                                             
                                                                                                    
   TITEL  = PAW_PBE C 08Apr2002                                                                     
   LULTRA =        F    use ultrasoft PP ?                                                          
   IUNSCR =        0    unscreen: 0-lin 1-nonlin 2-no                                               
   RPACOR =     .000    partial core radius                                                         
   POMASS =   12.011; ZVAL   =    4.000    mass and valenz                                          
   RCORE  =    1.500    outmost cutoff radius                                                       
   RWIGS  =    1.630; RWIGS  =     .863    wigner-seitz radius (au A)                               
   ENMAX  =  400.000; ENMIN  =  300.000 eV                                                          
   ICORE  =        2    local potential                                                             
   LCOR   =        T    correct aug charges                                                         
   LPAW   =        T    paw PP                                                                      
   EAUG   =  644.873                                                                                
   DEXC   =     .000                                                                                
   RMAX   =    2.266    core radius for proj-oper                                                   
   RAUG   =    1.300    factor for augmentation sphere                                              
   RDEP   =    1.501    radius for radial grids                                                     
   RDEPT  =    1.300    core radius for aug-charge                                                  
   QCUT   =   -5.516; QGAM   =   11.032    optimization parameters                                  
                                                                                                    
   Description                                                                                      
     l     E      TYP  RCUT    TYP  RCUT                                                            
     0   .000     23  1.200                                                                         
     0   .000     23  1.200                                                                         
     1   .000     23  1.500                                                                         
     1  2.500     23  1.500                                                                         
     2   .000      7  1.500                                                                         
  local pseudopotential read in
  atomic valenz-charges read in
  non local Contribution for L=            0  read in
    real space projection operators read in
  non local Contribution for L=            0  read in
    real space projection operators read in
  non local Contribution for L=            1  read in
    real space projection operators read in
  non local Contribution for L=            1  read in
    real space projection operators read in
    PAW grid and wavefunctions read in
 
   number of l-projection  operators is LMAX  =            4
   number of lm-projection operators is LMMAX =            8
 
 POTCAR:    PAW_PBE S 17Jan2003                   
   VRHFIN =S : s2p4                                                                                 
   LEXCH  = PE                                                                                      
   EATOM  =   276.8230 eV,   20.3459 Ry                                                             
                                                                                                    
   TITEL  = PAW_PBE S 17Jan2003                                                                     
   LULTRA =        F    use ultrasoft PP ?                                                          
   IUNSCR =        1    unscreen: 0-lin 1-nonlin 2-no                                               
   RPACOR =    1.500    partial core radius                                                         
   POMASS =   32.066; ZVAL   =    6.000    mass and valenz                                          
   RCORE  =    1.900    outmost cutoff radius                                                       
   RWIGS  =    2.200; RWIGS  =    1.164    wigner-seitz radius (au A)                               
   ENMAX  =  280.000; ENMIN  =  194.016 eV                                                          
   ICORE  =        2    local potential                                                             
   LCOR   =        T    correct aug charges                                                         
   LPAW   =        T    paw PP                                                                      
   EAUG   =  335.092                                                                                
   DEXC   =     .000                                                                                
   RMAX   =    2.867    core radius for proj-oper                                                   
   RAUG   =    1.300    factor for augmentation sphere                                              
   RDEP   =    1.954    radius for radial grids                                                     
   QCUT   =   -4.360; QGAM   =    8.721    optimization parameters                                  
                                                                                                    
   Description                                                                                      
     l     E      TYP  RCUT    TYP  RCUT                                                            
     0   .000     23  1.900                                                                         
     0   .000     23  1.900                                                                         
     1   .000     23  1.900                                                                         
     1   .000     23  1.900                                                                         
     2   .000     23  1.900                                                                         
  local pseudopotential read in
  partial core-charges read in
  atomic valenz-charges read in
  non local Contribution for L=            0  read in
    real space projection operators read in
  non local Contribution for L=            0  read in
    real space projection operators read in
  non local Contribution for L=            1  read in
    real space projection operators read in
  non local Contribution for L=            1  read in
    real space projection operators read in
    PAW grid and wavefunctions read in
 
   number of l-projection  operators is LMAX  =            4
   number of lm-projection operators is LMMAX =            8
 
 POTCAR:   PAW_PBE O 08Apr2002                    
   VRHFIN =O: s2p4                                                                                  
   LEXCH  = PE                                                                                      
   EATOM  =   432.3788 eV,   31.7789 Ry                                                             
                                                                                                    
   TITEL  = PAW_PBE O 08Apr2002                                                                     
   LULTRA =        F    use ultrasoft PP ?                                                          
   IUNSCR =        0    unscreen: 0-lin 1-nonlin 2-no                                               
   RPACOR =     .000    partial core radius                                                         
   POMASS =   16.000; ZVAL   =    6.000    mass and valenz                                          
   RCORE  =    1.520    outmost cutoff radius                                                       
   RWIGS  =    1.550; RWIGS  =     .820    wigner-seitz radius (au A)                               
   ENMAX  =  400.000; ENMIN  =  300.000 eV                                                          
   ICORE  =        2    local potential                                                             
   LCOR   =        T    correct aug charges                                                         
   LPAW   =        T    paw PP                                                                      
   EAUG   =  605.392                                                                                
   DEXC   =     .000                                                                                
   RMAX   =    2.264    core radius for proj-oper                                                   
   RAUG   =    1.300    factor for augmentation sphere                                              
   RDEP   =    1.550    radius for radial grids                                                     
   QCUT   =   -5.520; QGAM   =   11.041    optimization parameters                                  
                                                                                                    
   Description                                                                                      
     l     E      TYP  RCUT    TYP  RCUT                                                            
     0   .000     23  1.200                                                                         
     0  -.700     23  1.200                                                                         
     1   .000     23  1.520                                                                         
     1   .600     23  1.520                                                                         
     2   .000      7  1.500                                                                         
  local pseudopotential read in
  atomic valenz-charges read in
  non local Contribution for L=            0  read in
    real space projection operators read in
  non local Contribution for L=            0  read in
    real space projection operators read in
  non local Contribution for L=            1  read in
    real space projection operators read in
  non local Contribution for L=            1  read in
    real space projection operators read in
    PAW grid and wavefunctions read in
 
   number of l-projection  operators is LMAX  =            4
   number of lm-projection operators is LMMAX =            8
 
 -----------------------------------------------------------------------------
|                                                                             |
|               ----> ADVICE to this user running VASP <----                  |
|                                                                             |
|     You have a (more or less) 'large supercell' and for larger cells it     |
|     might be more efficient to use real-space projection operators.         |
|     Therefore, try LREAL= Auto in the INCAR file.                           |
|     Mind: If you want to do very accurate calculations, keep the            |
|     reciprocal projection scheme (i.e. LREAL=.FALSE.).                      |
|                                                                             |
 -----------------------------------------------------------------------------

 PAW_PBE C 08Apr2002                    :
 energy of atom  1       EATOM= -147.1560
 kinetic energy error for atom=    0.0288 (will be added to EATOM!!)
  PAW_PBE S 17Jan2003                   :
 energy of atom  2       EATOM= -276.8230
 kinetic energy error for atom=    0.0046 (will be added to EATOM!!)
 PAW_PBE O 08Apr2002                    :
 energy of atom  3       EATOM= -432.3788
 kinetic energy error for atom=    0.1156 (will be added to EATOM!!)
 
 
 POSCAR:  C  S  O
  positions in cartesian coordinates
  No initial velocities read in
 exchange correlation table for  LEXCH =        8
   RHO(1)=    0.500       N(1)  =     2000
   RHO(2)=  100.500       N(2)  =     4000
 


--------------------------------------------------------------------------------------------------------


 ion  position               nearest neighbor table
   1  0.371  0.538  0.002-  85 1.42 363 1.42 288 1.43
   2  0.369  0.544  0.063- 108 1.42  85 1.42   3 1.43
   3  0.338  0.595  0.061-   4 1.42   8 1.42   2 1.43
   4  0.320  0.611  0.030-   3 1.42 288 1.42   5 1.43
   5  0.278  0.629  0.028- 310 1.42  10 1.42   4 1.43
   6  0.366  0.549  0.123- 131 1.42 108 1.42   7 1.43
   7  0.335  0.599  0.122-   8 1.42  16 1.42   6 1.43
   8  0.317  0.614  0.090-   7 1.42   3 1.42   9 1.43
   9  0.274  0.629  0.089-  10 1.42  18 1.42   8 1.43
  10  0.253  0.627  0.057-   9 1.42   5 1.42  11 1.43
  11  0.212  0.603  0.056-  12 1.42  20 1.42  10 1.43
  12  0.196  0.584  0.024-  11 1.42 311 1.42  13 1.43
  13  0.168  0.528  0.023- 329 1.42  22 1.42  12 1.43
  14  0.364  0.555  0.184- 154 1.42 131 1.42  15 1.43
  15  0.331  0.602  0.182-  16 1.42  28 1.42  14 1.43
  16  0.313  0.617  0.151-  15 1.42   7 1.42  17 1.43
  17  0.270  0.629  0.149-  18 1.42  30 1.42  16 1.43
  18  0.249  0.626  0.118-  17 1.42   9 1.42  19 1.43
  19  0.209  0.600  0.116-  20 1.42  32 1.42  18 1.43
  20  0.192  0.580  0.085-  19 1.42  11 1.42  21 1.43
  21  0.166  0.522  0.083-  22 1.42  34 1.42  20 1.43
  22  0.159  0.492  0.052-  21 1.42  13 1.42  23 1.43
  23  0.155  0.420  0.050-  24 1.42  36 1.42  22 1.43
  24  0.159  0.388  0.019-  23 1.42 330 1.42  25 1.43
  25  0.178  0.324  0.017- 344 1.42  38 1.42  24 1.43
  26  0.361  0.560  0.244- 177 1.42 154 1.42  27 1.43
  27  0.327  0.606  0.242-  28 1.42  45 1.42  26 1.43
  28  0.309  0.619  0.211-  27 1.42  15 1.42  29 1.43
  29  0.265  0.629  0.209-  30 1.42  47 1.42  28 1.43
  30  0.245  0.625  0.178-  29 1.42  17 1.42  31 1.43
  31  0.205  0.596  0.176-  32 1.42  49 1.42  30 1.43
  32  0.189  0.575  0.145-  31 1.42  19 1.42  33 1.43
  33  0.164  0.516  0.143-  34 1.42  51 1.42  32 1.43
  34  0.158  0.485  0.112-  33 1.42  21 1.42  35 1.43
  35  0.155  0.414  0.110-  36 1.42  53 1.42  34 1.43
  36  0.160  0.382  0.079-  35 1.42  23 1.42  37 1.43
  37  0.181  0.319  0.078-  38 1.42  55 1.42  36 1.43
  38  0.195  0.295  0.046-  37 1.42  25 1.42  39 1.43
  39  0.233  0.260  0.045-  40 1.42  57 1.42  38 1.43
  40  0.253  0.252  0.013-  39 1.42 345 1.42  41 1.43
  41  0.297  0.254  0.012- 355 1.42  59 1.42  40 1.43
  42  0.370  0.538  0.336-  43 1.42  64 1.42 199 1.43
  43  0.358  0.565  0.305-  42 1.42 177 1.42  44 1.43
  44  0.324  0.609  0.303-  45 1.42  66 1.42  43 1.43
  45  0.305  0.621  0.272-  44 1.42  27 1.42  46 1.43
  46  0.261  0.629  0.270-  47 1.42  68 1.42  45 1.43
  47  0.241  0.623  0.239-  46 1.42  29 1.42  48 1.43
  48  0.202  0.592  0.237-  49 1.42  70 1.42  47 1.43
  49  0.187  0.570  0.206-  48 1.42  31 1.42  50 1.43
  50  0.163  0.510  0.204-  51 1.42  72 1.42  49 1.43
  51  0.157  0.479  0.173-  50 1.42  33 1.42  52 1.43
  52  0.156  0.407  0.171-  53 1.42  74 1.42  51 1.43
  53  0.161  0.375  0.140-  52 1.42  35 1.42  54 1.43
  54  0.183  0.314  0.138-  55 1.42  76 1.42  53 1.43
  55  0.198  0.291  0.107-  54 1.42  37 1.42  56 1.43
  56  0.237  0.258  0.105-  57 1.42  78 1.42  55 1.43
  57  0.257  0.251  0.074-  56 1.42  39 1.42  58 1.43
  58  0.301  0.255  0.072-  59 1.42  80 1.42  57 1.43
  59  0.320  0.267  0.041-  58 1.42  41 1.42  60 1.43
  60  0.356  0.308  0.039-  61 1.42  82 1.42  59 1.43
  61  0.368  0.334  0.008-  60 1.42 356 1.42  62 1.43
  62  0.386  0.399  0.006- 362 1.42  84 1.42  61 1.43
  63  0.368  0.544  0.396-  64 1.42  87 1.42 221 1.43
  64  0.356  0.570  0.365-  63 1.42  42 1.42  65 1.43
  65  0.320  0.612  0.363-  66 1.42  89 1.42  64 1.43
  66  0.301  0.623  0.332-  65 1.42  44 1.42  67 1.43
  67  0.257  0.628  0.330-  68 1.42  91 1.42  66 1.43
  68  0.237  0.622  0.299-  67 1.42  46 1.42  69 1.43
  69  0.198  0.588  0.297-  70 1.42  93 1.42  68 1.43
  70  0.184  0.566  0.266-  69 1.42  48 1.42  71 1.43
  71  0.161  0.504  0.264-  72 1.42  95 1.42  70 1.43
  72  0.156  0.472  0.233-  71 1.42  50 1.42  73 1.43
  73  0.157  0.401  0.231-  74 1.42  97 1.42  72 1.43
  74  0.162  0.369  0.200-  73 1.42  52 1.42  75 1.43
  75  0.186  0.309  0.198-  76 1.42  99 1.42  74 1.43
  76  0.201  0.287  0.167-  75 1.42  54 1.42  77 1.43
  77  0.241  0.256  0.165-  78 1.42 101 1.42  76 1.43
  78  0.261  0.250  0.134-  77 1.42  56 1.42  79 1.43
  79  0.304  0.257  0.133-  80 1.42 103 1.42  78 1.43
  80  0.323  0.269  0.101-  79 1.42  58 1.42  81 1.43
  81  0.358  0.313  0.100-  82 1.42 105 1.42  80 1.43
  82  0.370  0.339  0.068-  81 1.42  60 1.42  83 1.43
  83  0.386  0.406  0.067-  84 1.42 107 1.42  82 1.43
  84  0.388  0.439  0.035-  83 1.42  62 1.42  85 1.43
  85  0.380  0.509  0.034-   1 1.42   2 1.42  84 1.43
  86  0.366  0.550  0.457-  87 1.42 110 1.42 243 1.42
  87  0.353  0.575  0.426-  86 1.42  63 1.42  88 1.43
  88  0.316  0.615  0.424-  89 1.42 112 1.42  87 1.43
  89  0.297  0.625  0.393-  88 1.42  65 1.42  90 1.43
  90  0.253  0.628  0.391-  91 1.42 114 1.42  89 1.43
  91  0.233  0.620  0.360-  90 1.42  67 1.42  92 1.43
  92  0.195  0.584  0.358-  93 1.42 116 1.42  91 1.43
  93  0.181  0.561  0.327-  92 1.42  69 1.42  94 1.43
  94  0.160  0.498  0.325-  95 1.42 118 1.42  93 1.43
  95  0.155  0.466  0.294-  94 1.42  71 1.42  96 1.43
  96  0.157  0.394  0.292-  97 1.42 120 1.42  95 1.43
  97  0.164  0.363  0.261-  96 1.42  73 1.42  98 1.43
  98  0.189  0.304  0.259-  99 1.42 122 1.42  97 1.43
  99  0.204  0.283  0.228-  98 1.42  75 1.42 100 1.43
 100  0.244  0.254  0.226- 101 1.42 124 1.42  99 1.43
 101  0.265  0.249  0.195- 100 1.42  77 1.42 102 1.43
 102  0.308  0.259  0.193- 103 1.42 126 1.42 101 1.43
 103  0.327  0.272  0.162- 102 1.42  79 1.42 104 1.43
 104  0.361  0.318  0.160- 105 1.42 128 1.42 103 1.43
 105  0.372  0.345  0.129- 104 1.42  81 1.42 106 1.43
 106  0.387  0.412  0.127- 107 1.42 130 1.42 105 1.43
 107  0.388  0.445  0.096- 106 1.42  83 1.42 108 1.43
 108  0.378  0.515  0.094-   2 1.42   6 1.42 107 1.43
 109  0.363  0.555  0.517- 110 1.42 133 1.42 265 1.43
 110  0.350  0.579  0.486- 109 1.42  86 1.42 111 1.43
 111  0.313  0.618  0.484- 112 1.42 135 1.42 110 1.43
 112  0.293  0.627  0.453- 111 1.42  88 1.42 113 1.43
 113  0.249  0.627  0.451- 114 1.42 137 1.42 112 1.43
 114  0.230  0.618  0.420- 113 1.42  90 1.42 115 1.43
 115  0.192  0.580  0.418- 116 1.42 139 1.42 114 1.43
 116  0.179  0.556  0.387- 115 1.42  92 1.42 117 1.43
 117  0.159  0.492  0.385- 118 1.42 141 1.42 116 1.43
 118  0.155  0.459  0.354- 117 1.42  94 1.42 119 1.43
 119  0.158  0.388  0.352- 120 1.42 143 1.42 118 1.43
 120  0.165  0.357  0.321- 119 1.42  96 1.42 121 1.43
 121  0.191  0.300  0.319- 122 1.42 145 1.42 120 1.43
 122  0.207  0.279  0.288- 121 1.42  98 1.42 123 1.43
 123  0.248  0.252  0.286- 124 1.42 147 1.42 122 1.43
 124  0.268  0.249  0.255- 123 1.42 100 1.42 125 1.43
 125  0.312  0.261  0.253- 126 1.42 149 1.42 124 1.43
 126  0.330  0.275  0.222- 125 1.42 102 1.42 127 1.43
 127  0.363  0.323  0.221- 128 1.42 151 1.42 126 1.43
 128  0.374  0.350  0.189- 127 1.42 104 1.42 129 1.43
 129  0.387  0.419  0.188- 130 1.42 153 1.42 128 1.43
 130  0.388  0.452  0.156- 129 1.42 106 1.42 131 1.43
 131  0.377  0.521  0.155-   6 1.42  14 1.42 130 1.43
 132  0.361  0.560  0.578- 133 1.42 156 1.42 287 1.43
 133  0.347  0.584  0.546- 132 1.42 109 1.42 134 1.43
 134  0.309  0.620  0.545- 135 1.42 158 1.42 133 1.43
 135  0.289  0.628  0.513- 134 1.42 111 1.42 136 1.43
 136  0.245  0.625  0.512- 137 1.42 160 1.42 135 1.43
 137  0.226  0.615  0.480- 136 1.42 113 1.42 138 1.43
 138  0.189  0.575  0.479- 139 1.42 162 1.42 137 1.43
 139  0.176  0.550  0.447- 138 1.42 115 1.42 140 1.43
 140  0.158  0.485  0.446- 141 1.42 164 1.42 139 1.43
 141  0.155  0.453  0.415- 140 1.42 117 1.42 142 1.43
 142  0.160  0.382  0.413- 143 1.42 166 1.42 141 1.43
 143  0.167  0.351  0.382- 142 1.42 119 1.42 144 1.43
 144  0.194  0.295  0.380- 145 1.42 168 1.42 143 1.43
 145  0.211  0.276  0.349- 144 1.42 121 1.42 146 1.43
 146  0.252  0.251  0.347- 147 1.42 170 1.42 145 1.43
 147  0.272  0.249  0.316- 146 1.42 123 1.42 148 1.43
 148  0.315  0.263  0.314- 149 1.42 172 1.42 147 1.43
 149  0.333  0.279  0.283- 148 1.42 125 1.42 150 1.43
 150  0.365  0.328  0.281- 151 1.42 174 1.42 149 1.43
 151  0.376  0.356  0.250- 150 1.42 127 1.42 152 1.43
 152  0.387  0.425  0.248- 153 1.42 176 1.42 151 1.43
 153  0.387  0.458  0.217- 152 1.42 129 1.42 154 1.43
 154  0.375  0.527  0.215-  14 1.42  26 1.42 153 1.43
 155  0.358  0.565  0.638- 156 1.42 179 1.42 309 1.43
 156  0.344  0.588  0.607- 155 1.42 132 1.42 157 1.43
 157  0.305  0.621  0.605- 158 1.42 181 1.42 156 1.43
 158  0.285  0.629  0.574- 157 1.42 134 1.42 159 1.43
 159  0.241  0.624  0.572- 160 1.42 183 1.42 158 1.43
 160  0.222  0.613  0.541- 159 1.42 136 1.42 161 1.43
 161  0.186  0.571  0.539- 162 1.42 185 1.42 160 1.43
 162  0.174  0.545  0.508- 161 1.42 138 1.42 163 1.43
 163  0.157  0.479  0.506- 164 1.42 187 1.42 162 1.43
 164  0.154  0.446  0.475- 163 1.42 140 1.42 165 1.43
 165  0.161  0.376  0.473- 166 1.42 189 1.42 164 1.43
 166  0.169  0.346  0.442- 165 1.42 142 1.42 167 1.43
 167  0.197  0.291  0.440- 168 1.42 191 1.42 166 1.43
 168  0.214  0.272  0.409- 167 1.42 144 1.42 169 1.43
 169  0.256  0.250  0.407- 170 1.42 193 1.42 168 1.43
 170  0.276  0.249  0.376- 169 1.42 146 1.42 171 1.43
 171  0.319  0.266  0.374- 172 1.42 195 1.42 170 1.43
 172  0.337  0.282  0.343- 171 1.42 148 1.42 173 1.43
 173  0.367  0.333  0.341- 174 1.42 197 1.42 172 1.43
 174  0.377  0.362  0.310- 173 1.42 150 1.42 175 1.43
 175  0.387  0.432  0.308- 176 1.42 199 1.42 174 1.43
 176  0.386  0.465  0.277- 175 1.42 152 1.42 177 1.43
 177  0.372  0.533  0.275-  26 1.42  43 1.42 176 1.43
 178  0.356  0.570  0.698- 179 1.42 201 1.42 328 1.43
 179  0.341  0.592  0.667- 178 1.42 155 1.42 180 1.43
 180  0.301  0.623  0.666- 181 1.42 203 1.42 179 1.43
 181  0.281  0.629  0.634- 180 1.42 157 1.42 182 1.43
 182  0.237  0.622  0.633- 183 1.42 205 1.42 181 1.43
 183  0.219  0.610  0.601- 182 1.42 159 1.42 184 1.43
 184  0.184  0.566  0.600- 185 1.42 207 1.42 183 1.43
 185  0.172  0.539  0.568- 184 1.42 161 1.42 186 1.43
 186  0.156  0.473  0.567- 187 1.42 209 1.42 185 1.43
 187  0.154  0.440  0.535- 186 1.42 163 1.42 188 1.43
 188  0.162  0.369  0.534- 189 1.42 211 1.42 187 1.43
 189  0.171  0.340  0.502- 188 1.42 165 1.42 190 1.43
 190  0.201  0.287  0.501- 191 1.42 213 1.42 189 1.43
 191  0.218  0.269  0.469- 190 1.42 167 1.42 192 1.43
 192  0.260  0.249  0.468- 193 1.42 215 1.42 191 1.43
 193  0.280  0.249  0.437- 192 1.42 169 1.42 194 1.43
 194  0.323  0.269  0.435- 195 1.42 217 1.42 193 1.43
 195  0.340  0.286  0.404- 194 1.42 171 1.42 196 1.43
 196  0.369  0.339  0.402- 197 1.42 219 1.42 195 1.43
 197  0.379  0.368  0.371- 196 1.42 173 1.42 198 1.43
 198  0.387  0.439  0.369- 199 1.42 221 1.42 197 1.43
 199  0.386  0.471  0.338- 198 1.42 175 1.42  42 1.43
 200  0.353  0.574  0.759- 201 1.42 223 1.42 343 1.43
 201  0.338  0.595  0.728- 200 1.42 178 1.42 202 1.43
 202  0.297  0.624  0.726- 203 1.42 225 1.42 201 1.43
 203  0.277  0.629  0.695- 202 1.42 180 1.42 204 1.43
 204  0.234  0.620  0.693- 205 1.42 227 1.42 203 1.43
 205  0.215  0.606  0.662- 204 1.42 182 1.42 206 1.43
 206  0.181  0.561  0.660- 207 1.42 229 1.42 205 1.43
 207  0.170  0.534  0.629- 206 1.42 184 1.42 208 1.43
 208  0.155  0.466  0.627- 209 1.42 231 1.42 207 1.43
 209  0.154  0.433  0.596- 208 1.42 186 1.42 210 1.43
 210  0.164  0.363  0.594- 211 1.42 233 1.42 209 1.43
 211  0.173  0.334  0.563- 210 1.42 188 1.42 212 1.43
 212  0.204  0.283  0.561- 213 1.42 235 1.42 211 1.43
 213  0.221  0.266  0.530- 212 1.42 190 1.42 214 1.43
 214  0.264  0.249  0.528- 215 1.42 237 1.42 213 1.43
 215  0.284  0.250  0.497- 214 1.42 192 1.42 216 1.43
 216  0.326  0.272  0.495- 217 1.42 239 1.42 215 1.43
 217  0.343  0.290  0.464- 216 1.42 194 1.42 218 1.43
 218  0.371  0.345  0.462- 219 1.42 241 1.42 217 1.43
 219  0.380  0.374  0.431- 218 1.42 196 1.42 220 1.43
 220  0.387  0.445  0.429- 221 1.42 243 1.42 219 1.43
 221  0.385  0.478  0.398- 220 1.42 198 1.42  63 1.43
 222  0.350  0.579  0.819- 223 1.42 245 1.42 354 1.43
 223  0.334  0.599  0.788- 222 1.42 200 1.42 224 1.43
 224  0.294  0.626  0.786- 225 1.42 247 1.42 223 1.43
 225  0.273  0.629  0.755- 224 1.42 202 1.42 226 1.43
 226  0.230  0.617  0.753- 227 1.42 249 1.42 225 1.43
 227  0.212  0.603  0.722- 226 1.42 204 1.42 228 1.43
 228  0.179  0.556  0.720- 229 1.42 251 1.42 227 1.43
 229  0.168  0.528  0.689- 228 1.42 206 1.42 230 1.43
 230  0.155  0.460  0.688- 231 1.42 253 1.42 229 1.43
 231  0.154  0.427  0.656- 230 1.42 208 1.42 232 1.43
 232  0.165  0.357  0.655- 233 1.42 255 1.42 231 1.43
 233  0.176  0.329  0.623- 232 1.42 210 1.42 234 1.43
 234  0.207  0.279  0.622- 235 1.42 257 1.42 233 1.43
 235  0.225  0.264  0.590- 234 1.42 212 1.42 236 1.43
 236  0.268  0.249  0.589- 237 1.42 259 1.42 235 1.43
 237  0.288  0.251  0.557- 236 1.42 214 1.42 238 1.43
 238  0.330  0.275  0.556- 239 1.42 261 1.42 237 1.43
 239  0.346  0.294  0.524- 238 1.42 216 1.42 240 1.43
 240  0.373  0.350  0.523- 241 1.42 263 1.42 239 1.43
 241  0.381  0.381  0.491- 240 1.42 218 1.42 242 1.43
 242  0.386  0.452  0.490- 243 1.42 265 1.42 241 1.43
 243  0.383  0.484  0.458- 220 1.42 242 1.42  86 1.42
 244  0.347  0.583  0.880- 245 1.42 267 1.42 361 1.43
 245  0.331  0.602  0.849- 244 1.42 222 1.42 246 1.43
 246  0.290  0.627  0.847- 247 1.42 269 1.42 245 1.43
 247  0.269  0.629  0.816- 246 1.42 224 1.42 248 1.43
 248  0.226  0.615  0.814- 249 1.42 271 1.42 247 1.43
 249  0.208  0.599  0.783- 248 1.42 226 1.42 250 1.43
 250  0.176  0.550  0.781- 251 1.42 273 1.42 249 1.43
 251  0.166  0.522  0.750- 250 1.42 228 1.42 252 1.43
 252  0.155  0.453  0.748- 253 1.42 275 1.42 251 1.43
 253  0.155  0.420  0.717- 252 1.42 230 1.42 254 1.43
 254  0.167  0.352  0.715- 255 1.42 277 1.42 253 1.43
 255  0.178  0.324  0.684- 254 1.42 232 1.42 256 1.43
 256  0.211  0.276  0.682- 257 1.42 279 1.42 255 1.43
 257  0.229  0.261  0.651- 256 1.42 234 1.42 258 1.43
 258  0.272  0.249  0.649- 259 1.42 281 1.42 257 1.43
 259  0.292  0.252  0.618- 258 1.42 236 1.42 260 1.43
 260  0.333  0.279  0.616- 261 1.42 283 1.42 259 1.43
 261  0.349  0.299  0.585- 260 1.42 238 1.42 262 1.43
 262  0.375  0.356  0.583- 263 1.42 285 1.42 261 1.43
 263  0.382  0.387  0.552- 262 1.42 240 1.42 264 1.43
 264  0.386  0.458  0.550- 265 1.42 287 1.42 263 1.43
 265  0.383  0.491  0.519- 264 1.42 242 1.42 109 1.43
 266  0.344  0.587  0.940- 267 1.42 289 1.42 364 1.43
 267  0.328  0.606  0.909- 266 1.42 244 1.42 268 1.43
 268  0.286  0.628  0.907- 269 1.42 291 1.42 267 1.43
 269  0.265  0.629  0.876- 268 1.42 246 1.42 270 1.43
 270  0.223  0.612  0.874- 271 1.42 293 1.42 269 1.43
 271  0.205  0.596  0.843- 270 1.42 248 1.42 272 1.43
 272  0.174  0.545  0.841- 273 1.42 295 1.42 271 1.43
 273  0.164  0.516  0.810- 272 1.42 250 1.42 274 1.43
 274  0.154  0.447  0.808- 275 1.42 297 1.42 273 1.43
 275  0.155  0.414  0.777- 274 1.42 252 1.42 276 1.43
 276  0.169  0.346  0.775- 277 1.42 299 1.42 275 1.43
 277  0.181  0.319  0.744- 276 1.42 254 1.42 278 1.43
 278  0.214  0.273  0.742- 279 1.42 301 1.42 277 1.43
 279  0.233  0.259  0.711- 278 1.42 256 1.42 280 1.43
 280  0.276  0.249  0.709- 281 1.42 303 1.42 279 1.43
 281  0.296  0.254  0.678- 280 1.42 258 1.42 282 1.43
 282  0.337  0.282  0.676- 283 1.42 305 1.42 281 1.43
 283  0.352  0.303  0.645- 282 1.42 260 1.42 284 1.43
 284  0.377  0.362  0.643- 285 1.42 307 1.42 283 1.43
 285  0.384  0.393  0.612- 284 1.42 262 1.42 286 1.43
 286  0.386  0.465  0.610- 287 1.42 309 1.42 285 1.43
 287  0.382  0.497  0.579- 286 1.42 264 1.42 132 1.43
 288  0.341  0.591  0.001- 289 1.42   4 1.42   1 1.43
 289  0.324  0.609  0.969- 288 1.42 266 1.42 290 1.43
 290  0.282  0.628  0.968- 291 1.42 310 1.42 289 1.43
 291  0.261  0.628  0.937- 290 1.42 268 1.42 292 1.43
 292  0.219  0.609  0.935- 293 1.42 312 1.42 291 1.43
 293  0.202  0.592  0.904- 292 1.42 270 1.42 294 1.43
 294  0.172  0.539  0.902- 295 1.42 314 1.42 293 1.43
 295  0.163  0.510  0.871- 294 1.42 272 1.42 296 1.43
 296  0.154  0.440  0.869- 297 1.42 316 1.42 295 1.43
 297  0.156  0.407  0.838- 296 1.42 274 1.42 298 1.43
 298  0.171  0.340  0.836- 299 1.42 318 1.42 297 1.43
 299  0.183  0.314  0.805- 298 1.42 276 1.42 300 1.43
 300  0.218  0.270  0.803- 301 1.42 320 1.42 299 1.43
 301  0.237  0.257  0.772- 300 1.42 278 1.42 302 1.43
 302  0.281  0.250  0.770- 303 1.42 322 1.42 301 1.43
 303  0.300  0.255  0.739- 302 1.42 280 1.42 304 1.43
 304  0.340  0.286  0.737- 305 1.42 324 1.42 303 1.43
 305  0.355  0.308  0.706- 304 1.42 282 1.42 306 1.43
 306  0.379  0.368  0.704- 307 1.42 326 1.42 305 1.43
 307  0.385  0.400  0.673- 306 1.42 284 1.42 308 1.43
 308  0.386  0.471  0.671- 309 1.42 328 1.42 307 1.43
 309  0.381  0.503  0.640- 308 1.42 286 1.42 155 1.43
 310  0.258  0.628  0.997-   5 1.42 290 1.42 311 1.43
 311  0.216  0.606  0.995- 312 1.42  12 1.42 310 1.43
 312  0.199  0.588  0.964- 311 1.42 292 1.42 313 1.43
 313  0.170  0.534  0.962- 314 1.42 329 1.42 312 1.43
 314  0.161  0.504  0.931- 313 1.42 294 1.42 315 1.43
 315  0.154  0.433  0.929- 316 1.42 331 1.42 314 1.43
 316  0.157  0.401  0.898- 315 1.42 296 1.42 317 1.43
 317  0.174  0.335  0.896- 318 1.42 333 1.42 316 1.43
 318  0.186  0.309  0.865- 317 1.42 298 1.42 319 1.43
 319  0.222  0.267  0.863- 320 1.42 335 1.42 318 1.43
 320  0.241  0.256  0.832- 319 1.42 300 1.42 321 1.43
 321  0.285  0.251  0.830- 322 1.42 337 1.42 320 1.43
 322  0.304  0.257  0.799- 321 1.42 302 1.42 323 1.43
 323  0.343  0.290  0.797- 324 1.42 339 1.42 322 1.43
 324  0.358  0.313  0.766- 323 1.42 304 1.42 325 1.43
 325  0.381  0.374  0.764- 326 1.42 341 1.42 324 1.43
 326  0.386  0.406  0.733- 325 1.42 306 1.42 327 1.43
 327  0.385  0.478  0.731- 328 1.42 343 1.42 326 1.43
 328  0.379  0.509  0.700- 327 1.42 308 1.42 178 1.43
 329  0.160  0.498  0.991-  13 1.42 313 1.42 330 1.43
 330  0.155  0.427  0.990- 331 1.42  24 1.42 329 1.43
 331  0.158  0.394  0.959- 330 1.42 315 1.42 332 1.43
 332  0.176  0.329  0.957- 333 1.42 344 1.42 331 1.43
 333  0.189  0.304  0.926- 332 1.42 317 1.42 334 1.43
 334  0.226  0.264  0.924- 335 1.42 346 1.42 333 1.43
 335  0.245  0.254  0.893- 334 1.42 319 1.42 336 1.43
 336  0.289  0.251  0.891- 337 1.42 348 1.42 335 1.43
 337  0.308  0.259  0.860- 336 1.42 321 1.42 338 1.43
 338  0.347  0.294  0.858- 339 1.42 350 1.42 337 1.43
 339  0.361  0.318  0.827- 338 1.42 323 1.42 340 1.43
 340  0.382  0.380  0.825- 341 1.42 352 1.42 339 1.43
 341  0.387  0.413  0.794- 340 1.42 325 1.42 342 1.43
 342  0.385  0.484  0.792- 343 1.42 354 1.42 341 1.43
 343  0.378  0.515  0.761- 342 1.42 327 1.42 200 1.43
 344  0.192  0.300  0.986-  25 1.42 332 1.42 345 1.43
 345  0.229  0.262  0.984- 346 1.42  40 1.42 344 1.43
 346  0.249  0.253  0.953- 345 1.42 334 1.42 347 1.43
 347  0.293  0.253  0.951- 348 1.42 355 1.42 346 1.43
 348  0.312  0.261  0.920- 347 1.42 336 1.42 349 1.43
 349  0.350  0.299  0.918- 350 1.42 357 1.42 348 1.43
 350  0.364  0.323  0.887- 349 1.42 338 1.42 351 1.43
 351  0.383  0.387  0.885- 352 1.42 359 1.42 350 1.43
 352  0.387  0.419  0.854- 351 1.42 340 1.42 353 1.43
 353  0.384  0.490  0.852- 354 1.42 361 1.42 352 1.43
 354  0.376  0.521  0.821- 353 1.42 342 1.42 222 1.43
 355  0.316  0.264  0.980-  41 1.42 347 1.42 356 1.43
 356  0.353  0.303  0.979- 357 1.42  61 1.42 355 1.43
 357  0.366  0.328  0.947- 356 1.42 349 1.42 358 1.43
 358  0.385  0.393  0.946- 359 1.42 362 1.42 357 1.43
 359  0.388  0.426  0.914- 358 1.42 351 1.42 360 1.43
 360  0.383  0.497  0.913- 361 1.42 364 1.42 359 1.43
 361  0.375  0.527  0.882- 360 1.42 353 1.42 244 1.43
 362  0.388  0.432  0.975-  62 1.42 358 1.42 363 1.43
 363  0.381  0.503  0.973- 364 1.42   1 1.42 362 1.43
 364  0.373  0.533  0.942- 363 1.42 360 1.42 266 1.43
 365  0.481  0.410  0.480- 367 1.45 366 1.45
 366  0.486  0.346  0.496- 365 1.45
 367  0.496  0.470  0.496- 365 1.45
 
  LATTYP: Found a simple orthorhombic cell.
 ALAT       =    19.9214134216
 B/A-ratio  =     1.6250001197
 C/A-ratio  =     2.0303804144
  
  Lattice vectors:
  
 A1 = (   0.0000000000, -19.9214134216,   0.0000000000)
 A2 = (  32.3722991943,   0.0000000000,   0.0000000000)
 A3 = (   0.0000000000,   0.0000000000,  40.4480476379)


Analysis of symmetry for initial positions (statically):
=====================================================================
 Subroutine PRICEL returns:
 Original cell was already a primitive cell.
 

 Routine SETGRP: Setting up the symmetry group for a 
 simple orthorhombic supercell.


 Subroutine GETGRP returns: Found  1 space group operations
 (whereof  1 operations were pure point group operations)
 out of a pool of  8 trial point group operations.


The static configuration has the point symmetry C_1 .


Analysis of symmetry for dynamics (positions and initial velocities):
=====================================================================
 Subroutine PRICEL returns:
 Original cell was already a primitive cell.
 

 Routine SETGRP: Setting up the symmetry group for a 
 simple orthorhombic supercell.


 Subroutine GETGRP returns: Found  1 space group operations
 (whereof  1 operations were pure point group operations)
 out of a pool of  8 trial point group operations.


The dynamic configuration has the point symmetry C_1 .


 Subroutine INISYM returns: Found  1 space group operations
 (whereof  1 operations are pure point group operations),
 and found     1 'primitive' translations


----------------------------------------------------------------------------------------

                                     Primitive cell                                     

  volume of cell :   26085.0250

  direct lattice vectors                    reciprocal lattice vectors
    32.372299194  0.000000000  0.000000000     0.030890608  0.000000000  0.000000000
     0.000000000 19.921413422  0.000000000     0.000000000  0.050197241  0.000000000
     0.000000000  0.000000000 40.448047638     0.000000000  0.000000000  0.024723072

  length of vectors
    32.372299194 19.921413422 40.448047638     0.030890608  0.050197241  0.024723072

  position of ions in fractional coordinates (direct lattice)
     0.370923694  0.538317105  0.002466561
     0.368725153  0.543848586  0.062930984
     0.337980458  0.595002664  0.061112287
     0.320430025  0.611388381  0.029944168
     0.277747181  0.628743059  0.028123354
     0.366362623  0.549277621  0.123388203
     0.334562215  0.598696104  0.121558306
     0.316692992  0.614073043  0.090386891
     0.273666084  0.629018726  0.088550845
     0.253473093  0.626849410  0.057394386
     0.212018053  0.602898192  0.055580701
     0.195513178  0.583823779  0.024429409
     0.167941663  0.528103087  0.022620474
     0.363833685  0.554594221  0.183839240
     0.331026512  0.602237778  0.181997282
     0.312865898  0.616592133  0.150821891
     0.269550275  0.629123227  0.148976743
     0.249432744  0.625787736  0.117816224
     0.208516744  0.599504989  0.116003331
     0.192443889  0.579504548  0.084850070
     0.166080817  0.522264136  0.083036361
     0.158835083  0.491519136  0.051891811
     0.154881006  0.420311411  0.050078490
     0.158650609  0.387943712  0.018934541
     0.178300462  0.323971869  0.017130511
     0.361175242  0.559805606  0.244279701
     0.327405559  0.605633553  0.242427876
     0.308958367  0.618951949  0.211251224
     0.265405154  0.629058809  0.209403114
     0.245384527  0.624556412  0.178238043
     0.205061239  0.595951801  0.176428739
     0.189440642  0.575035337  0.145274017
     0.164325386  0.516329830  0.143457794
     0.157755026  0.485190146  0.112309645
     0.155314377  0.413801601  0.110499797
     0.159778091  0.381666825  0.079351958
     0.180764721  0.318827024  0.077544917
     0.194948294  0.295267349  0.046405226
     0.233108407  0.259675368  0.044591711
     0.252785446  0.251695058  0.013446377
     0.296765002  0.253917721  0.011645796
     0.370273798  0.538383547  0.335889686
     0.358410273  0.564919083  0.304709169
     0.323731868  0.608915949  0.302852733
     0.305006541  0.621164011  0.271677018
     0.261262334  0.628815945  0.269833144
     0.241348862  0.623147007  0.238666819
     0.201674726  0.592234698  0.236860431
     0.186528857  0.570409188  0.205704015
     0.162709562  0.510293370  0.203887977
     0.156806349  0.478803983  0.172736079
     0.155880230  0.407320501  0.170929613
     0.161012664  0.375456356  0.139777253
     0.183305449  0.313813715  0.137963922
     0.197994916  0.291068670  0.106824015
     0.236885752  0.257628579  0.105018703
     0.256740957  0.250767303  0.073877763
     0.300648091  0.255460282  0.072088282
     0.319761197  0.266501336  0.040938409
     0.355635042  0.307907101  0.039126913
     0.368341419  0.333562379  0.007960668
     0.385524101  0.399389570  0.006155753
     0.367969806  0.544051498  0.396303100
     0.355560685  0.569929755  0.365128686
     0.320013439  0.612059602  0.363279128
     0.301033969  0.623242672  0.332104277
     0.257149843  0.628390465  0.330272398
     0.237365422  0.621536182  0.299105215
     0.198403202  0.588316014  0.297300692
     0.183728830  0.565635306  0.266144489
     0.161239774  0.504176887  0.264330835
     0.156004693  0.472374583  0.233173451
     0.156591013  0.400881666  0.231367581
     0.162380321  0.369321398  0.200211344
     0.185935568  0.308929570  0.198390950
     0.201092660  0.287015297  0.167247574
     0.240659395  0.255740782  0.165450199
     0.260668998  0.250020645  0.134312046
     0.304448596  0.257182635  0.132530007
     0.323342261  0.269304866  0.101390343
     0.358312401  0.312708636  0.099593246
     0.370490874  0.339065344  0.068432800
     0.386266325  0.405815870  0.066635918
     0.388117904  0.438598955  0.035461483
     0.379957537  0.508860979  0.033637249
     0.365599933  0.549610261  0.456703111
     0.352670476  0.574837557  0.425542992
     0.316274184  0.615007820  0.423710912
     0.297043663  0.625125315  0.392539763
     0.253074361  0.627731124  0.390722597
     0.233439874  0.619723888  0.359553895
     0.195251189  0.584205715  0.357748323
     0.181080531  0.560670401  0.326591933
     0.159948389  0.497956347  0.324781884
     0.155372657  0.465890991  0.293618802
     0.157446726  0.394469273  0.291811050
     0.163873561  0.363247994  0.260650082
     0.188646271  0.304155667  0.258823602
     0.204256071  0.283093087  0.227676187
     0.244449081  0.254001564  0.225883123
     0.264577728  0.249432665  0.194747524
     0.308178164  0.259078066  0.192970275
     0.326812372  0.272295451  0.161839520
     0.360825729  0.317665885  0.160057940
     0.372463327  0.344694247  0.128903508
     0.386799874  0.412295606  0.127108903
     0.387991878  0.445157363  0.095938056
     0.378353680  0.514923970  0.094105887
     0.363267062  0.554875445  0.517136818
     0.349715780  0.579417425  0.485987762
     0.312511016  0.617521572  0.484165109
     0.293059805  0.626656955  0.452992582
     0.249061347  0.626732546  0.451185763
     0.229598993  0.617643002  0.420015556
     0.192228365  0.579893916  0.418203906
     0.178576255  0.555553698  0.387045012
     0.158809824  0.491672047  0.385238376
     0.154905140  0.459367324  0.354073603
     0.158448759  0.388096912  0.352262617
     0.165495106  0.357243924  0.321096433
     0.191447490  0.299502172  0.319266798
     0.207473512  0.279303875  0.288112146
     0.248250685  0.252435677  0.286320347
     0.268472739  0.249017715  0.255187361
     0.311836323  0.261167248  0.253409560
     0.330184806  0.275460156  0.222285036
     0.363183117  0.322769181  0.220516457
     0.374250757  0.350443928  0.189369538
     0.387130143  0.418817643  0.187573007
     0.387654436  0.451720408  0.156405926
     0.376556090  0.520907911  0.154568760
     0.360867470  0.559914128  0.577540029
     0.346782619  0.583754534  0.546427613
     0.308737879  0.619693399  0.544620057
     0.289078741  0.627788590  0.513467430
     0.245106737  0.625376610  0.511659569
     0.225840261  0.615227013  0.480485277
     0.189306549  0.575385992  0.478664071
     0.176191053  0.550292222  0.447499613
     0.157810988  0.485331111  0.445694981
     0.154594537  0.452819928  0.414530449
     0.159611372  0.381784396  0.412716902
     0.167265062  0.351321046  0.381548226
     0.194361583  0.294983348  0.379720778
     0.210775458  0.275663349  0.348556936
     0.252087376  0.251052423  0.346761191
     0.272367696  0.248798523  0.315626181
     0.315435118  0.263450323  0.313845022
     0.333457523  0.278817810  0.282725185
     0.365385122  0.328028340  0.280964138
     0.375866419  0.356312186  0.249826006
     0.387273472  0.425369415  0.248024550
     0.387126009  0.458274044  0.216861028
     0.374595614  0.526811391  0.215020900
     0.358383266  0.564823066  0.637962159
     0.343749727  0.587773583  0.606844894
     0.304948485  0.621486476  0.605060925
     0.285109565  0.628545844  0.573917033
     0.241209505  0.623698602  0.572116280
     0.222144333  0.612552816  0.540953388
     0.186465034  0.570704378  0.539125640
     0.173900699  0.544891041  0.507958737
     0.156906970  0.478946272  0.506152734
     0.154404708  0.446272075  0.474986945
     0.160898440  0.375557455  0.473171466
     0.169177300  0.345515066  0.442006527
     0.197401926  0.290657443  0.440188081
     0.214173152  0.272199265  0.409015209
     0.255970015  0.249850428  0.407209862
     0.276271722  0.248757979  0.376066792
     0.318988291  0.265919739  0.374276211
     0.336653770  0.282352478  0.343159641
     0.367464065  0.333410611  0.341397887
     0.377314380  0.362293962  0.310267383
     0.387242615  0.431948205  0.308459368
     0.386422691  0.464821309  0.277301648
     0.372497276  0.532640470  0.275461486
     0.355827269  0.569589110  0.698393742
     0.340679305  0.591653797  0.667271114
     0.301157038  0.623087822  0.665501538
     0.281162598  0.628999594  0.634365639
     0.237387206  0.621732661  0.632568646
     0.218546006  0.609580019  0.601410194
     0.183732833  0.565850993  0.599583921
     0.171696854  0.539382788  0.568414455
     0.156084345  0.472537080  0.566608153
     0.154292736  0.439734704  0.535446563
     0.162282696  0.369424657  0.533631186
     0.171211225  0.339852459  0.502469646
     0.200570091  0.286599190  0.500662760
     0.217694688  0.269015004  0.469487538
     0.259933669  0.248981192  0.467674641
     0.280203932  0.248929280  0.436513901
     0.322515939  0.268554378  0.434707965
     0.339780878  0.286048831  0.403587005
     0.369423897  0.338900166  0.401810086
     0.378641904  0.368350748  0.370691008
     0.387068454  0.438534512  0.368875976
     0.385569607  0.471346873  0.337725332
     0.353170280  0.574221203  0.758833725
     0.337545023  0.595373345  0.727706306
     0.297356379  0.624499551  0.725942741
     0.277234906  0.629251814  0.694809291
     0.233640050  0.619567497  0.693012061
     0.215037811  0.606401899  0.661860889
     0.181131025  0.560831104  0.660040883
     0.169622312  0.533741109  0.628873217
     0.155392365  0.466083854  0.627064445
     0.154293809  0.433200902  0.595902512
     0.163786283  0.363386277  0.594088312
     0.173342267  0.334331860  0.562930020
     0.203846410  0.282794916  0.561132356
     0.221329368  0.266162956  0.529964880
     0.263973318  0.248547997  0.528147351
     0.284204550  0.249540237  0.496975542
     0.326057880  0.271544808  0.495160541
     0.342860193  0.289908175  0.464006428
     0.371191284  0.344568280  0.462202914
     0.379786371  0.374499104  0.431095766
     0.386706853  0.445140052  0.429270510
     0.384573801  0.477847292  0.398122343
     0.350391342  0.578695378  0.819281196
     0.334320922  0.598925757  0.788146602
     0.293524896  0.625716282  0.786381211
     0.273316630  0.629313210  0.755247870
     0.229949930  0.617212779  0.753450241
     0.211626490  0.603037422  0.722305483
     0.178662383  0.555674645  0.720493837
     0.167693506  0.527982976  0.689330301
     0.154860943  0.459592632  0.687517872
     0.154437516  0.426671536  0.656357542
     0.165438397  0.357442156  0.654544939
     0.175618445  0.328962156  0.623388071
     0.207251678  0.279258801  0.621592087
     0.225066926  0.263627032  0.590427080
     0.268072163  0.248515732  0.588597034
     0.288246574  0.250587746  0.557426988
     0.329620152  0.274921219  0.555598217
     0.345987943  0.294148174  0.524430203
     0.373185677  0.350301370  0.522622992
     0.380768594  0.380724081  0.491480174
     0.386344809  0.451725172  0.489658867
     0.383407908  0.484301748  0.458493512
     0.347494498  0.583024840  0.879737368
     0.331014034  0.602315049  0.848592624
     0.289662539  0.626756653  0.846818891
     0.269397010  0.629188288  0.815684698
     0.226310775  0.614679723  0.813882883
     0.208289372  0.599495692  0.782741936
     0.176311062  0.550382750  0.780937543
     0.165908929  0.522116793  0.749779512
     0.154503275  0.453060928  0.747964566
     0.154759954  0.420144093  0.716807696
     0.167261460  0.351590403  0.714997436
     0.178048100  0.323731099  0.683838216
     0.210776615  0.275939157  0.682036733
     0.228912979  0.261370163  0.650874208
     0.272220578  0.248760265  0.649033345
     0.292315787  0.251987778  0.617857494
     0.333154263  0.278577441  0.616012339
     0.349115032  0.298664785  0.584833861
     0.375276417  0.356159789  0.582991824
     0.382348716  0.386950136  0.551847585
     0.386333585  0.458202109  0.550043544
     0.382524211  0.490653039  0.518954115
     0.344456976  0.587179276  0.940197221
     0.327595211  0.605521370  0.909043175
     0.285746526  0.627613849  0.907255470
     0.265458801  0.628886410  0.876116167
     0.222707824  0.611983951  0.874309727
     0.205024097  0.595800659  0.843169421
     0.174076584  0.544973472  0.841369553
     0.164257237  0.516148727  0.810220168
     0.154303774  0.446501854  0.808401999
     0.155250968  0.413619176  0.777248628
     0.169231577  0.345825450  0.775441476
     0.180616787  0.318623737  0.744281538
     0.214381547  0.272777617  0.742471040
     0.232828408  0.259304806  0.711309349
     0.276382005  0.249181317  0.709463762
     0.296391879  0.253550685  0.678285999
     0.336669943  0.282314539  0.676436058
     0.352192640  0.303267461  0.645255268
     0.377178444  0.362116497  0.643402699
     0.383611135  0.393287166  0.612247928
     0.386070561  0.464666684  0.610446708
     0.381615698  0.496861335  0.579320334
     0.341283232  0.591165100  0.000657520
     0.324069563  0.608548923  0.969494984
     0.281777697  0.628282029  0.967690560
     0.261495571  0.628407472  0.936545113
     0.219125199  0.609133399  0.934734427
     0.201809760  0.591962675  0.903592373
     0.171947142  0.539451633  0.901792714
     0.162744671  0.510095933  0.870648903
     0.154265927  0.439941734  0.868829296
     0.155903633  0.407124864  0.837680787
     0.171340520  0.340172605  0.835875697
     0.183308680  0.313644464  0.804719007
     0.218063482  0.269796293  0.802900720
     0.236789829  0.257418385  0.771738107
     0.280534320  0.249772125  0.769894594
     0.300438843  0.255281395  0.738716153
     0.340106136  0.286204093  0.736865708
     0.355203111  0.307987267  0.705685529
     0.378978624  0.368142913  0.703831180
     0.384763672  0.399647896  0.672668027
     0.385698319  0.471126737  0.670869436
     0.380519707  0.503022386  0.639734034
     0.257502283  0.627725973  0.996971321
     0.215564822  0.606098721  0.995158436
     0.198642785  0.587969903  0.964011778
     0.169906652  0.533827465  0.962208290
     0.161342868  0.503969901  0.931067496
     0.154360655  0.433381739  0.929248520
     0.156708990  0.400678930  0.898103905
     0.173576537  0.334646664  0.896301260
     0.186116868  0.308823599  0.865147991
     0.221796670  0.266991102  0.863324467
     0.240790264  0.255713513  0.832163788
     0.284671038  0.250532448  0.830327649
     0.304452147  0.257165789  0.799149859
     0.343461089  0.290227891  0.797303567
     0.358105597  0.312831568  0.766123296
     0.380630886  0.374248920  0.764274088
     0.385770575  0.406056584  0.733106732
     0.385190448  0.477553535  0.731311075
     0.379323535  0.509132964  0.700168822
     0.160041718  0.497774402  0.991479586
     0.154567056  0.426834024  0.989662495
     0.157628735  0.394275921  0.958519640
     0.175899649  0.329237958  0.956717574
     0.189003681  0.304140571  0.925569783
     0.225560787  0.264352362  0.923745777
     0.244800049  0.254172083  0.892589240
     0.288766246  0.251462158  0.890764187
     0.308407810  0.259214460  0.859589909
     0.346709190  0.294404718  0.857749521
     0.360889168  0.317810831  0.826571045
     0.382125858  0.380432562  0.824730823
     0.386612200  0.412509483  0.793558723
     0.384510117  0.483931152  0.791762308
     0.377982147  0.515166212  0.760615027
     0.191954607  0.299626822  0.985988784
     0.229336501  0.261916397  0.984168389
     0.248802234  0.252825510  0.953016720
     0.292802327  0.252582649  0.951205218
     0.312286954  0.261451966  0.920036811
     0.349825075  0.298753434  0.918203594
     0.363529582  0.322929761  0.887027652
     0.383440772  0.386690893  0.885199098
     0.387273212  0.419000562  0.854022941
     0.383645840  0.490261965  0.852223291
     0.376471631  0.521099577  0.821069239
     0.316082436  0.263864392  0.980487287
     0.352811779  0.303243301  0.978663632
     0.366017571  0.328180821  0.947491483
     0.384580809  0.393007845  0.945675654
     0.387751783  0.425515796  0.914497985
     0.382610537  0.496533277  0.912691650
     0.374800287  0.526950536  0.881532300
     0.388037981  0.432050254  0.974978718
     0.381380349  0.502732214  0.973163973
     0.372953648  0.532689851  0.941998876
     0.480525719  0.409876303  0.479628747
     0.485969483  0.345744485  0.496003087
     0.496091675  0.469890228  0.495620588

  ion indices of the primitive-cell ions
   primitive index   ion index
                 1           1
                 2           2
                 3           3
                 4           4
                 5           5
                 6           6
                 7           7
                 8           8
                 9           9
                10          10
                11          11
                12          12
                13          13
                14          14
                15          15
                16          16
                17          17
                18          18
                19          19
                20          20
                21          21
                22          22
                23          23
                24          24
                25          25
                26          26
                27          27
                28          28
                29          29
                30          30
                31          31
                32          32
                33          33
                34          34
                35          35
                36          36
                37          37
                38          38
                39          39
                40          40
                41          41
                42          42
                43          43
                44          44
                45          45
                46          46
                47          47
                48          48
                49          49
                50          50
                51          51
                52          52
                53          53
                54          54
                55          55
                56          56
                57          57
                58          58
                59          59
                60          60
                61          61
                62          62
                63          63
                64          64
                65          65
                66          66
                67          67
                68          68
                69          69
                70          70
                71          71
                72          72
                73          73
                74          74
                75          75
                76          76
                77          77
                78          78
                79          79
                80          80
                81          81
                82          82
                83          83
                84          84
                85          85
                86          86
                87          87
                88          88
                89          89
                90          90
                91          91
                92          92
                93          93
                94          94
                95          95
                96          96
                97          97
                98          98
                99          99
               100         100
               101         101
               102         102
               103         103
               104         104
               105         105
               106         106
               107         107
               108         108
               109         109
               110         110
               111         111
               112         112
               113         113
               114         114
               115         115
               116         116
               117         117
               118         118
               119         119
               120         120
               121         121
               122         122
               123         123
               124         124
               125         125
               126         126
               127         127
               128         128
               129         129
               130         130
               131         131
               132         132
               133         133
               134         134
               135         135
               136         136
               137         137
               138         138
               139         139
               140         140
               141         141
               142         142
               143         143
               144         144
               145         145
               146         146
               147         147
               148         148
               149         149
               150         150
               151         151
               152         152
               153         153
               154         154
               155         155
               156         156
               157         157
               158         158
               159         159
               160         160
               161         161
               162         162
               163         163
               164         164
               165         165
               166         166
               167         167
               168         168
               169         169
               170         170
               171         171
               172         172
               173         173
               174         174
               175         175
               176         176
               177         177
               178         178
               179         179
               180         180
               181         181
               182         182
               183         183
               184         184
               185         185
               186         186
               187         187
               188         188
               189         189
               190         190
               191         191
               192         192
               193         193
               194         194
               195         195
               196         196
               197         197
               198         198
               199         199
               200         200
               201         201
               202         202
               203         203
               204         204
               205         205
               206         206
               207         207
               208         208
               209         209
               210         210
               211         211
               212         212
               213         213
               214         214
               215         215
               216         216
               217         217
               218         218
               219         219
               220         220
               221         221
               222         222
               223         223
               224         224
               225         225
               226         226
               227         227
               228         228
               229         229
               230         230
               231         231
               232         232
               233         233
               234         234
               235         235
               236         236
               237         237
               238         238
               239         239
               240         240
               241         241
               242         242
               243         243
               244         244
               245         245
               246         246
               247         247
               248         248
               249         249
               250         250
               251         251
               252         252
               253         253
               254         254
               255         255
               256         256
               257         257
               258         258
               259         259
               260         260
               261         261
               262         262
               263         263
               264         264
               265         265
               266         266
               267         267
               268         268
               269         269
               270         270
               271         271
               272         272
               273         273
               274         274
               275         275
               276         276
               277         277
               278         278
               279         279
               280         280
               281         281
               282         282
               283         283
               284         284
               285         285
               286         286
               287         287
               288         288
               289         289
               290         290
               291         291
               292         292
               293         293
               294         294
               295         295
               296         296
               297         297
               298         298
               299         299
               300         300
               301         301
               302         302
               303         303
               304         304
               305         305
               306         306
               307         307
               308         308
               309         309
               310         310
               311         311
               312         312
               313         313
               314         314
               315         315
               316         316
               317         317
               318         318
               319         319
               320         320
               321         321
               322         322
               323         323
               324         324
               325         325
               326         326
               327         327
               328         328
               329         329
               330         330
               331         331
               332         332
               333         333
               334         334
               335         335
               336         336
               337         337
               338         338
               339         339
               340         340
               341         341
               342         342
               343         343
               344         344
               345         345
               346         346
               347         347
               348         348
               349         349
               350         350
               351         351
               352         352
               353         353
               354         354
               355         355
               356         356
               357         357
               358         358
               359         359
               360         360
               361         361
               362         362
               363         363
               364         364
               365         365
               366         366
               367         367

----------------------------------------------------------------------------------------

 
 
 KPOINTS: KPOINTS created by Atomic Simulation Env

Automatic generation of k-mesh.
 Grid dimensions read from file:
 generate k-points for:    1    1    2

 Generating k-lattice:

  Cartesian coordinates                     Fractional coordinates (reciprocal lattice)
     0.030890608  0.000000000  0.000000000     1.000000000  0.000000000  0.000000000
     0.000000000  0.050197241  0.000000000     0.000000000  1.000000000  0.000000000
     0.000000000  0.000000000  0.012361536     0.000000000  0.000000000  0.500000000

  Length of vectors
     0.030890608  0.050197241  0.012361536

  Shift w.r.t. Gamma in fractional coordinates (k-lattice)
     0.000000000  0.000000000  0.000000000

 
 Subroutine IBZKPT returns following result:
 ===========================================
 
 Found      2 irreducible k-points:
 
 Following reciprocal coordinates:
            Coordinates               Weight
  0.000000  0.000000  0.000000      1.000000
  0.000000  0.000000  0.500000      1.000000
 
 Following cartesian coordinates:
            Coordinates               Weight
  0.000000  0.000000  0.000000      1.000000
  0.000000  0.000000  0.012362      1.000000
 


--------------------------------------------------------------------------------------------------------




 Dimension of arrays:
   k-points           NKPTS =      2   k-points in BZ     NKDIM =      2   number of bands    NBANDS=    896
   number of dos      NEDOS =    301   number of ions     NIONS =    367
   non local maximal  LDIM  =      4   non local SUM 2l+1 LMDIM =      8
   total plane-waves  NPLWV = ******
   max r-space proj   IRMAX =      1   max aug-charges    IRDMAX=  10060
   dimension x,y,z NGX =   216 NGY =  140 NGZ =  270
   dimension x,y,z NGXF=   432 NGYF=  280 NGZF=  540
   support grid    NGXF=   432 NGYF=  280 NGZF=  540
   ions per type =             364   1   2
   NGX,Y,Z   is equivalent  to a cutoff of  11.09, 11.68, 11.10 a.u.
   NGXF,Y,Z  is equivalent  to a cutoff of  22.19, 23.37, 22.19 a.u.

 SYSTEM =  02_SCF                                  
 POSCAR =   C  S  O                                

 Startparameter for this run:
   NWRITE =      2    write-flag & timer
   PREC   = accura    normal or accurate (medium, high low for compatibility)
   ISTART =      0    job   : 0-new  1-cont  2-samecut
   ICHARG =      2    charge: 1-file 2-atom 10-const
   ISPIN  =      1    spin polarized calculation?
   LNONCOLLINEAR =      F non collinear calculations
   LSORBIT =      F    spin-orbit coupling
   INIWAV =      1    electr: 0-lowe 1-rand  2-diag
   LASPH  =      F    aspherical Exc in radial PAW
 Electronic Relaxation 1
   ENCUT  =  400.0 eV  29.40 Ry    5.42 a.u.  52.79 32.49 65.96*2*pi/ulx,y,z
   ENINI  =  400.0     initial cutoff
   ENAUG  =  644.9 eV  augmentation charge cutoff
   NELM   =     60;   NELMIN=  5; NELMDL=  0     # of ELM steps 
   EDIFF  = 0.1E-05   stopping-criterion for ELM
   LREAL  =      F    real-space projection
   NLSPLINE    = F    spline interpolate recip. space projectors
   LCOMPAT=      F    compatible to vasp.4.4
   GGA_COMPAT  = T    GGA compatible to vasp.4.4-vasp.4.6
   LMAXPAW     = -100 max onsite density
   LMAXMIX     =    2 max onsite mixed and CHGCAR
   VOSKOWN=      0    Vosko Wilk Nusair interpolation
   ROPT   =    0.00000   0.00000   0.00000
 Ionic relaxation
   EDIFFG = 0.1E-04   stopping-criterion for IOM
   NSW    =      0    number of steps for IOM
   NBLOCK =      1;   KBLOCK =      1    inner block; outer block 
   IBRION =     -1    ionic relax: 0-MD 1-quasi-New 2-CG
   NFREE  =      0    steps in history (QN), initial steepest desc. (CG)
   ISIF   =      2    stress and relaxation
   IWAVPR =     10    prediction:  0-non 1-charg 2-wave 3-comb
   ISYM   =      2    0-nonsym 1-usesym 2-fastsym
   LCORR  =      T    Harris-Foulkes like correction to forces

   POTIM  = 0.5000    time-step for ionic-motion
   TEIN   =    0.0    initial temperature
   TEBEG  =    0.0;   TEEND  =   0.0 temperature during run
   SMASS  =  -3.00    Nose mass-parameter (am)
   estimated Nose-frequenzy (Omega)   =  0.10E-29 period in steps = 0.13E+47 mass=  -0.239E-25a.u.
   SCALEE = 1.0000    scale energy and forces
   NPACO  =    256;   APACO  = 10.0  distance and # of slots for P.C.
   PSTRESS=    0.0 pullay stress

  Mass of Ions in am
   POMASS =  12.01 32.07 16.00
  Ionic Valenz
   ZVAL   =   4.00  6.00  6.00
  Atomic Wigner-Seitz radii
   RWIGS  =  -1.00 -1.00 -1.00
  virtual crystal weights 
   VCA    =   1.00  1.00  1.00
   NELECT =    1474.0000    total number of electrons
   NUPDOWN=      -1.0000    fix difference up-down

 DOS related values:
   EMIN   =  10.00;   EMAX   =-10.00  energy-range for DOS
   EFERMI =   0.00;   METHOD = LEGACY      
   ISMEAR =     0;   SIGMA  =   0.01  broadening in eV -4-tet -1-fermi 0-gaus

 Electronic relaxation 2 (details)
   IALGO  =     38    algorithm
   LDIAG  =      T    sub-space diagonalisation (order eigenvalues)
   LSUBROT=      F    optimize rotation matrix (better conditioning)
   TURBO    =      0    0=normal 1=particle mesh
   IRESTART =      0    0=no restart 2=restart with 2 vectors
   NREBOOT  =      0    no. of reboots
   NMIN     =      0    reboot dimension
   EREF     =   0.00    reference energy to select bands
   IMIX   =      4    mixing-type and parameters
     AMIX     =   0.40;   BMIX     =  1.00
     AMIX_MAG =   1.60;   BMIX_MAG =  1.00
     AMIN     =   0.10
     WC   =   100.;   INIMIX=   1;  MIXPRE=   1;  MAXMIX= -45

 Intra band minimization:
   WEIMIN = 0.0000     energy-eigenvalue tresh-hold
   EBREAK =  0.28E-09  absolut break condition
   DEPER  =   0.30     relativ break condition  

   TIME   =   0.40     timestep for ELM

  volume/ion in A,a.u.               =      71.08       479.65
  Fermi-wavevector in a.u.,A,eV,Ry     =   0.628218  1.187160  5.369643  0.394658
  Thomas-Fermi vector in A             =   1.690087
 
 Write flags
   LWAVE        =      T    write WAVECAR
   LDOWNSAMPLE  =      F    k-point downsampling of WAVECAR
   LCHARG       =      T    write CHGCAR
   LVTOT        =      F    write LOCPOT, total local potential
   LVHAR        =      F    write LOCPOT, Hartree potential only
   LELF         =      F    write electronic localiz. function (ELF)
   LORBIT       =     11    0 simple, 1 ext, 2 COOP (PROOUT), +10 PAW based schemes


 Dipole corrections
   LMONO  =      F    monopole corrections only (constant potential shift)
   LDIPOL =      F    correct potential (dipole corrections)
   IDIPOL =      0    1-x, 2-y, 3-z, 4-all directions 
   EPSILON=  1.0000000 bulk dielectric constant

 Exchange correlation treatment:
   GGA     =    PE    GGA type
   LEXCH   =     8    internal setting for exchange type
   LIBXC   =     F    Libxc                    
   VOSKOWN =     0    Vosko Wilk Nusair interpolation
   LHFCALC =     F    Hartree Fock is set to
   LHFONE  =     F    Hartree Fock one center treatment
   AEXX    =    0.0000 exact exchange contribution

 Linear response parameters
   LEPSILON=     F    determine dielectric tensor
   LRPA    =     F    only Hartree local field effects (RPA)
   LNABLA  =     F    use nabla operator in PAW spheres
   LVEL    =     F    velocity operator in full k-point grid
   CSHIFT  =0.1000    complex shift for real part using Kramers Kronig
   OMEGAMAX=  -1.0    maximum frequency
   DEG_THRESHOLD= 0.2000000E-02 threshold for treating states as degnerate
   RTIME   =   -0.100 relaxation time in fs
  (WPLASMAI=    0.000 imaginary part of plasma frequency in eV, 0.658/RTIME)
   DFIELD  = 0.0000000 0.0000000 0.0000000 field for delta impulse in time
 
  Optional k-point grid parameters
   LKPOINTS_OPT  =     F    use optional k-point grid
   KPOINTS_OPT_MODE=     1    mode for optional k-point grid
 
 Orbital magnetization related:
   ORBITALMAG=     F  switch on orbital magnetization
   LCHIMAG   =     F  perturbation theory with respect to B field
   DQ        =  0.001000  dq finite difference perturbation B field
   LLRAUG    =     F  two centre corrections for induced B field
   LBONE     =     F  B-component reconstruction in AE one-centre
   LVGVCALC  =     T  calculate vGv susceptibility
   LVGVAPPL  =     F  apply vGv susceptibility instead of pGv for G=0

 Random number generation:
   RANDOM_GENERATOR = DEFAULT
   PCG_SEED         = not used


--------------------------------------------------------------------------------------------------------


 Static calculation
 charge density and potential will be updated during run
 non-spin polarized calculation
 Variant of blocked Davidson
 Davidson routine will perform the subspace rotation
 perform sub-space diagonalisation
    after iterative eigenvector-optimisation
 modified Broyden-mixing scheme, WC =      100.0
 initial mixing is a Kerker type mixing with AMIX =  0.4000 and BMIX =      1.0000
 Hartree-type preconditioning will be used
 using additional bands           159
 reciprocal scheme for non local part
 use partial core corrections
 calculate Harris-corrections to forces 
   (improved forces if not selfconsistent)
 use gradient corrections 
 use of overlap-Matrix (Vanderbilt PP)
 Gauss-broadening in eV      SIGMA  =   0.01


--------------------------------------------------------------------------------------------------------


  energy-cutoff  :      400.00
  volume of cell :    26085.03
      direct lattice vectors                 reciprocal lattice vectors
    32.372299194  0.000000000  0.000000000     0.030890608  0.000000000  0.000000000
     0.000000000 19.921413422  0.000000000     0.000000000  0.050197241  0.000000000
     0.000000000  0.000000000 40.448047638     0.000000000  0.000000000  0.024723072

  length of vectors
    32.372299194 19.921413422 40.448047638     0.030890608  0.050197241  0.024723072


 
 k-points in units of 2pi/SCALE and weight: KPOINTS created by Atomic Simulation Env
   0.00000000  0.00000000  0.00000000       0.500
   0.00000000  0.00000000  0.01236154       0.500
 
 k-points in reciprocal lattice and weights: KPOINTS created by Atomic Simulation Env
   0.00000000  0.00000000  0.00000000       0.500
   0.00000000  0.00000000  0.50000000       0.500
 
 position of ions in fractional coordinates (direct lattice) 
   0.37092369  0.53831710  0.00246656
   0.36872515  0.54384859  0.06293098
   0.33798046  0.59500266  0.06111229
   0.32043002  0.61138838  0.02994417
   0.27774718  0.62874306  0.02812335
   0.36636262  0.54927762  0.12338820
   0.33456221  0.59869610  0.12155831
   0.31669299  0.61407304  0.09038689
   0.27366608  0.62901873  0.08855084
   0.25347309  0.62684941  0.05739439
   0.21201805  0.60289819  0.05558070
   0.19551318  0.58382378  0.02442941
   0.16794166  0.52810309  0.02262047
   0.36383368  0.55459422  0.18383924
   0.33102651  0.60223778  0.18199728
   0.31286590  0.61659213  0.15082189
   0.26955027  0.62912323  0.14897674
   0.24943274  0.62578774  0.11781622
   0.20851674  0.59950499  0.11600333
   0.19244389  0.57950455  0.08485007
   0.16608082  0.52226414  0.08303636
   0.15883508  0.49151914  0.05189181
   0.15488101  0.42031141  0.05007849
   0.15865061  0.38794371  0.01893454
   0.17830046  0.32397187  0.01713051
   0.36117524  0.55980561  0.24427970
   0.32740556  0.60563355  0.24242788
   0.30895837  0.61895195  0.21125122
   0.26540515  0.62905881  0.20940311
   0.24538453  0.62455641  0.17823804
   0.20506124  0.59595180  0.17642874
   0.18944064  0.57503534  0.14527402
   0.16432539  0.51632983  0.14345779
   0.15775503  0.48519015  0.11230964
   0.15531438  0.41380160  0.11049980
   0.15977809  0.38166683  0.07935196
   0.18076472  0.31882702  0.07754492
   0.19494829  0.29526735  0.04640523
   0.23310841  0.25967537  0.04459171
   0.25278545  0.25169506  0.01344638
   0.29676500  0.25391772  0.01164580
   0.37027380  0.53838355  0.33588969
   0.35841027  0.56491908  0.30470917
   0.32373187  0.60891595  0.30285273
   0.30500654  0.62116401  0.27167702
   0.26126233  0.62881594  0.26983314
   0.24134886  0.62314701  0.23866682
   0.20167473  0.59223470  0.23686043
   0.18652886  0.57040919  0.20570402
   0.16270956  0.51029337  0.20388798
   0.15680635  0.47880398  0.17273608
   0.15588023  0.40732050  0.17092961
   0.16101266  0.37545636  0.13977725
   0.18330545  0.31381371  0.13796392
   0.19799492  0.29106867  0.10682401
   0.23688575  0.25762858  0.10501870
   0.25674096  0.25076730  0.07387776
   0.30064809  0.25546028  0.07208828
   0.31976120  0.26650134  0.04093841
   0.35563504  0.30790710  0.03912691
   0.36834142  0.33356238  0.00796067
   0.38552410  0.39938957  0.00615575
   0.36796981  0.54405150  0.39630310
   0.35556068  0.56992975  0.36512869
   0.32001344  0.61205960  0.36327913
   0.30103397  0.62324267  0.33210428
   0.25714984  0.62839046  0.33027240
   0.23736542  0.62153618  0.29910521
   0.19840320  0.58831601  0.29730069
   0.18372883  0.56563531  0.26614449
   0.16123977  0.50417689  0.26433083
   0.15600469  0.47237458  0.23317345
   0.15659101  0.40088167  0.23136758
   0.16238032  0.36932140  0.20021134
   0.18593557  0.30892957  0.19839095
   0.20109266  0.28701530  0.16724757
   0.24065940  0.25574078  0.16545020
   0.26066900  0.25002064  0.13431205
   0.30444860  0.25718264  0.13253001
   0.32334226  0.26930487  0.10139034
   0.35831240  0.31270864  0.09959325
   0.37049087  0.33906534  0.06843280
   0.38626633  0.40581587  0.06663592
   0.38811790  0.43859895  0.03546148
   0.37995754  0.50886098  0.03363725
   0.36559993  0.54961026  0.45670311
   0.35267048  0.57483756  0.42554299
   0.31627418  0.61500782  0.42371091
   0.29704366  0.62512532  0.39253976
   0.25307436  0.62773112  0.39072260
   0.23343987  0.61972389  0.35955389
   0.19525119  0.58420571  0.35774832
   0.18108053  0.56067040  0.32659193
   0.15994839  0.49795635  0.32478188
   0.15537266  0.46589099  0.29361880
   0.15744673  0.39446927  0.29181105
   0.16387356  0.36324799  0.26065008
   0.18864627  0.30415567  0.25882360
   0.20425607  0.28309309  0.22767619
   0.24444908  0.25400156  0.22588312
   0.26457773  0.24943267  0.19474752
   0.30817816  0.25907807  0.19297028
   0.32681237  0.27229545  0.16183952
   0.36082573  0.31766588  0.16005794
   0.37246333  0.34469425  0.12890351
   0.38679987  0.41229561  0.12710890
   0.38799188  0.44515736  0.09593806
   0.37835368  0.51492397  0.09410589
   0.36326706  0.55487545  0.51713682
   0.34971578  0.57941742  0.48598776
   0.31251102  0.61752157  0.48416511
   0.29305981  0.62665695  0.45299258
   0.24906135  0.62673255  0.45118576
   0.22959899  0.61764300  0.42001556
   0.19222836  0.57989392  0.41820391
   0.17857625  0.55555370  0.38704501
   0.15880982  0.49167205  0.38523838
   0.15490514  0.45936732  0.35407360
   0.15844876  0.38809691  0.35226262
   0.16549511  0.35724392  0.32109643
   0.19144749  0.29950217  0.31926680
   0.20747351  0.27930388  0.28811215
   0.24825068  0.25243568  0.28632035
   0.26847274  0.24901772  0.25518736
   0.31183632  0.26116725  0.25340956
   0.33018481  0.27546016  0.22228504
   0.36318312  0.32276918  0.22051646
   0.37425076  0.35044393  0.18936954
   0.38713014  0.41881764  0.18757301
   0.38765444  0.45172041  0.15640593
   0.37655609  0.52090791  0.15456876
   0.36086747  0.55991413  0.57754003
   0.34678262  0.58375453  0.54642761
   0.30873788  0.61969340  0.54462006
   0.28907874  0.62778859  0.51346743
   0.24510674  0.62537661  0.51165957
   0.22584026  0.61522701  0.48048528
   0.18930655  0.57538599  0.47866407
   0.17619105  0.55029222  0.44749961
   0.15781099  0.48533111  0.44569498
   0.15459454  0.45281993  0.41453045
   0.15961137  0.38178440  0.41271690
   0.16726506  0.35132105  0.38154823
   0.19436158  0.29498335  0.37972078
   0.21077546  0.27566335  0.34855694
   0.25208738  0.25105242  0.34676119
   0.27236770  0.24879852  0.31562618
   0.31543512  0.26345032  0.31384502
   0.33345752  0.27881781  0.28272519
   0.36538512  0.32802834  0.28096414
   0.37586642  0.35631219  0.24982601
   0.38727347  0.42536942  0.24802455
   0.38712601  0.45827404  0.21686103
   0.37459561  0.52681139  0.21502090
   0.35838327  0.56482307  0.63796216
   0.34374973  0.58777358  0.60684489
   0.30494849  0.62148648  0.60506092
   0.28510956  0.62854584  0.57391703
   0.24120951  0.62369860  0.57211628
   0.22214433  0.61255282  0.54095339
   0.18646503  0.57070438  0.53912564
   0.17390070  0.54489104  0.50795874
   0.15690697  0.47894627  0.50615273
   0.15440471  0.44627207  0.47498695
   0.16089844  0.37555745  0.47317147
   0.16917730  0.34551507  0.44200653
   0.19740193  0.29065744  0.44018808
   0.21417315  0.27219926  0.40901521
   0.25597001  0.24985043  0.40720986
   0.27627172  0.24875798  0.37606679
   0.31898829  0.26591974  0.37427621
   0.33665377  0.28235248  0.34315964
   0.36746406  0.33341061  0.34139789
   0.37731438  0.36229396  0.31026738
   0.38724262  0.43194820  0.30845937
   0.38642269  0.46482131  0.27730165
   0.37249728  0.53264047  0.27546149
   0.35582727  0.56958911  0.69839374
   0.34067931  0.59165380  0.66727111
   0.30115704  0.62308782  0.66550154
[...]
  253        strkin                                0.018571                            1   3
  254          m_sumb_d                              0.001161                          1   4
  255        strelo                                0.019628                            1   3
  256          m_sumb_d                              0.000437                          2   4
  257        strenl                               91.814132                            1   3
  258          spher                                 1.192762                         19   4
  259          phase                                 0.000005                          9   4
  260          proj1                                87.641167                        252   4
  261            crexp_mul_wave                       21.317952                    92484   5
  262            m_sumb_d                             22.470655                      252   5
  263          m_sumb_d                              2.977195                          1   4
  264        m_sumb_d                              0.000521                            6   3
  265        fft3d_mpi                             0.134083                           11   3
  266          fftbrc_mpi                            0.129389                         11   4
  267            fftbas_plan_mpi                       0.129383                       11   5
  268              dfftw_execute                         0.038404                     33   6
  269              map_forward                           0.045717                     10   6
  270                map_gather                            0.006448                    5   7
  271                m_alltoallv_z                         0.030644                    5   7
  272                map_scatter                           0.008551                    5   7
  273              map_backward                          0.045024                     12   6
  274                map_gather                            0.009892                    6   7
  275                m_alltoallv_z                         0.029565                    6   7
  276                map_scatter                           0.005482                    6   7
  277        ggaall_grid                           0.098113                            1   3
  278        forhar                                0.291518                            2   3
  279          m_sumb_d                              0.004970                          2   4
  280        strehar                               0.009682                            1   3
  281          m_sumb_d                              0.000125                          1   4
  282        chggra                                0.054667                            1   3
  283          fft3d_mpi                             0.038366                          3   4
  284            fftbrc_mpi                            0.037877                        3   5
  285              fftbas_plan_mpi                       0.037873                      3   6
  286                dfftw_execute                         0.010489                    9   7
  287                map_backward                          0.007593                    2   7
  288                  map_gather                            0.001337                  1   8
  289                  m_alltoallv_z                         0.005476                  1   8
  290                  map_scatter                           0.000764                  1   8
  291                map_forward                           0.019743                    4   7
  292                  map_gather                            0.002293                  2   8
  293                  m_alltoallv_z                         0.014537                  2   8
  294                  map_scatter                           0.002891                  2   8
  295          m_sumb_d                              0.000030                          2   4
  296          pothar                                0.003606                          1   4
  297            m_sumb_d                              0.000746                        1   5
  298        brmix                                 0.097420                            1   3
  299          m_sumb_d                              0.011488                          6   4
  300          brpre                                 0.000061                          1   4
  301          setg0                                 0.002014                          1   4
  302          broyd                                 0.004019                          1   4
  303            m_sumb_d                              0.000647                       32   5
  304            brsav                                 0.000192                       31   5
  305            brget                                 0.000811                      134   5
  306          m_bcast_z                             0.077533                          1   4
  307          m_bcast_d                             0.000061                          1   4
  308        m_bcast_d                             0.213769                            2   3
  309      potlok                                0.325214                              1   2
  310        fft3d_mpi                             0.153670                           13   3
  311          fftbrc_mpi                            0.148667                         13   4
  312            fftbas_plan_mpi                       0.148657                       13   5
  313              dfftw_execute                         0.045780                     39   6
  314              map_forward                           0.052887                     14   6
  315                map_gather                            0.006005                    8   7
  316                m_alltoallv_z                         0.034063                    8   7
  317                map_scatter                           0.012704                    8   7
  318              map_backward                          0.049732                     12   6
  319                map_gather                            0.009979                    6   7
  320                m_alltoallv_z                         0.033910                    6   7
  321                map_scatter                           0.005756                    6   7
  322        ggaall_grid                           0.098016                            1   3
  323        m_sumb_d                              0.001470                            5   3
  324        pothar                                0.003981                            1   3
  325          m_sumb_d                              0.000913                          1   4
  326        m_bcast_d                             0.014276                            1   3
  327      potlok_metagga                        0.000000                              1   2
  328      set_dd_magatom                        0.000000                              1   2
  329      set_dd_paw                            0.001171                              1   2
  330        set_rsgf_all                          0.000000                            1   3
  331        m_sumb_d                              0.000597                            8   3
  332      m_alltoall_d                         49.645517                          19858   2
  333      densta                                0.023824                              1   2
  334        m_sumb_d                              0.000506                           12   3
  335        m_alltoall_d                          0.018383                          134   3
 
 Flat profile
 ============
 
             routine name                   CPU           calls
 ---------------------------------------------------------------
 gemm                                  544.280858      927776
 proj1                                 395.755875        1968
 work_mul_crexp                        379.739820      927776
 crexp_mul_wave                        235.428331      722256
 m_alltoall_d                          176.872214       59640
 dfftw_execute                         144.977856       18300
 m_alltoallv_z                         127.993154        6153
 m_sumb_d                               81.821975       14599
 total_time                             73.173689           1
 orth1                                  56.842399        7612
 ggemm                                  48.891164        3368
 fornl                                  42.986839           1
 vhamil                                 31.256155        2528
 m_bcast_z                              19.626996        4435
 lincom                                 18.757478          31
 fftwav_mpi                             15.831675        3152
 eddav                                  15.550649          30
 map_gather                             12.958386        6153
 map_scatter                            12.183518        6153
 wfinit                                 11.235475           1
 fftext_mpi                              9.752124        2528
 map_forward                             7.312116        6702
 lapack                                  4.723264        2528
 eccp                                    4.430794         840
 pdssyex_zheevx                          4.328097          30
 pw_charge                               3.717878         624
 vnlac0                                  2.951982        2528
 redis_pw                                2.520071        6806
 force_and_stress                        2.341060           1
 ggaall_grid                             2.116066          28
 w1_copy                                 1.650470        7584
 potlok                                  1.387652          27
 spher                                   1.269283          20
 apply_precond                           0.875896        1688
 hamiltmu                                0.791214        2528
 sphpro_fast                             0.778502           2
 m_bcast_d                               0.720571        5114
 phase                                   0.684163          42
 kinhamil                                0.608505        2528
 setup_precond                           0.502548         840
 soft_charge                             0.490368          26
 elmin                                   0.298986           1
 stufak                                  0.287017           1
 forhar                                  0.286548           2
 forloc                                  0.280485           1
 fftbas_plan_mpi                         0.230680        6100
 fft3d_mpi                               0.191258        6100
 augmentation_charge                     0.120660          26
 setdij_                                 0.102199          54
 pothar                                  0.090114          28
 brmix                                   0.082848          26
 choleski                                0.063364           1
 overl1                                  0.058471        2528
 setg0                                   0.053506          27
 redis_proj                              0.038575        8495
 overl                                   0.035390        4217
 broyd                                   0.032162          26
 fft_gq                                  0.027472          26
 map_backward                            0.025657        5498
 strelo                                  0.019191           1
 set_charge                              0.017547          26
 strkin                                  0.017410           1
 set_dd_paw                              0.016599          28
 newband                                 0.015135        2558
 brget                                   0.012772        1853
 chggra                                  0.012665           1
 strehar                                 0.009557           1
 densta                                  0.009378          31
 w1_projall                              0.008487        1688
 orthch                                  0.006909           1
 inisym                                  0.006142           1
 fftbas_mpi                              0.005964        5680
 depsum                                  0.005350          26
 rsp                                     0.004516           1
 strenl                                  0.003003           1
 brsav                                   0.002785         460
 fewald                                  0.001889           1
 brpre                                   0.001553          26
 truncate_high_frequency_w1              0.000874        3368
 brgrid                                  0.000368           1
 fftbrc_mpi                              0.000304         420
 rcp                                     0.000301           1
 posmap                                  0.000130           2
 proj                                    0.000102           1
 fordep                                  0.000064           1
 crpa_reader                             0.000029           1
 set_rsgf_all                            0.000016          28
 FERMAT_RAZOR                            0.000013           1
 potlok_metagga                          0.000010          27
 vectorpot                               0.000010          27
 proall                                  0.000006           1
 set_dd_magatom                          0.000001          28
 rotate_active_occupied_orbital          0.000000           1
 redis_pw_over_bands                     0.000000           1
 ---------------------------------------------------------------
  summed up times     2502.601600885391     
 
 Accumulative profile
 ====================
 
             routine name                   CPU           calls
 ---------------------------------------------------------------
 total_time                           2502.601601           1
 elmin                                2194.635435           1
 eddav                                2153.230581          30
 hamiltmu                             1156.888695        2528
 vnlac0                                927.862556        2528
 proj1                                 704.254852        1968
 w1_projall                            606.803470        1688
 gemm                                  544.280858      927776
 work_mul_crexp                        379.739820      927776
 fft3d_mpi                             305.878894        6100
 fftbas_plan_mpi                       305.681368        6100
 fftbas_mpi                            300.218503        5680
 crexp_mul_wave                        235.428331      722256
 kinhamil                              196.920300        2528
 fftext_mpi                            196.311794        2528
 m_alltoall_d                          176.872214       59640
 dfftw_execute                         144.977856       18300
 force_and_stress                      140.517929           1
 fftwav_mpi                            129.500680        3152
 m_alltoallv_z                         127.993154        6153
 map_backward                          127.581844        5498
 strenl                                 91.814132           1
 m_sumb_d                               81.821975       14599
 redis_proj                             74.435423        8495
 orth1                                  56.842399        7612
 ggemm                                  48.891164        3368
 fornl                                  43.835444           1
 redis_pw                               43.444980        6806
 newband                                41.984228        2558
 map_forward                            32.890987        6702
 set_charge                             32.384289          26
 soft_charge                            31.846217          26
 vhamil                                 31.256155        2528
 wfinit                                 30.244216           1
 m_bcast_z                              19.626996        4435
 lincom                                 18.757478          31
 map_gather                             12.958386        6153
 map_scatter                            12.183518        6153
 proall                                 10.502962           1
 proj                                    9.818803           1
 potlok                                  8.540497          27
 fftbrc_mpi                              5.469133         420
 lapack                                  4.723264        2528
 eccp                                    4.684580         840
 pdssyex_zheevx                          4.328110          30
 pw_charge                               3.717878         624
 ggaall_grid                             2.116066          28
 w1_copy                                 1.650470        7584
 orthch                                  1.355041           1
 spher                                   1.269283          20
 densta                                  1.131540          31
 sphpro_fast                             1.058841           2
 apply_precond                           0.875896        1688
 m_bcast_d                               0.720571        5114
 phase                                   0.684163          42
 brmix                                   0.590278          26
 setup_precond                           0.519188         840
 augmentation_charge                     0.501656          26
 fft_gq                                  0.454206          26
 forhar                                  0.291518           2
 stufak                                  0.287017           1
 forloc                                  0.286800           1
 setdij_                                 0.181766          54
 fewald                                  0.159668           1
 pothar                                  0.113352          28
 choleski                                0.063364           1
 overl1                                  0.058471        2528
 broyd                                   0.057443          26
 chggra                                  0.054667           1
 setg0                                   0.053506          27
 overl                                   0.035390        4217
 set_dd_paw                              0.035266          28
 strelo                                  0.019628           1
 depsum                                  0.018870          26
 strkin                                  0.018571           1
 fordep                                  0.016515           1
 brget                                   0.012772        1853
 strehar                                 0.009682           1
 inisym                                  0.006272           1
 rsp                                     0.004516           1
 brsav                                   0.002785         460
 brpre                                   0.001553          26
 truncate_high_frequency_w1              0.000874        3368
 brgrid                                  0.000368           1
 rcp                                     0.000301           1
 posmap                                  0.000130           2
 crpa_reader                             0.000029           1
 set_rsgf_all                            0.000016          28
 FERMAT_RAZOR                            0.000013           1
 potlok_metagga                          0.000010          27
 vectorpot                               0.000010          27
 set_dd_magatom                          0.000001          28
 rotate_active_occupied_orbital          0.000000           1
 redis_pw_over_bands                     0.000000           1
 ---------------------------------------------------------------
 
Profiling took   1.323599  0.525843  0.004312  0.004263 seconds
Profiling took   1.271776 seconds
