 vasp.6.4.2 20Jul23 (build Oct 12 2023 10:31:02) complex                         
 executed on              LinuxNV date 2025.05.19  15:54:29
 running  160 mpi-ranks, with    1 threads/rank, on   10 nodes
 distrk:  each k-point on   80 cores,    2 groups
 distr:  one band on NCORE=   5 cores,   16 groups


--------------------------------------------------------------------------------------------------------


 INCAR:
   ENCUT = 360.000000
   SIGMA = 0.050000
   EDIFF = 1.00e-06
   ALGO = Normal
   GGA = PE
   PREC = Normal
   SYSTEM = ./
   ICHARG = 2
   ISMEAR = 0
   ISPIN = 1
   ISTART = 0
   ISYM = 0
   KPAR = 2
   LMAXMIX = 4
   NELM = 100
   NPAR = 16
   LASPH = .TRUE.
   LCHARG = .FALSE.
   LWAVE = .FALSE.

 POTCAR:    PAW_PBE Ge 05Jan2001                  
 POTCAR:    PAW_PBE Se 06Sep2000                  
 POTCAR:    PAW_PBE Ge 05Jan2001                  
   VRHFIN =Ge: s2p2                                                                                 
   LEXCH  = PE                                                                                      
   EATOM  =   104.9960 eV,    7.7170 Ry                                                             
                                                                                                    
   TITEL  = PAW_PBE Ge 05Jan2001                                                                    
   LULTRA =        F    use ultrasoft PP ?                                                          
   IUNSCR =        1    unscreen: 0-lin 1-nonlin 2-no                                               
   RPACOR =    2.170    partial core radius                                                         
   POMASS =   72.610; ZVAL   =    4.000    mass and valenz                                          
   RCORE  =    2.300    outmost cutoff radius                                                       
   RWIGS  =    2.300; RWIGS  =    1.217    wigner-seitz radius (au A)                               
   ENMAX  =  173.807; ENMIN  =  130.355 eV                                                          
   ICORE  =        3    local potential                                                             
   LCOR   =        T    correct aug charges                                                         
   LPAW   =        T    paw PP                                                                      
   EAUG   =  385.843                                                                                
   DEXC   =    0.000                                                                                
   RMAX   =    2.342    core radius for proj-oper                                                   
   RAUG   =    1.300    factor for augmentation sphere                                              
   RDEP   =    2.318    radius for radial grids                                                     
   RDEPT  =    2.103    core radius for aug-charge                                                  
                                                                                                    
   Atomic configuration                                                                             
   10 entries                                                                                       
     n  l   j            E        occ.                                                              
     1  0  0.50    -10959.8463   2.0000                                                             
     2  0  0.50     -1371.6056   2.0000                                                             
     2  1  1.50     -1198.4791   6.0000                                                             
     3  0  0.50      -168.4733   2.0000                                                             
     3  1  1.50      -115.6019   6.0000                                                             
     3  2  2.50       -29.3106  10.0000                                                             
     4  0  0.50       -11.7309   2.0000                                                             
     4  1  0.50        -3.8952   2.0000                                                             
     4  2  1.50        -4.0817   0.0000                                                             
     4  3  2.50        -4.0817   0.0000                                                             
   Description                                                                                      
     l       E           TYP  RCUT    TYP  RCUT                                                     
     0    -11.7309493     23  2.300                                                                 
     0     -7.4578696     23  2.300                                                                 
     1     -3.8952261     23  2.300                                                                 
     1      6.1178114     23  2.300                                                                 
     2     -4.0817478     23  2.300                                                                 
     3     -1.3605826      7  2.300                                                                 
  local pseudopotential read in
  partial core-charges read in
  partial kinetic energy density read in
  atomic valenz-charges read in
  non local Contribution for L=            0  read in
    real space projection operators read in
  non local Contribution for L=            0  read in
    real space projection operators read in
  non local Contribution for L=            1  read in
    real space projection operators read in
  non local Contribution for L=            1  read in
    real space projection operators read in
  non local Contribution for L=            2  read in
    real space projection operators read in
    PAW grid and wavefunctions read in
 
   number of l-projection  operators is LMAX  =            5
   number of lm-projection operators is LMMAX =           13
 
 POTCAR:    PAW_PBE Se 06Sep2000                  
   VRHFIN =Se: s2p4                                                                                 
   LEXCH  = PE                                                                                      
   EATOM  =   257.1286 eV,   18.8984 Ry                                                             
                                                                                                    
   TITEL  = PAW_PBE Se 06Sep2000                                                                    
   LULTRA =        F    use ultrasoft PP ?                                                          
   IUNSCR =        1    unscreen: 0-lin 1-nonlin 2-no                                               
   RPACOR =    1.900    partial core radius                                                         
   POMASS =   78.960; ZVAL   =    6.000    mass and valenz                                          
   RCORE  =    2.100    outmost cutoff radius                                                       
   RWIGS  =    2.200; RWIGS  =    1.164    wigner-seitz radius (au A)                               
   ENMAX  =  211.555; ENMIN  =  158.666 eV                                                          
   ICORE  =        3    local potential                                                             
   LCOR   =        T    correct aug charges                                                         
   LPAW   =        T    paw PP                                                                      
   EAUG   =  446.842                                                                                
   DEXC   =    0.000                                                                                
   RMAX   =    2.147    core radius for proj-oper                                                   
   RAUG   =    1.300    factor for augmentation sphere                                              
   RDEP   =    2.177    radius for radial grids                                                     
   RDEPT  =    1.928    core radius for aug-charge                                                  
                                                                                                    
   Atomic configuration                                                                             
   10 entries                                                                                       
     n  l   j            E        occ.                                                              
     1  0  0.50    -12503.4787   2.0000                                                             
     2  0  0.50     -1606.9547   2.0000                                                             
     2  1  1.50     -1413.3140   6.0000                                                             
     3  0  0.50      -213.4885   2.0000                                                             
     3  1  1.50      -152.9538   6.0000                                                             
     3  2  2.50       -53.1221  10.0000                                                             
     4  0  0.50       -17.2865   2.0000                                                             
     4  1  0.50        -6.5110   4.0000                                                             
     4  2  2.50        -6.8029   0.0000                                                             
     4  3  2.50        -6.8029   0.0000                                                             
   Description                                                                                      
     l       E           TYP  RCUT    TYP  RCUT                                                     
     0    -17.2865377     23  2.100                                                                 
     0    -15.3094411     23  2.100                                                                 
     1     -6.5110275     23  2.100                                                                 
     1     -0.0695192     23  2.100                                                                 
     2     -6.8029130     23  2.100                                                                 
     3     -1.3605826      7  2.100                                                                 
  local pseudopotential read in
  partial core-charges read in
  partial kinetic energy density read in
  atomic valenz-charges read in
  non local Contribution for L=            0  read in
    real space projection operators read in
  non local Contribution for L=            0  read in
    real space projection operators read in
  non local Contribution for L=            1  read in
    real space projection operators read in
  non local Contribution for L=            1  read in
    real space projection operators read in
  non local Contribution for L=            2  read in
    real space projection operators read in
    PAW grid and wavefunctions read in
 
   number of l-projection  operators is LMAX  =            5
   number of lm-projection operators is LMMAX =           13
 
  PAW_PBE Ge 05Jan2001                  :
 energy of atom  1       EATOM= -104.9960
 kinetic energy error for atom=    0.0005 (will be added to EATOM!!)
  PAW_PBE Se 06Sep2000                  :
 energy of atom  2       EATOM= -257.1286
 kinetic energy error for atom=    0.0030 (will be added to EATOM!!)
 
 
 POSCAR: Ge Se
  positions in cartesian coordinates
  No initial velocities read in
 exchange correlation table for  LEXCH =        8
   RHO(1)=    0.500       N(1)  =     2000
   RHO(2)=  100.500       N(2)  =     4000
 


--------------------------------------------------------------------------------------------------------


 ion  position               nearest neighbor table
   1  0.975  0.806  0.132-   5 2.59   6 2.60   6 2.60
   2  0.475  0.306  0.368-   6 2.59   5 2.60   5 2.60
   3  0.750  0.904  0.868-   7 2.59   8 2.60   8 2.60
   4  0.250  0.404  0.632-   8 2.59   7 2.60   7 2.60
   5  0.975  0.690  0.351-   1 2.59   2 2.60   2 2.60
   6  0.475  0.190  0.149-   2 2.59   1 2.60   1 2.60
   7  0.750  0.021  0.649-   3 2.59   4 2.60   4 2.60
   8  0.250  0.521  0.851-   4 2.59   3 2.60   3 2.60
 

IMPORTANT INFORMATION: All symmetrisations will be switched off!
NOSYMM: (Re-)initialisation of all symmetry stuff for point group C_1.


----------------------------------------------------------------------------------------

                                     Primitive cell                                     

  volume of cell :     202.3233

  direct lattice vectors                    reciprocal lattice vectors
     3.858100176  0.000000000  0.000000000     0.259194929  0.000000000  0.000000000
     0.000000000  4.526575088  0.000000000     0.000000000  0.220917577  0.000000000
     0.000000000  0.000000000 11.585176468     0.000000000  0.000000000  0.086317200

  length of vectors
     3.858100176  4.526575088 11.585176468     0.259194929  0.220917577  0.086317200

  position of ions in fractional coordinates (direct lattice)
     0.974637684  0.806388285  0.131971745
     0.474637648  0.306388272  0.368028228
     0.749999855  0.903756548  0.868028249
     0.249999781  0.403756501  0.631971759
     0.974637668  0.689610632  0.351109927
     0.474637685  0.189610653  0.148890049
     0.749999761  0.020534152  0.648890076
     0.249999838  0.520534176  0.851109946

  ion indices of the primitive-cell ions
   primitive index   ion index
                 1           1
                 2           2
                 3           3
                 4           4
                 5           5
                 6           6
                 7           7
                 8           8

----------------------------------------------------------------------------------------

 
 
 KPOINTS: KPOINTS created by Atomic Simulation Env

Automatic generation of k-mesh.
 Grid dimensions read from file:
 generate k-points for:    6    6    2

 Generating k-lattice:

  Cartesian coordinates                     Fractional coordinates (reciprocal lattice)
     0.043199155  0.000000000  0.000000000     0.166666667  0.000000000  0.000000000
     0.000000000  0.036819596  0.000000000     0.000000000  0.166666667  0.000000000
     0.000000000  0.000000000  0.043158600     0.000000000  0.000000000  0.500000000

  Length of vectors
     0.043199155  0.036819596  0.043158600

  Shift w.r.t. Gamma in fractional coordinates (k-lattice)
     0.000000000  0.000000000  0.000000000

 
 Subroutine IBZKPT returns following result:
 ===========================================
 
 Found     40 irreducible k-points:
 
 Following reciprocal coordinates:
            Coordinates               Weight
  0.000000  0.000000  0.000000      1.000000
  0.166667  0.000000  0.000000      2.000000
  0.333333  0.000000  0.000000      2.000000
  0.500000  0.000000  0.000000      1.000000
  0.000000  0.166667  0.000000      2.000000
  0.166667  0.166667  0.000000      2.000000
  0.166667 -0.166667  0.000000      2.000000
  0.333333  0.166667  0.000000      2.000000
  0.333333 -0.166667  0.000000      2.000000
  0.500000  0.166667  0.000000      2.000000
  0.000000  0.333333  0.000000      2.000000
  0.166667  0.333333  0.000000      2.000000
  0.166667 -0.333333  0.000000      2.000000
  0.333333  0.333333  0.000000      2.000000
  0.333333 -0.333333  0.000000      2.000000
  0.500000  0.333333  0.000000      2.000000
  0.000000  0.500000  0.000000      1.000000
  0.166667  0.500000  0.000000      2.000000
  0.333333  0.500000  0.000000      2.000000
  0.500000  0.500000  0.000000      1.000000
  0.000000  0.000000  0.500000      1.000000
  0.166667  0.000000  0.500000      2.000000
  0.333333  0.000000  0.500000      2.000000
  0.500000  0.000000  0.500000      1.000000
  0.000000  0.166667  0.500000      2.000000
  0.166667  0.166667  0.500000      2.000000
  0.166667 -0.166667  0.500000      2.000000
  0.333333  0.166667  0.500000      2.000000
  0.333333 -0.166667  0.500000      2.000000
  0.500000  0.166667  0.500000      2.000000
  0.000000  0.333333  0.500000      2.000000
  0.166667  0.333333  0.500000      2.000000
  0.166667 -0.333333  0.500000      2.000000
  0.333333  0.333333  0.500000      2.000000
  0.333333 -0.333333  0.500000      2.000000
  0.500000  0.333333  0.500000      2.000000
  0.000000  0.500000  0.500000      1.000000
  0.166667  0.500000  0.500000      2.000000
  0.333333  0.500000  0.500000      2.000000
  0.500000  0.500000  0.500000      1.000000
 
 Following cartesian coordinates:
            Coordinates               Weight
  0.000000  0.000000  0.000000      1.000000
  0.043199  0.000000  0.000000      2.000000
  0.086398  0.000000  0.000000      2.000000
  0.129597  0.000000  0.000000      1.000000
  0.000000  0.036820  0.000000      2.000000
  0.043199  0.036820  0.000000      2.000000
  0.043199 -0.036820  0.000000      2.000000
  0.086398  0.036820  0.000000      2.000000
  0.086398 -0.036820  0.000000      2.000000
  0.129597  0.036820  0.000000      2.000000
  0.000000  0.073639  0.000000      2.000000
  0.043199  0.073639  0.000000      2.000000
  0.043199 -0.073639  0.000000      2.000000
  0.086398  0.073639  0.000000      2.000000
  0.086398 -0.073639  0.000000      2.000000
  0.129597  0.073639  0.000000      2.000000
  0.000000  0.110459  0.000000      1.000000
  0.043199  0.110459  0.000000      2.000000
  0.086398  0.110459  0.000000      2.000000
  0.129597  0.110459  0.000000      1.000000
  0.000000  0.000000  0.043159      1.000000
  0.043199  0.000000  0.043159      2.000000
  0.086398  0.000000  0.043159      2.000000
  0.129597  0.000000  0.043159      1.000000
  0.000000  0.036820  0.043159      2.000000
  0.043199  0.036820  0.043159      2.000000
  0.043199 -0.036820  0.043159      2.000000
  0.086398  0.036820  0.043159      2.000000
  0.086398 -0.036820  0.043159      2.000000
  0.129597  0.036820  0.043159      2.000000
  0.000000  0.073639  0.043159      2.000000
  0.043199  0.073639  0.043159      2.000000
  0.043199 -0.073639  0.043159      2.000000
  0.086398  0.073639  0.043159      2.000000
  0.086398 -0.073639  0.043159      2.000000
  0.129597  0.073639  0.043159      2.000000
  0.000000  0.110459  0.043159      1.000000
  0.043199  0.110459  0.043159      2.000000
  0.086398  0.110459  0.043159      2.000000
  0.129597  0.110459  0.043159      1.000000
 


--------------------------------------------------------------------------------------------------------




 Dimension of arrays:
   k-points           NKPTS =     40   k-points in BZ     NKDIM =     40   number of bands    NBANDS=     32
   number of dos      NEDOS =    301   number of ions     NIONS =      8
   non local maximal  LDIM  =      5   non local SUM 2l+1 LMDIM =     13
   total plane-waves  NPLWV =  23328
   max r-space proj   IRMAX =      1   max aug-charges    IRDMAX=   6465
   dimension x,y,z NGX =    18 NGY =   24 NGZ =   54
   dimension x,y,z NGXF=    36 NGYF=   48 NGZF=  108
   support grid    NGXF=    36 NGYF=   48 NGZF=  108
   ions per type =               4   4
   NGX,Y,Z   is equivalent  to a cutoff of   7.76,  8.81,  7.75 a.u.
   NGXF,Y,Z  is equivalent  to a cutoff of  15.51, 17.63, 15.50 a.u.

 SYSTEM =  ./                                      
 POSCAR =  Ge Se                                   

 Startparameter for this run:
   NWRITE =      2    write-flag & timer
   PREC   = normal    normal or accurate (medium, high low for compatibility)
   ISTART =      0    job   : 0-new  1-cont  2-samecut
   ICHARG =      2    charge: 1-file 2-atom 10-const
   ISPIN  =      1    spin polarized calculation?
   LNONCOLLINEAR =      F non collinear calculations
   LSORBIT =      F    spin-orbit coupling
   INIWAV =      1    electr: 0-lowe 1-rand  2-diag
   LASPH  =      T    aspherical Exc in radial PAW
 Electronic Relaxation 1
   ENCUT  =  360.0 eV  26.46 Ry    5.14 a.u.   5.97  7.00 17.92*2*pi/ulx,y,z
   ENINI  =  360.0     initial cutoff
   ENAUG  =  446.8 eV  augmentation charge cutoff
   NELM   =    100;   NELMIN=  2; NELMDL= -5     # of ELM steps 
   EDIFF  = 0.1E-05   stopping-criterion for ELM
   LREAL  =      F    real-space projection
   NLSPLINE    = F    spline interpolate recip. space projectors
   LCOMPAT=      F    compatible to vasp.4.4
   GGA_COMPAT  = T    GGA compatible to vasp.4.4-vasp.4.6
   LMAXPAW     = -100 max onsite density
   LMAXMIX     =    4 max onsite mixed and CHGCAR
   VOSKOWN=      0    Vosko Wilk Nusair interpolation
   ROPT   =    0.00000   0.00000
 Ionic relaxation
   EDIFFG = 0.1E-04   stopping-criterion for IOM
   NSW    =      0    number of steps for IOM
   NBLOCK =      1;   KBLOCK =      1    inner block; outer block 
   IBRION =     -1    ionic relax: 0-MD 1-quasi-New 2-CG
   NFREE  =      0    steps in history (QN), initial steepest desc. (CG)
   ISIF   =      2    stress and relaxation
   IWAVPR =     10    prediction:  0-non 1-charg 2-wave 3-comb
   ISYM   =      0    0-nonsym 1-usesym 2-fastsym
   LCORR  =      T    Harris-Foulkes like correction to forces

   POTIM  = 0.5000    time-step for ionic-motion
   TEIN   =    0.0    initial temperature
   TEBEG  =    0.0;   TEEND  =   0.0 temperature during run
   SMASS  =  -3.00    Nose mass-parameter (am)
   estimated Nose-frequenzy (Omega)   =  0.10E-29 period in steps = 0.13E+47 mass=  -0.340E-27a.u.
   SCALEE = 1.0000    scale energy and forces
   NPACO  =    256;   APACO  = 10.0  distance and # of slots for P.C.
   PSTRESS=    0.0 pullay stress

  Mass of Ions in am
   POMASS =  72.61 78.96
  Ionic Valenz
   ZVAL   =   4.00  6.00
  Atomic Wigner-Seitz radii
   RWIGS  =  -1.00 -1.00
  virtual crystal weights 
   VCA    =   1.00  1.00
   NELECT =      40.0000    total number of electrons
   NUPDOWN=      -1.0000    fix difference up-down

 DOS related values:
   EMIN   =  10.00;   EMAX   =-10.00  energy-range for DOS
   EFERMI =   0.00;   METHOD = LEGACY      
   ISMEAR =     0;   SIGMA  =   0.05  broadening in eV -4-tet -1-fermi 0-gaus

 Electronic relaxation 2 (details)
   IALGO  =     38    algorithm
   LDIAG  =      T    sub-space diagonalisation (order eigenvalues)
   LSUBROT=      F    optimize rotation matrix (better conditioning)
   TURBO    =      0    0=normal 1=particle mesh
   IRESTART =      0    0=no restart 2=restart with 2 vectors
   NREBOOT  =      0    no. of reboots
   NMIN     =      0    reboot dimension
   EREF     =   0.00    reference energy to select bands
   IMIX   =      4    mixing-type and parameters
     AMIX     =   0.40;   BMIX     =  1.00
     AMIX_MAG =   1.60;   BMIX_MAG =  1.00
     AMIN     =   0.10
     WC   =   100.;   INIMIX=   1;  MIXPRE=   1;  MAXMIX= -45

 Intra band minimization:
   WEIMIN = 0.0000     energy-eigenvalue tresh-hold
   EBREAK =  0.78E-08  absolut break condition
   DEPER  =   0.30     relativ break condition  

   TIME   =   0.40     timestep for ELM

  volume/ion in A,a.u.               =      25.29       170.67
  Fermi-wavevector in a.u.,A,eV,Ry     =   0.953702  1.802236 12.375155  0.909548
  Thomas-Fermi vector in A             =   2.082382
 
 Write flags
   LWAVE        =      F    write WAVECAR
   LDOWNSAMPLE  =      F    k-point downsampling of WAVECAR
   LCHARG       =      F    write CHGCAR
   LVTOT        =      F    write LOCPOT, total local potential
   LVHAR        =      F    write LOCPOT, Hartree potential only
   LELF         =      F    write electronic localiz. function (ELF)
   LORBIT       =      0    0 simple, 1 ext, 2 COOP (PROOUT), +10 PAW based schemes


 Dipole corrections
   LMONO  =      F    monopole corrections only (constant potential shift)
   LDIPOL =      F    correct potential (dipole corrections)
   IDIPOL =      0    1-x, 2-y, 3-z, 4-all directions 
   EPSILON=  1.0000000 bulk dielectric constant

 Exchange correlation treatment:
   GGA     =    PE    GGA type
   LEXCH   =     8    internal setting for exchange type
   LIBXC   =     F    Libxc                    
   VOSKOWN =     0    Vosko Wilk Nusair interpolation
   LHFCALC =     F    Hartree Fock is set to
   LHFONE  =     F    Hartree Fock one center treatment
   AEXX    =    0.0000 exact exchange contribution

 Linear response parameters
   LEPSILON=     F    determine dielectric tensor
   LRPA    =     F    only Hartree local field effects (RPA)
   LNABLA  =     F    use nabla operator in PAW spheres
   LVEL    =     F    velocity operator in full k-point grid
   CSHIFT  =0.1000    complex shift for real part using Kramers Kronig
   OMEGAMAX=  -1.0    maximum frequency
   DEG_THRESHOLD= 0.2000000E-02 threshold for treating states as degnerate
   RTIME   =   -0.100 relaxation time in fs
  (WPLASMAI=    0.000 imaginary part of plasma frequency in eV, 0.658/RTIME)
   DFIELD  = 0.0000000 0.0000000 0.0000000 field for delta impulse in time
 
  Optional k-point grid parameters
   LKPOINTS_OPT  =     F    use optional k-point grid
   KPOINTS_OPT_MODE=     1    mode for optional k-point grid
 
 Orbital magnetization related:
   ORBITALMAG=     F  switch on orbital magnetization
   LCHIMAG   =     F  perturbation theory with respect to B field
   DQ        =  0.001000  dq finite difference perturbation B field
   LLRAUG    =     F  two centre corrections for induced B field
   LBONE     =     F  B-component reconstruction in AE one-centre
   LVGVCALC  =     T  calculate vGv susceptibility
   LVGVAPPL  =     F  apply vGv susceptibility instead of pGv for G=0

 Random number generation:
   RANDOM_GENERATOR = DEFAULT
   PCG_SEED         = not used


--------------------------------------------------------------------------------------------------------


 Static calculation
 charge density and potential will be updated during run
 non-spin polarized calculation
 Variant of blocked Davidson
 Davidson routine will perform the subspace rotation
 perform sub-space diagonalisation
    after iterative eigenvector-optimisation
 modified Broyden-mixing scheme, WC =      100.0
 initial mixing is a Kerker type mixing with AMIX =  0.4000 and BMIX =      1.0000
 Hartree-type preconditioning will be used
 using additional bands            12
 reciprocal scheme for non local part
 use partial core corrections
 calculate Harris-corrections to forces 
   (improved forces if not selfconsistent)
 use gradient corrections 
 use of overlap-Matrix (Vanderbilt PP)
 Gauss-broadening in eV      SIGMA  =   0.05


--------------------------------------------------------------------------------------------------------


  energy-cutoff  :      360.00
  volume of cell :      202.32
      direct lattice vectors                 reciprocal lattice vectors
     3.858100176  0.000000000  0.000000000     0.259194929  0.000000000  0.000000000
     0.000000000  4.526575088  0.000000000     0.000000000  0.220917577  0.000000000
     0.000000000  0.000000000 11.585176468     0.000000000  0.000000000  0.086317200

  length of vectors
     3.858100176  4.526575088 11.585176468     0.259194929  0.220917577  0.086317200


 
 k-points in units of 2pi/SCALE and weight: KPOINTS created by Atomic Simulation Env
   0.00000000  0.00000000  0.00000000       0.014
   0.04319915  0.00000000  0.00000000       0.028
   0.08639831  0.00000000  0.00000000       0.028
   0.12959746  0.00000000  0.00000000       0.014
   0.00000000  0.03681960  0.00000000       0.028
   0.04319915  0.03681960  0.00000000       0.028
   0.04319915 -0.03681960  0.00000000       0.028
   0.08639831  0.03681960  0.00000000       0.028
   0.08639831 -0.03681960  0.00000000       0.028
   0.12959746  0.03681960  0.00000000       0.028
   0.00000000  0.07363919  0.00000000       0.028
   0.04319915  0.07363919  0.00000000       0.028
   0.04319915 -0.07363919  0.00000000       0.028
   0.08639831  0.07363919  0.00000000       0.028
   0.08639831 -0.07363919  0.00000000       0.028
   0.12959746  0.07363919  0.00000000       0.028
   0.00000000  0.11045879  0.00000000       0.014
   0.04319915  0.11045879  0.00000000       0.028
   0.08639831  0.11045879  0.00000000       0.028
   0.12959746  0.11045879  0.00000000       0.014
   0.00000000  0.00000000  0.04315860       0.014
   0.04319915  0.00000000  0.04315860       0.028
   0.08639831  0.00000000  0.04315860       0.028
   0.12959746  0.00000000  0.04315860       0.014
   0.00000000  0.03681960  0.04315860       0.028
   0.04319915  0.03681960  0.04315860       0.028
   0.04319915 -0.03681960  0.04315860       0.028
   0.08639831  0.03681960  0.04315860       0.028
   0.08639831 -0.03681960  0.04315860       0.028
   0.12959746  0.03681960  0.04315860       0.028
   0.00000000  0.07363919  0.04315860       0.028
   0.04319915  0.07363919  0.04315860       0.028
   0.04319915 -0.07363919  0.04315860       0.028
   0.08639831  0.07363919  0.04315860       0.028
   0.08639831 -0.07363919  0.04315860       0.028
   0.12959746  0.07363919  0.04315860       0.028
   0.00000000  0.11045879  0.04315860       0.014
   0.04319915  0.11045879  0.04315860       0.028
   0.08639831  0.11045879  0.04315860       0.028
   0.12959746  0.11045879  0.04315860       0.014
 
 k-points in reciprocal lattice and weights: KPOINTS created by Atomic Simulation Env
   0.00000000  0.00000000  0.00000000       0.014
   0.16666667  0.00000000  0.00000000       0.028
   0.33333333  0.00000000  0.00000000       0.028
   0.50000000  0.00000000  0.00000000       0.014
   0.00000000  0.16666667  0.00000000       0.028
   0.16666667  0.16666667  0.00000000       0.028
   0.16666667 -0.16666667  0.00000000       0.028
   0.33333333  0.16666667  0.00000000       0.028
   0.33333333 -0.16666667  0.00000000       0.028
   0.50000000  0.16666667  0.00000000       0.028
   0.00000000  0.33333333  0.00000000       0.028
   0.16666667  0.33333333  0.00000000       0.028
   0.16666667 -0.33333333  0.00000000       0.028
   0.33333333  0.33333333  0.00000000       0.028
   0.33333333 -0.33333333  0.00000000       0.028
   0.50000000  0.33333333  0.00000000       0.028
   0.00000000  0.50000000  0.00000000       0.014
   0.16666667  0.50000000  0.00000000       0.028
   0.33333333  0.50000000  0.00000000       0.028
   0.50000000  0.50000000  0.00000000       0.014
   0.00000000  0.00000000  0.50000000       0.014
   0.16666667  0.00000000  0.50000000       0.028
   0.33333333  0.00000000  0.50000000       0.028
   0.50000000  0.00000000  0.50000000       0.014
   0.00000000  0.16666667  0.50000000       0.028
   0.16666667  0.16666667  0.50000000       0.028
   0.16666667 -0.16666667  0.50000000       0.028
   0.33333333  0.16666667  0.50000000       0.028
   0.33333333 -0.16666667  0.50000000       0.028
   0.50000000  0.16666667  0.50000000       0.028
   0.00000000  0.33333333  0.50000000       0.028
   0.16666667  0.33333333  0.50000000       0.028
   0.16666667 -0.33333333  0.50000000       0.028
   0.33333333  0.33333333  0.50000000       0.028
   0.33333333 -0.33333333  0.50000000       0.028
   0.50000000  0.33333333  0.50000000       0.028
   0.00000000  0.50000000  0.50000000       0.014
   0.16666667  0.50000000  0.50000000       0.028
   0.33333333  0.50000000  0.50000000       0.028
   0.50000000  0.50000000  0.50000000       0.014
 
 position of ions in fractional coordinates (direct lattice) 
   0.97463768  0.80638828  0.13197174
   0.47463765  0.30638827  0.36802823
   0.74999985  0.90375655  0.86802825
   0.24999978  0.40375650  0.63197176
   0.97463767  0.68961063  0.35110993
   0.47463768  0.18961065  0.14889005
   0.74999976  0.02053415  0.64889008
   0.24999984  0.52053418  0.85110995
 
 position of ions in cartesian coordinates  (Angst):
   3.76024982  3.65017712  1.52891595
   1.83119959  1.38688952  4.26367197
   2.89357457  4.09092188 10.05626045
   0.96452420  1.82763412  7.32150435
   3.76024976  3.12157431  4.06767047
   1.83119973  0.85828686  1.72491749
   2.89357421  0.09294938  7.51750603
   0.96452442  2.35623703  9.86025892
 


--------------------------------------------------------------------------------------------------------


 k-point   1 :   0.0000 0.0000 0.0000  plane waves:    3119
 k-point   2 :   0.1667 0.0000 0.0000  plane waves:    3116
 k-point   3 :   0.3333 0.0000 0.0000  plane waves:    3142
 k-point   4 :   0.5000 0.0000 0.0000  plane waves:    3148
 k-point   5 :   0.0000 0.1667 0.0000  plane waves:    3108
 k-point   6 :   0.1667 0.1667 0.0000  plane waves:    3123
 k-point   7 :   0.1667-0.1667 0.0000  plane waves:    3123
 k-point   8 :   0.3333 0.1667 0.0000  plane waves:    3135
 k-point   9 :   0.3333-0.1667 0.0000  plane waves:    3135
 k-point  10 :   0.5000 0.1667 0.0000  plane waves:    3138
 k-point  11 :   0.0000 0.3333 0.0000  plane waves:    3116
 k-point  12 :   0.1667 0.3333 0.0000  plane waves:    3133
 k-point  13 :   0.1667-0.3333 0.0000  plane waves:    3133
 k-point  14 :   0.3333 0.3333 0.0000  plane waves:    3155
 k-point  15 :   0.3333-0.3333 0.0000  plane waves:    3155
 k-point  16 :   0.5000 0.3333 0.0000  plane waves:    3152
 k-point  17 :   0.0000 0.5000 0.0000  plane waves:    3134
 k-point  18 :   0.1667 0.5000 0.0000  plane waves:    3140
 k-point  19 :   0.3333 0.5000 0.0000  plane waves:    3144
 k-point  20 :   0.5000 0.5000 0.0000  plane waves:    3144
 k-point  21 :   0.0000 0.0000 0.5000  plane waves:    3092
 k-point  22 :   0.1667 0.0000 0.5000  plane waves:    3124
 k-point  23 :   0.3333 0.0000 0.5000  plane waves:    3140
 k-point  24 :   0.5000 0.0000 0.5000  plane waves:    3132
 k-point  25 :   0.0000 0.1667 0.5000  plane waves:    3112
 k-point  26 :   0.1667 0.1667 0.5000  plane waves:    3140
 k-point  27 :   0.1667-0.1667 0.5000  plane waves:    3140
 k-point  28 :   0.3333 0.1667 0.5000  plane waves:    3134
 k-point  29 :   0.3333-0.1667 0.5000  plane waves:    3134
 k-point  30 :   0.5000 0.1667 0.5000  plane waves:    3144
 k-point  31 :   0.0000 0.3333 0.5000  plane waves:    3130
 k-point  32 :   0.1667 0.3333 0.5000  plane waves:    3148
 k-point  33 :   0.1667-0.3333 0.5000  plane waves:    3148
 k-point  34 :   0.3333 0.3333 0.5000  plane waves:    3142
 k-point  35 :   0.3333-0.3333 0.5000  plane waves:    3142
 k-point  36 :   0.5000 0.3333 0.5000  plane waves:    3152
 k-point  37 :   0.0000 0.5000 0.5000  plane waves:    3132
 k-point  38 :   0.1667 0.5000 0.5000  plane waves:    3148
 k-point  39 :   0.3333 0.5000 0.5000  plane waves:    3140
 k-point  40 :   0.5000 0.5000 0.5000  plane waves:    3160

 maximum and minimum number of plane-waves per node :       659      606

 maximum number of plane-waves:      3160
 maximum index in each direction: 
   IXMAX=    5   IYMAX=    7   IZMAX=   17
   IXMIN=   -6   IYMIN=   -7   IZMIN=  -18


 parallel 3D FFT for wavefunctions:
    minimum data exchange during FFTs selected (reduces bandwidth)
 parallel 3D FFT for charge:
    minimum data exchange during FFTs selected (reduces bandwidth)


 total amount of memory used by VASP MPI-rank0    37119. kBytes
=======================================================================

   base      :      30000. kBytes
   nonl-proj :       5406. kBytes
   fftplans  :        334. kBytes
   grid      :        503. kBytes
   one-center:         16. kBytes
   wavefun   :        860. kBytes
 
     INWAV:  cpu time      0.0000: real time      0.0001
 Broyden mixing: mesh for mixing (old mesh)
   NGX = 11   NGY = 15   NGZ = 35
  (NGX  = 36   NGY  = 48   NGZ  =108)
  gives a total of   5775 points

 initial charge density was supplied:
 charge density of overlapping atoms calculated
 number of electron      40.0000000 magnetization 
 keeping initial charge density in first step


--------------------------------------------------------------------------------------------------------


 Maximum index for augmentation-charges           417 (set IRDMAX)


--------------------------------------------------------------------------------------------------------


 First call to EWALD:  gamma=   0.302
 Maximum number of real-space cells 4x 3x 2
 Maximum number of reciprocal cells 2x 2x 5

    FEWALD:  cpu time      0.0010: real time      0.0010


--------------------------------------- Ionic step        1  -------------------------------------------




--------------------------------------- Iteration      1(   1)  ---------------------------------------


    POTLOK:  cpu time      0.0083: real time      0.0084
    SETDIJ:  cpu time      0.2191: real time      0.2196
     EDDAV:  cpu time      0.3031: real time      0.3043
       DOS:  cpu time      0.0011: real time      0.0011
    --------------------------------------------
      LOOP:  cpu time      0.5316: real time      0.5333

 eigenvalue-minimisations  :  2560
 total energy-change (2. order) : 0.1317465E+03  (-0.1285857E+04)
 number of electron      40.0000000 magnetization 
 augmentation part       40.0000000 magnetization 

 Free energy of the ion-electron system (eV)
  ---------------------------------------------------
  alpha Z        PSCENC =        83.74935623
  Ewald energy   TEWEN  =     -1382.99184146
  -Hartree energ DENC   =      -146.13842167
  -exchange      EXHF   =         0.00000000
  -V(xc)+E(xc)   XCENC  =       -33.71979296
  PAW double counting   =      1193.78262552    -1080.73714043
  entropy T*S    EENTRO =        -0.00346014
  eigenvalues    EBANDS =        49.32059631
  atomic energy  EATOM  =      1448.48460880
  Solvation  Ediel_sol  =         0.00000000
  ---------------------------------------------------
  free energy    TOTEN  =       131.74653019 eV

  energy without entropy =      131.74999033  energy(sigma->0) =      131.74826026


--------------------------------------------------------------------------------------------------------




--------------------------------------- Iteration      1(   2)  ---------------------------------------


     EDDAV:  cpu time      0.4357: real time      0.4393
       DOS:  cpu time      0.0006: real time      0.0006
    --------------------------------------------
      LOOP:  cpu time      0.4363: real time      0.4400

 eigenvalue-minimisations  :  3776
 total energy-change (2. order) :-0.1570021E+03  (-0.1522250E+03)
 number of electron      40.0000000 magnetization 
 augmentation part       40.0000000 magnetization 

 Free energy of the ion-electron system (eV)
  ---------------------------------------------------
  alpha Z        PSCENC =        83.74935623
  Ewald energy   TEWEN  =     -1382.99184146
  -Hartree energ DENC   =      -146.13842167
  -exchange      EXHF   =         0.00000000
  -V(xc)+E(xc)   XCENC  =       -33.71979296
  PAW double counting   =      1193.78262552    -1080.73714043
  entropy T*S    EENTRO =        -0.00000000
  eigenvalues    EBANDS =      -107.68492049
  atomic energy  EATOM  =      1448.48460880
  Solvation  Ediel_sol  =         0.00000000
  ---------------------------------------------------
  free energy    TOTEN  =       -25.25552647 eV

  energy without entropy =      -25.25552647  energy(sigma->0) =      -25.25552647


--------------------------------------------------------------------------------------------------------




--------------------------------------- Iteration      1(   3)  ---------------------------------------


     EDDAV:  cpu time      0.3445: real time      0.3458
       DOS:  cpu time      0.0006: real time      0.0006
    --------------------------------------------
      LOOP:  cpu time      0.3451: real time      0.3464

 eigenvalue-minimisations  :  2992
 total energy-change (2. order) :-0.8773609E+01  (-0.8755369E+01)
 number of electron      40.0000000 magnetization 
 augmentation part       40.0000000 magnetization 

 Free energy of the ion-electron system (eV)
  ---------------------------------------------------
  alpha Z        PSCENC =        83.74935623
  Ewald energy   TEWEN  =     -1382.99184146
  -Hartree energ DENC   =      -146.13842167
  -exchange      EXHF   =         0.00000000
  -V(xc)+E(xc)   XCENC  =       -33.71979296
  PAW double counting   =      1193.78262552    -1080.73714043
  entropy T*S    EENTRO =        -0.00000000
  eigenvalues    EBANDS =      -116.45852995
  atomic energy  EATOM  =      1448.48460880
  Solvation  Ediel_sol  =         0.00000000
  ---------------------------------------------------
  free energy    TOTEN  =       -34.02913593 eV

  energy without entropy =      -34.02913593  energy(sigma->0) =      -34.02913593


--------------------------------------------------------------------------------------------------------




--------------------------------------- Iteration      1(   4)  ---------------------------------------


     EDDAV:  cpu time      0.4361: real time      0.4383
       DOS:  cpu time      0.0008: real time      0.0008
    --------------------------------------------
      LOOP:  cpu time      0.4369: real time      0.4391

 eigenvalue-minimisations  :  3488
 total energy-change (2. order) :-0.6566924E-01  (-0.6565096E-01)
 number of electron      40.0000000 magnetization 
 augmentation part       40.0000000 magnetization 

 Free energy of the ion-electron system (eV)
  ---------------------------------------------------
  alpha Z        PSCENC =        83.74935623
  Ewald energy   TEWEN  =     -1382.99184146
  -Hartree energ DENC   =      -146.13842167
  -exchange      EXHF   =         0.00000000
  -V(xc)+E(xc)   XCENC  =       -33.71979296
  PAW double counting   =      1193.78262552    -1080.73714043
  entropy T*S    EENTRO =        -0.00000000
  eigenvalues    EBANDS =      -116.52419919
  atomic energy  EATOM  =      1448.48460880
  Solvation  Ediel_sol  =         0.00000000
  ---------------------------------------------------
  free energy    TOTEN  =       -34.09480516 eV

  energy without entropy =      -34.09480516  energy(sigma->0) =      -34.09480516


--------------------------------------------------------------------------------------------------------




--------------------------------------- Iteration      1(   5)  ---------------------------------------


     EDDAV:  cpu time      0.3863: real time      0.3887
       DOS:  cpu time      0.0005: real time      0.0005
    CHARGE:  cpu time      0.0056: real time      0.0056
    MIXING:  cpu time      0.0004: real time      0.0004
    --------------------------------------------
      LOOP:  cpu time      0.3928: real time      0.3952

 eigenvalue-minimisations  :  3040
 total energy-change (2. order) :-0.4732330E-03  (-0.4732141E-03)
 number of electron      39.9999947 magnetization 
 augmentation part       -7.4094453 magnetization 

 Broyden mixing:
  rms(total) = 0.64691E+00    rms(broyden)= 0.64690E+00
  rms(prec ) = 0.72601E+00
  weight for this iteration     100.00

 Free energy of the ion-electron system (eV)
  ---------------------------------------------------
  alpha Z        PSCENC =        83.74935623
  Ewald energy   TEWEN  =     -1382.99184146
  -Hartree energ DENC   =      -146.13842167
  -exchange      EXHF   =         0.00000000
  -V(xc)+E(xc)   XCENC  =       -33.71979296
  PAW double counting   =      1193.78262552    -1080.73714043
  entropy T*S    EENTRO =        -0.00000000
  eigenvalues    EBANDS =      -116.52467242
  atomic energy  EATOM  =      1448.48460880
  Solvation  Ediel_sol  =         0.00000000
  ---------------------------------------------------
  free energy    TOTEN  =       -34.09527840 eV

  energy without entropy =      -34.09527840  energy(sigma->0) =      -34.09527840


--------------------------------------------------------------------------------------------------------




--------------------------------------- Iteration      1(   6)  ---------------------------------------


    POTLOK:  cpu time      0.0077: real time      0.0079
    SETDIJ:  cpu time      0.2232: real time      0.2238
     EDDAV:  cpu time      0.3748: real time      0.3768
       DOS:  cpu time      0.0007: real time      0.0007
    CHARGE:  cpu time      0.0054: real time      0.0054
    MIXING:  cpu time      0.0005: real time      0.0005
    --------------------------------------------
      LOOP:  cpu time      0.6123: real time      0.6150

 eigenvalue-minimisations  :  3232
 total energy-change (2. order) : 0.3852368E+00  (-0.8102614E-01)
 number of electron      39.9999948 magnetization 
 augmentation part       -7.3513421 magnetization 

 Broyden mixing:
  rms(total) = 0.40805E+00    rms(broyden)= 0.40805E+00
  rms(prec ) = 0.42818E+00
  weight for this iteration     100.00

 eigenvalues of (default mixing * dielectric matrix)
  average eigenvalue GAMMA=   2.1803
  2.1803

 Free energy of the ion-electron system (eV)
  ---------------------------------------------------
  alpha Z        PSCENC =        83.74935623
  Ewald energy   TEWEN  =     -1382.99184146
  -Hartree energ DENC   =      -152.25184383
  -exchange      EXHF   =         0.00000000
  -V(xc)+E(xc)   XCENC  =       -33.09669192
  PAW double counting   =      1455.89477179    -1343.16575095
  entropy T*S    EENTRO =        -0.00000000
  eigenvalues    EBANDS =      -110.33265024
  atomic energy  EATOM  =      1448.48460880
  Solvation  Ediel_sol  =         0.00000000
  ---------------------------------------------------
  free energy    TOTEN  =       -33.71004158 eV

  energy without entropy =      -33.71004157  energy(sigma->0) =      -33.71004157


--------------------------------------------------------------------------------------------------------




--------------------------------------- Iteration      1(   7)  ---------------------------------------


    POTLOK:  cpu time      0.0076: real time      0.0078
    SETDIJ:  cpu time      0.2236: real time      0.2242
     EDDAV:  cpu time      0.3946: real time      0.3965
       DOS:  cpu time      0.0011: real time      0.0011
    CHARGE:  cpu time      0.0054: real time      0.0054
    MIXING:  cpu time      0.0005: real time      0.0005
    --------------------------------------------
      LOOP:  cpu time      0.6327: real time      0.6354

 eigenvalue-minimisations  :  3040
 total energy-change (2. order) : 0.8643525E-02  (-0.2256994E-01)
 number of electron      39.9999949 magnetization 
 augmentation part       -7.3348386 magnetization 

 Broyden mixing:
  rms(total) = 0.12928E+00    rms(broyden)= 0.12928E+00
  rms(prec ) = 0.13775E+00
  weight for this iteration     100.00

 eigenvalues of (default mixing * dielectric matrix)
  average eigenvalue GAMMA=   1.7799
  1.1878  2.3720

 Free energy of the ion-electron system (eV)
  ---------------------------------------------------
  alpha Z        PSCENC =        83.74935623
  Ewald energy   TEWEN  =     -1382.99184146
  -Hartree energ DENC   =      -155.12549559
  -exchange      EXHF   =         0.00000000
  -V(xc)+E(xc)   XCENC  =       -32.61136486
  PAW double counting   =      1779.30669201    -1666.81007748
  entropy T*S    EENTRO =        -0.00000006
  eigenvalues    EBANDS =      -107.70327564
  atomic energy  EATOM  =      1448.48460880
  Solvation  Ediel_sol  =         0.00000000
  ---------------------------------------------------
  free energy    TOTEN  =       -33.70139805 eV

  energy without entropy =      -33.70139799  energy(sigma->0) =      -33.70139802


--------------------------------------------------------------------------------------------------------




--------------------------------------- Iteration      1(   8)  ---------------------------------------


    POTLOK:  cpu time      0.0076: real time      0.0077
    SETDIJ:  cpu time      0.2215: real time      0.2220
     EDDAV:  cpu time      0.4027: real time      0.4050
       DOS:  cpu time      0.0008: real time      0.0008
    CHARGE:  cpu time      0.0054: real time      0.0054
    MIXING:  cpu time      0.0006: real time      0.0006
    --------------------------------------------
      LOOP:  cpu time      0.6386: real time      0.6416

 eigenvalue-minimisations  :  3184
 total energy-change (2. order) : 0.1063296E-02  (-0.2261584E-02)
 number of electron      39.9999949 magnetization 
 augmentation part       -7.3426089 magnetization 

 Broyden mixing:
  rms(total) = 0.18262E-01    rms(broyden)= 0.18262E-01
  rms(prec ) = 0.22078E-01
  weight for this iteration     100.00

 eigenvalues of (default mixing * dielectric matrix)
  average eigenvalue GAMMA=   1.6925
  2.5170  1.2803  1.2803

 Free energy of the ion-electron system (eV)
  ---------------------------------------------------
  alpha Z        PSCENC =        83.74935623
  Ewald energy   TEWEN  =     -1382.99184146
  -Hartree energ DENC   =      -155.32189824
  -exchange      EXHF   =         0.00000000
  -V(xc)+E(xc)   XCENC  =       -32.46545747
  PAW double counting   =      1916.18589998    -1803.74775732
  entropy T*S    EENTRO =        -0.00000002
  eigenvalues    EBANDS =      -107.59324525
  atomic energy  EATOM  =      1448.48460880
  Solvation  Ediel_sol  =         0.00000000
  ---------------------------------------------------
  free energy    TOTEN  =       -33.70033475 eV

  energy without entropy =      -33.70033473  energy(sigma->0) =      -33.70033474


--------------------------------------------------------------------------------------------------------




--------------------------------------- Iteration      1(   9)  ---------------------------------------


    POTLOK:  cpu time      0.0077: real time      0.0079
    SETDIJ:  cpu time      0.2167: real time      0.2171
     EDDAV:  cpu time      0.4112: real time      0.4130
       DOS:  cpu time      0.0008: real time      0.0008
    CHARGE:  cpu time      0.0054: real time      0.0054
    MIXING:  cpu time      0.0005: real time      0.0005
    --------------------------------------------
      LOOP:  cpu time      0.6423: real time      0.6448

 eigenvalue-minimisations  :  3232
 total energy-change (2. order) :-0.4671060E-03  (-0.3454211E-03)
 number of electron      39.9999949 magnetization 
 augmentation part       -7.3409931 magnetization 

 Broyden mixing:
  rms(total) = 0.69940E-02    rms(broyden)= 0.69940E-02
  rms(prec ) = 0.77986E-02
  weight for this iteration     100.00

 eigenvalues of (default mixing * dielectric matrix)
  average eigenvalue GAMMA=   1.7559
  2.3383  2.3383  1.1736  1.1736

 Free energy of the ion-electron system (eV)
  ---------------------------------------------------
  alpha Z        PSCENC =        83.74935623
  Ewald energy   TEWEN  =     -1382.99184146
  -Hartree energ DENC   =      -155.70784731
  -exchange      EXHF   =         0.00000000
  -V(xc)+E(xc)   XCENC  =       -32.41948728
  PAW double counting   =      1931.88707653    -1819.45944091
  entropy T*S    EENTRO =        -0.00000003
  eigenvalues    EBANDS =      -107.24322643
  atomic energy  EATOM  =      1448.48460880
  Solvation  Ediel_sol  =         0.00000000
  ---------------------------------------------------
  free energy    TOTEN  =       -33.70080186 eV

  energy without entropy =      -33.70080183  energy(sigma->0) =      -33.70080185


--------------------------------------------------------------------------------------------------------




--------------------------------------- Iteration      1(  10)  ---------------------------------------


    POTLOK:  cpu time      0.0077: real time      0.0079
    SETDIJ:  cpu time      0.2181: real time      0.2188
     EDDAV:  cpu time      0.3888: real time      0.3907
       DOS:  cpu time      0.0008: real time      0.0008
    CHARGE:  cpu time      0.0053: real time      0.0054
    MIXING:  cpu time      0.0005: real time      0.0005
    --------------------------------------------
      LOOP:  cpu time      0.6212: real time      0.6240

 eigenvalue-minimisations  :  3296
 total energy-change (2. order) :-0.1570186E-03  (-0.3186711E-04)
 number of electron      39.9999949 magnetization 
 augmentation part       -7.3409114 magnetization 

 Broyden mixing:
  rms(total) = 0.25599E-02    rms(broyden)= 0.25599E-02
  rms(prec ) = 0.30735E-02
  weight for this iteration     100.00

 eigenvalues of (default mixing * dielectric matrix)
  average eigenvalue GAMMA=   1.7512
  2.7344  2.4304  1.1514  1.2199  1.2199

 Free energy of the ion-electron system (eV)
  ---------------------------------------------------
  alpha Z        PSCENC =        83.74935623
  Ewald energy   TEWEN  =     -1382.99184146
  -Hartree energ DENC   =      -155.75134342
  -exchange      EXHF   =         0.00000000
  -V(xc)+E(xc)   XCENC  =       -32.41535928
  PAW double counting   =      1924.22453692    -1811.79100845
  entropy T*S    EENTRO =        -0.00000003
  eigenvalues    EBANDS =      -107.20990818
  atomic energy  EATOM  =      1448.48460880
  Solvation  Ediel_sol  =         0.00000000
  ---------------------------------------------------
  free energy    TOTEN  =       -33.70095888 eV

  energy without entropy =      -33.70095885  energy(sigma->0) =      -33.70095887


--------------------------------------------------------------------------------------------------------




--------------------------------------- Iteration      1(  11)  ---------------------------------------


    POTLOK:  cpu time      0.0079: real time      0.0081
    SETDIJ:  cpu time      0.2175: real time      0.2180
     EDDAV:  cpu time      0.3899: real time      0.3921
       DOS:  cpu time      0.0008: real time      0.0008
    CHARGE:  cpu time      0.0053: real time      0.0053
    MIXING:  cpu time      0.0005: real time      0.0005
    --------------------------------------------
      LOOP:  cpu time      0.6220: real time      0.6247

 eigenvalue-minimisations  :  3136
 total energy-change (2. order) :-0.3777693E-04  (-0.4468509E-05)
 number of electron      39.9999949 magnetization 
 augmentation part       -7.3410386 magnetization 

 Broyden mixing:
  rms(total) = 0.12138E-02    rms(broyden)= 0.12138E-02
  rms(prec ) = 0.13491E-02
  weight for this iteration     100.00

 eigenvalues of (default mixing * dielectric matrix)
  average eigenvalue GAMMA=   1.7245
  2.3596  2.3596  2.3603  1.1782  1.1782  0.9112

 Free energy of the ion-electron system (eV)
  ---------------------------------------------------
  alpha Z        PSCENC =        83.74935623
  Ewald energy   TEWEN  =     -1382.99184146
  -Hartree energ DENC   =      -155.78862678
  -exchange      EXHF   =         0.00000000
  -V(xc)+E(xc)   XCENC  =       -32.40793304
  PAW double counting   =      1926.25890883    -1813.82597265
  entropy T*S    EENTRO =        -0.00000002
  eigenvalues    EBANDS =      -107.17949656
  atomic energy  EATOM  =      1448.48460880
  Solvation  Ediel_sol  =         0.00000000
  ---------------------------------------------------
  free energy    TOTEN  =       -33.70099666 eV

  energy without entropy =      -33.70099663  energy(sigma->0) =      -33.70099664


--------------------------------------------------------------------------------------------------------




--------------------------------------- Iteration      1(  12)  ---------------------------------------


    POTLOK:  cpu time      0.0076: real time      0.0077
    SETDIJ:  cpu time      0.2179: real time      0.2183
     EDDAV:  cpu time      0.4097: real time      0.4117
       DOS:  cpu time      0.0008: real time      0.0008
    CHARGE:  cpu time      0.0055: real time      0.0055
    MIXING:  cpu time      0.0006: real time      0.0006
    --------------------------------------------
      LOOP:  cpu time      0.6421: real time      0.6446

 eigenvalue-minimisations  :  3424
 total energy-change (2. order) :-0.1965734E-05  (-0.6545006E-06)
 number of electron      39.9999949 magnetization 
 augmentation part       -7.3409263 magnetization 

 Broyden mixing:
  rms(total) = 0.31279E-03    rms(broyden)= 0.31279E-03
  rms(prec ) = 0.38336E-03
  weight for this iteration     100.00

 eigenvalues of (default mixing * dielectric matrix)
  average eigenvalue GAMMA=   1.7089
  2.9573  2.4281  2.0401  0.9805  1.2713  1.1426  1.1426

 Free energy of the ion-electron system (eV)
  ---------------------------------------------------
  alpha Z        PSCENC =        83.74935623
  Ewald energy   TEWEN  =     -1382.99184146
  -Hartree energ DENC   =      -155.80314065
  -exchange      EXHF   =         0.00000000
  -V(xc)+E(xc)   XCENC  =       -32.40687890
  PAW double counting   =      1925.68672587    -1813.25370791
  entropy T*S    EENTRO =        -0.00000002
  eigenvalues    EBANDS =      -107.16612058
  atomic energy  EATOM  =      1448.48460880
  Solvation  Ediel_sol  =         0.00000000
  ---------------------------------------------------
  free energy    TOTEN  =       -33.70099862 eV

  energy without entropy =      -33.70099860  energy(sigma->0) =      -33.70099861


--------------------------------------------------------------------------------------------------------




--------------------------------------- Iteration      1(  13)  ---------------------------------------


    POTLOK:  cpu time      0.0077: real time      0.0079
    SETDIJ:  cpu time      0.2184: real time      0.2189
     EDDAV:  cpu time      0.2947: real time      0.2961
       DOS:  cpu time      0.0008: real time      0.0008
    --------------------------------------------
      LOOP:  cpu time      0.5216: real time      0.5237

 eigenvalue-minimisations  :  2208
 total energy-change (2. order) :-0.8022294E-06  (-0.1573053E-06)
 number of electron      39.9999949 magnetization 
 augmentation part       -7.3409263 magnetization 

 Free energy of the ion-electron system (eV)
  ---------------------------------------------------
  alpha Z        PSCENC =        83.74935623
  Ewald energy   TEWEN  =     -1382.99184146
  -Hartree energ DENC   =      -155.80802962
  -exchange      EXHF   =         0.00000000
  -V(xc)+E(xc)   XCENC  =       -32.40624098
  PAW double counting   =      1925.57214949    -1813.13895419
  entropy T*S    EENTRO =        -0.00000002
  eigenvalues    EBANDS =      -107.16204767
  atomic energy  EATOM  =      1448.48460880
  Solvation  Ediel_sol  =         0.00000000
  ---------------------------------------------------
  free energy    TOTEN  =       -33.70099942 eV

  energy without entropy =      -33.70099940  energy(sigma->0) =      -33.70099941


--------------------------------------------------------------------------------------------------------




 average (electrostatic) potential at core
  the test charge radii are     1.1631  1.0808
  (the norm of the test charge is              1.0000)
       1 -33.8178       2 -33.8178       3 -33.8178       4 -33.8178       5 -55.3154
       6 -55.3154       7 -55.3154       8 -55.3154
 
 
 
 E-fermi :   2.9671     XC(G=0):  -9.0539     alpha+bet : -8.3433

 Fermi energy:         2.9670953752

 k-point     1 :       0.0000    0.0000    0.0000
  band No.  band energies     occupation 
      1     -11.2229      2.00000
      2     -11.0184      2.00000
      3      -9.9501      2.00000
      4      -9.6562      2.00000
      5      -5.0771      2.00000
      6      -4.4136      2.00000
      7      -3.0840      2.00000
      8      -2.6289      2.00000
      9      -2.0536      2.00000
     10      -0.7147      2.00000
     11      -0.4195      2.00000
     12      -0.3652      2.00000
     13      -0.0038      2.00000
     14       0.0322      2.00000
     15       1.0104      2.00000
     16       1.2716      2.00000
     17       1.3430      2.00000
     18       1.7010      2.00000
     19       2.4929      2.00000
     20       2.5060      2.00000
     21       3.1282      0.00001
     22       5.3716      0.00000
     23       5.5451      0.00000
     24       5.6973      0.00000
     25       6.0662      0.00000
     26       6.6943      0.00000
     27       6.7282      0.00000
     28       7.0874      0.00000
     29       7.5230      0.00000
     30       8.2871      0.00000
     31       8.3320      0.00000
     32       8.8099      0.00000

 k-point     2 :       0.1667    0.0000    0.0000
  band No.  band energies     occupation 
      1     -11.0370      2.00000
      2     -10.8405      2.00000
      3      -9.8463      2.00000
      4      -9.5852      2.00000
      5      -5.2983      2.00000
      6      -4.6435      2.00000
      7      -3.5309      2.00000
      8      -3.0353      2.00000
      9      -1.9047      2.00000
     10      -0.6073      2.00000
     11      -0.4082      2.00000
     12      -0.2943      2.00000
     13      -0.2064      2.00000
     14       0.0198      2.00000
     15       0.7467      2.00000
     16       1.0996      2.00000
     17       1.5232      2.00000
     18       1.9213      2.00000
     19       2.0875      2.00000
     20       2.5722      2.00000
     21       3.3791      0.00000
     22       5.1089      0.00000
     23       5.6044      0.00000
     24       6.0753      0.00000
     25       6.1317      0.00000
     26       6.2858      0.00000
     27       6.4080      0.00000
     28       7.1064      0.00000
     29       7.4360      0.00000
     30       7.5024      0.00000
     31       7.5398      0.00000
     32       8.7188      0.00000

 k-point     3 :       0.3333    0.0000    0.0000
  band No.  band energies     occupation 
      1     -10.5340      2.00000
      2     -10.3643      2.00000
      3      -9.6977      2.00000
      4      -9.5303      2.00000
      5      -5.7263      2.00000
      6      -5.0636      2.00000
      7      -4.6448      2.00000
      8      -4.0389      2.00000
      9      -1.3451      2.00000
     10      -0.5411      2.00000
     11      -0.3181      2.00000
     12       0.0728      2.00000
     13       0.1794      2.00000
     14       0.4975      2.00000
     15       0.6841      2.00000
     16       1.0303      2.00000
     17       1.3445      2.00000
     18       1.7036      2.00000
     19       2.1701      2.00000
     20       2.3382      2.00000
     21       3.9030      0.00000
     22       3.9580      0.00000
     23       4.4177      0.00000
     24       5.0872      0.00000
     25       5.1725      0.00000
     26       5.3157      0.00000
     27       5.6820      0.00000
     28       6.1796      0.00000
     29       6.4802      0.00000
     30       6.7206      0.00000
     31       7.2805      0.00000
     32       8.3800      0.00000

 k-point     4 :       0.5000    0.0000    0.0000
  band No.  band energies     occupation 
      1      -9.9366      2.00000
      2      -9.9366      2.00000
      3      -9.8099      2.00000
      4      -9.8099      2.00000
      5      -5.5879      2.00000
      6      -5.5879      2.00000
      7      -4.9216      2.00000
      8      -4.9216      2.00000
      9      -0.5930      2.00000
     10      -0.5930      2.00000
     11       0.1304      2.00000
     12       0.1304      2.00000
     13       0.5212      2.00000
     14       0.5212      2.00000
     15       0.9281      2.00000
     16       0.9281      2.00000
     17       1.2963      2.00000
     18       1.2963      2.00000
     19       2.0841      2.00000
     20       2.0842      2.00000
     21       3.8971      0.00000
     22       3.8971      0.00000
     23       4.4687      0.00000
     24       4.4687      0.00000
     25       4.9571      0.00000
     26       4.9571      0.00000
     27       5.1020      0.00000
     28       5.1020      0.00000
     29       5.6504      0.00000
     30       5.6504      0.00000
     31       7.7351      0.00000
     32       7.7351      0.00000

 k-point     5 :       0.0000    0.1667    0.0000
  band No.  band energies     occupation 
      1     -11.1061      2.00000
      2     -10.9138      2.00000
      3      -9.9556      2.00000
      4      -9.7169      2.00000
      5      -5.2935      2.00000
      6      -4.6561      2.00000
      7      -3.7320      2.00000
      8      -3.0642      2.00000
      9      -1.8653      2.00000
     10      -0.2873      2.00000
     11      -0.0380      2.00000
     12       0.0756      2.00000
     13       0.1386      2.00000
     14       0.1930      2.00000
     15       1.2644      2.00000
     16       1.3283      2.00000
     17       1.6369      2.00000
     18       1.6828      2.00000
     19       2.0592      2.00000
     20       2.6498      2.00000
     21       3.5437      0.00000
     22       5.0750      0.00000
     23       5.4767      0.00000
     24       5.5780      0.00000
     25       5.6836      0.00000
     26       6.2215      0.00000
     27       6.3389      0.00000
     28       7.1389      0.00000
     29       7.2032      0.00000
     30       7.6905      0.00000
     31       7.7608      0.00000
     32       8.8574      0.00000

 k-point     6 :       0.1667    0.1667    0.0000
  band No.  band energies     occupation 
      1     -10.9275      2.00000
      2     -10.7399      2.00000
      3      -9.8561      2.00000
      4      -9.6366      2.00000
      5      -5.4143      2.00000
      6      -4.7272      2.00000
      7      -3.8366      2.00000
      8      -3.4364      2.00000
      9      -1.7224      2.00000
     10      -0.9677      2.00000
     11      -0.9070      2.00000
     12      -0.1642      2.00000
     13       0.4890      2.00000
     14       0.6400      2.00000
     15       0.8351      2.00000
     16       0.8727      2.00000
     17       1.7946      2.00000
     18       1.8991      2.00000
     19       2.2837      2.00000
     20       2.3413      2.00000
     21       3.6959      0.00000
     22       4.8261      0.00000
     23       5.1577      0.00000
     24       5.3569      0.00000
     25       6.1021      0.00000
     26       6.5184      0.00000
     27       6.6247      0.00000
     28       7.1698      0.00000
     29       7.2047      0.00000
     30       7.4466      0.00000
     31       7.4872      0.00000
     32       8.4517      0.00000

 k-point     7 :       0.1667   -0.1667    0.0000
  band No.  band energies     occupation 
      1     -10.9241      2.00000
      2     -10.7432      2.00000
      3      -9.8492      2.00000
      4      -9.6445      2.00000
      5      -5.3810      2.00000
      6      -4.7630      2.00000
      7      -3.9812      2.00000
      8      -3.2556      2.00000
      9      -1.6959      2.00000
     10      -1.0605      2.00000
     11      -0.7730      2.00000
     12      -0.2369      2.00000
     13       0.4620      2.00000
     14       0.5780      2.00000
     15       0.8360      2.00000
     16       0.8633      2.00000
     17       1.5581      2.00000
     18       2.0466      2.00000
     19       2.1376      2.00000
     20       2.7360      2.00000
     21       3.7405      0.00000
     22       4.8034      0.00000
     23       5.0533      0.00000
     24       5.5532      0.00000
     25       5.9923      0.00000
     26       6.4472      0.00000
     27       6.6523      0.00000
     28       6.7906      0.00000
     29       7.2438      0.00000
     30       7.4160      0.00000
     31       7.4952      0.00000
     32       8.9371      0.00000

 k-point     8 :       0.3333    0.1667    0.0000
  band No.  band energies     occupation 
      1     -10.4476      2.00000
      2     -10.2827      2.00000
      3      -9.7022      2.00000
      4      -9.5502      2.00000
      5      -5.6833      2.00000
      6      -4.9578      2.00000
      7      -4.6153      2.00000
      8      -4.1775      2.00000
      9      -1.2615      2.00000
     10      -1.2523      2.00000
     11      -1.1554      2.00000
     12      -0.2599      2.00000
     13       0.2098      2.00000
     14       0.5410      2.00000
     15       0.8108      2.00000
     16       0.9177      2.00000
     17       1.1865      2.00000
     18       1.7536      2.00000
     19       2.0034      2.00000
     20       2.0663      2.00000
     21       3.8420      0.00000
     22       4.7294      0.00000
     23       4.7409      0.00000
     24       4.9717      0.00000
     25       5.1971      0.00000
     26       5.7897      0.00000
     27       6.2218      0.00000
     28       7.0117      0.00000
     29       7.3377      0.00000
     30       7.6419      0.00000
     31       7.6977      0.00000
     32       7.8647      0.00000

 k-point     9 :       0.3333   -0.1667    0.0000
  band No.  band energies     occupation 
      1     -10.4400      2.00000
      2     -10.2903      2.00000
      3      -9.6907      2.00000
      4      -9.5636      2.00000
      5      -5.6246      2.00000
      6      -5.0210      2.00000
      7      -4.7355      2.00000
      8      -4.0406      2.00000
      9      -1.2625      2.00000
     10      -1.2223      2.00000
     11      -1.0976      2.00000
     12      -0.3036      2.00000
     13       0.3006      2.00000
     14       0.4835      2.00000
     15       0.5217      2.00000
     16       0.9554      2.00000
     17       1.2561      2.00000
     18       1.6310      2.00000
     19       1.7669      2.00000
     20       2.6399      2.00000
     21       3.8381      0.00000
     22       4.6210      0.00000
     23       4.7023      0.00000
     24       5.0979      0.00000
     25       5.3507      0.00000
     26       5.9385      0.00000
     27       6.2539      0.00000
     28       6.5034      0.00000
     29       6.6421      0.00000
     30       7.4961      0.00000
     31       7.8891      0.00000
     32       8.6183      0.00000

 k-point    10 :       0.5000    0.1667    0.0000
  band No.  band energies     occupation 
      1      -9.8953      2.00000
      2      -9.8900      2.00000
      3      -9.7797      2.00000
      4      -9.7751      2.00000
      5      -5.5342      2.00000
      6      -5.4663      2.00000
      7      -4.8927      2.00000
      8      -4.8206      2.00000
      9      -0.8571      2.00000
     10      -0.7619      2.00000
     11      -0.5229      2.00000
     12      -0.4870      2.00000
     13      -0.1068      2.00000
     14       0.2231      2.00000
     15       0.3050      2.00000
     16       0.3552      2.00000
     17       1.3112      2.00000
     18       1.3613      2.00000
     19       1.9565      2.00000
     20       2.3070      2.00000
     21       4.0695      0.00000
     22       4.0727      0.00000
     23       4.8216      0.00000
     24       4.9386      0.00000
     25       5.5265      0.00000
     26       5.9583      0.00000
     27       6.0559      0.00000
     28       6.1814      0.00000
     29       6.5899      0.00000
     30       6.6164      0.00000
     31       7.1045      0.00000
     32       7.9386      0.00000

 k-point    11 :       0.0000    0.3333    0.0000
  band No.  band energies     occupation 
      1     -10.7824      2.00000
      2     -10.6334      2.00000
      3     -10.0374      2.00000
      4      -9.9423      2.00000
      5      -5.5562      2.00000
      6      -4.9062      2.00000
      7      -4.7015      2.00000
      8      -3.9751      2.00000
      9      -1.3527      2.00000
     10       0.2396      2.00000
     11       0.4824      2.00000
     12       0.5133      2.00000
     13       0.6197      2.00000
     14       0.8674      2.00000
     15       1.2428      2.00000
     16       1.2709      2.00000
     17       1.3043      2.00000
     18       2.3076      2.00000
     19       2.6254      2.00000
     20       2.8009      2.00000
     21       4.0917      0.00000
     22       4.2317      0.00000
     23       4.5816      0.00000
     24       5.2785      0.00000
     25       5.5201      0.00000
     26       5.6158      0.00000
     27       5.7621      0.00000
     28       6.3498      0.00000
     29       6.5833      0.00000
     30       6.6910      0.00000
     31       7.6627      0.00000
     32       8.7490      0.00000

 k-point    12 :       0.1667    0.3333    0.0000
  band No.  band energies     occupation 
      1     -10.6234      2.00000
      2     -10.4749      2.00000
      3      -9.9350      2.00000
      4      -9.8385      2.00000
      5      -5.5265      2.00000
      6      -4.8190      2.00000
      7      -4.6289      2.00000
      8      -4.0602      2.00000
      9      -1.2386      2.00000
     10      -0.9429      2.00000
     11      -0.8641      2.00000
     12      -0.0190      2.00000
     13       0.0774      2.00000
     14       0.6127      2.00000
     15       0.7595      2.00000
     16       1.4194      2.00000
     17       1.7470      2.00000
     18       2.0357      2.00000
     19       2.3323      2.00000
     20       2.5299      2.00000
     21       4.1792      0.00000
     22       4.8116      0.00000
     23       5.3070      0.00000
     24       5.3702      0.00000
     25       5.5568      0.00000
     26       5.7655      0.00000
     27       6.3878      0.00000
     28       7.0005      0.00000
     29       7.2692      0.00000
     30       7.5700      0.00000
     31       7.8520      0.00000
     32       8.1828      0.00000

 k-point    13 :       0.1667   -0.3333    0.0000
  band No.  band energies     occupation 
      1     -10.6163      2.00000
      2     -10.4821      2.00000
      3      -9.9240      2.00000
      4      -9.8505      2.00000
      5      -5.4834      2.00000
      6      -4.8617      2.00000
      7      -4.7203      2.00000
      8      -3.9579      2.00000
      9      -1.1662      2.00000
     10      -1.0551      2.00000
     11      -0.7092      2.00000
     12      -0.1764      2.00000
     13       0.2171      2.00000
     14       0.3552      2.00000
     15       0.7867      2.00000
     16       1.3945      2.00000
     17       1.9042      2.00000
     18       1.9597      2.00000
     19       2.2984      2.00000
     20       2.6897      2.00000
     21       4.1766      0.00000
     22       4.8771      0.00000
     23       5.1694      0.00000
     24       5.4277      0.00000
     25       5.4588      0.00000
     26       6.0776      0.00000
     27       6.3858      0.00000
     28       6.8105      0.00000
     29       6.9175      0.00000
     30       7.5503      0.00000
     31       7.6922      0.00000
     32       8.7887      0.00000

 k-point    14 :       0.3333    0.3333    0.0000
  band No.  band energies     occupation 
      1     -10.2128      2.00000
      2     -10.0796      2.00000
      3      -9.7416      2.00000
      4      -9.6589      2.00000
      5      -5.5110      2.00000
      6      -4.7542      2.00000
      7      -4.7459      2.00000
      8      -4.4072      2.00000
      9      -1.7915      2.00000
     10      -1.6538      2.00000
     11      -1.1626      2.00000
     12      -0.8191      2.00000
     13      -0.5453      2.00000
     14      -0.1242      2.00000
     15       0.3799      2.00000
     16       0.7312      2.00000
     17       0.8438      2.00000
     18       1.5076      2.00000
     19       1.9596      2.00000
     20       2.0111      2.00000
     21       4.0499      0.00000
     22       5.5363      0.00000
     23       5.7589      0.00000
     24       6.0070      0.00000
     25       6.0320      0.00000
     26       6.8814      0.00000
     27       7.1177      0.00000
     28       7.6153      0.00000
     29       7.7190      0.00000
     30       7.8099      0.00000
     31       8.6432      0.00000
     32       8.8479      0.00000

 k-point    15 :       0.3333   -0.3333    0.0000
  band No.  band energies     occupation 
      1     -10.1966      2.00000
      2     -10.0956      2.00000
      3      -9.7284      2.00000
      4      -9.6741      2.00000
      5      -5.4062      2.00000
      6      -4.9357      2.00000
      7      -4.8585      2.00000
      8      -4.2076      2.00000
      9      -1.8439      2.00000
     10      -1.5576      2.00000
     11      -1.0941      2.00000
     12      -0.8192      2.00000
     13      -0.6327      2.00000
     14       0.1160      2.00000
     15       0.1500      2.00000
     16       0.5906      2.00000
     17       0.6953      2.00000
     18       1.5931      2.00000
     19       1.6527      2.00000
     20       2.6447      2.00000
     21       4.1393      0.00000
     22       5.3688      0.00000
     23       5.3937      0.00000
     24       6.1608      0.00000
     25       6.3330      0.00000
     26       6.6817      0.00000
     27       6.7412      0.00000
     28       7.4212      0.00000
     29       7.7343      0.00000
     30       8.2201      0.00000
     31       8.2732      0.00000
     32       9.0723      0.00000

 k-point    16 :       0.5000    0.3333    0.0000
  band No.  band energies     occupation 
      1      -9.8042      2.00000
      2      -9.7899      2.00000
      3      -9.7203      2.00000
      4      -9.7072      2.00000
      5      -5.3777      2.00000
      6      -5.2282      2.00000
      7      -4.8030      2.00000
      8      -4.6432      2.00000
      9      -1.4340      2.00000
     10      -1.3766      2.00000
     11      -1.2661      2.00000
     12      -1.2542      2.00000
     13      -0.6746      2.00000
     14      -0.5885      2.00000
     15      -0.2460      2.00000
     16      -0.1024      2.00000
     17       0.7131      2.00000
     18       0.9625      2.00000
     19       1.6384      2.00000
     20       2.3858      2.00000
     21       4.6585      0.00000
     22       4.9191      0.00000
     23       6.0167      0.00000
     24       6.4287      0.00000
     25       6.5515      0.00000
     26       6.6972      0.00000
     27       7.0471      0.00000
     28       7.6318      0.00000
     29       7.9862      0.00000
     30       8.0855      0.00000
     31       8.5001      0.00000
     32       8.5108      0.00000

 k-point    17 :       0.0000    0.5000    0.0000
  band No.  band energies     occupation 
      1     -10.3420      2.00000
      2     -10.3420      2.00000
      3     -10.2866      2.00000
      4     -10.2866      2.00000
      5      -5.3842      2.00000
      6      -5.3842      2.00000
      7      -4.6806      2.00000
      8      -4.6806      2.00000
      9      -0.5882      2.00000
     10      -0.5882      2.00000
     11       0.9500      2.00000
     12       0.9500      2.00000
     13       0.9725      2.00000
     14       0.9725      2.00000
     15       1.2011      2.00000
     16       1.2011      2.00000
     17       2.1407      2.00000
     18       2.1407      2.00000
     19       2.5980      2.00000
     20       2.5980      2.00000
     21       4.4309      0.00000
     22       4.4309      0.00000
     23       4.7213      0.00000
     24       4.7213      0.00000
     25       5.0808      0.00000
     26       5.0808      0.00000
     27       5.8387      0.00000
     28       5.8387      0.00000
     29       5.9736      0.00000
     30       5.9736      0.00000
     31       8.2515      0.00000
     32       8.2515      0.00000

 k-point    18 :       0.1667    0.5000    0.0000
  band No.  band energies     occupation 
      1     -10.2155      2.00000
      2     -10.2044      2.00000
      3     -10.1630      2.00000
      4     -10.1522      2.00000
      5      -5.3155      2.00000
      6      -5.2613      2.00000
      7      -4.6292      2.00000
      8      -4.5750      2.00000
      9      -0.6184      2.00000
     10      -0.6092      2.00000
     11      -0.5235      2.00000
     12      -0.3786      2.00000
     13      -0.2381      2.00000
     14      -0.1934      2.00000
     15       1.0430      2.00000
     16       1.1751      2.00000
     17       1.8249      2.00000
     18       2.1990      2.00000
     19       2.5178      2.00000
     20       2.5365      2.00000
     21       4.5159      0.00000
     22       4.5629      0.00000
     23       5.3262      0.00000
     24       5.5053      0.00000
     25       5.7295      0.00000
     26       5.8752      0.00000
     27       6.6699      0.00000
     28       6.7171      0.00000
     29       7.0353      0.00000
     30       7.0752      0.00000
     31       7.8063      0.00000
     32       8.2794      0.00000

[...]
     32       7.7750      0.00000

 k-point    32 :       0.1667    0.3333    0.5000
  band No.  band energies     occupation 
      1     -10.5563      2.00000
      2     -10.5563      2.00000
      3      -9.8794      2.00000
      4      -9.8794      2.00000
      5      -5.2717      2.00000
      6      -5.2717      2.00000
      7      -4.2717      2.00000
      8      -4.2717      2.00000
      9      -0.9779      2.00000
     10      -0.9779      2.00000
     11      -0.4393      2.00000
     12      -0.4393      2.00000
     13       0.1443      2.00000
     14       0.1443      2.00000
     15       1.1146      2.00000
     16       1.1146      2.00000
     17       1.9152      2.00000
     18       1.9152      2.00000
     19       2.3116      2.00000
     20       2.3116      2.00000
     21       4.8529      0.00000
     22       4.8529      0.00000
     23       5.4066      0.00000
     24       5.4066      0.00000
     25       5.7425      0.00000
     26       5.7425      0.00000
     27       6.5147      0.00000
     28       6.5147      0.00000
     29       7.2269      0.00000
     30       7.2269      0.00000
     31       7.8605      0.00000
     32       7.8605      0.00000

 k-point    33 :       0.1667   -0.3333    0.5000
  band No.  band energies     occupation 
      1     -10.5547      2.00000
      2     -10.5547      2.00000
      3      -9.8815      2.00000
      4      -9.8815      2.00000
      5      -5.2679      2.00000
      6      -5.2679      2.00000
      7      -4.2792      2.00000
      8      -4.2792      2.00000
      9      -1.0107      2.00000
     10      -1.0107      2.00000
     11      -0.3611      2.00000
     12      -0.3611      2.00000
     13       0.1854      2.00000
     14       0.1854      2.00000
     15       0.9956      2.00000
     16       0.9956      2.00000
     17       1.9830      2.00000
     18       1.9830      2.00000
     19       2.2532      2.00000
     20       2.2532      2.00000
     21       4.9464      0.00000
     22       4.9464      0.00000
     23       5.2292      0.00000
     24       5.2292      0.00000
     25       5.7482      0.00000
     26       5.7482      0.00000
     27       6.6074      0.00000
     28       6.6074      0.00000
     29       7.4593      0.00000
     30       7.4593      0.00000
     31       7.8648      0.00000
     32       7.8648      0.00000

 k-point    34 :       0.3333    0.3333    0.5000
  band No.  band energies     occupation 
      1     -10.1535      2.00000
      2     -10.1535      2.00000
      3      -9.6932      2.00000
      4      -9.6932      2.00000
      5      -5.2572      2.00000
      6      -5.2572      2.00000
      7      -4.4586      2.00000
      8      -4.4586      2.00000
      9      -1.7449      2.00000
     10      -1.7449      2.00000
     11      -0.9779      2.00000
     12      -0.9779      2.00000
     13      -0.2456      2.00000
     14      -0.2456      2.00000
     15       0.5269      2.00000
     16       0.5269      2.00000
     17       1.0732      2.00000
     18       1.0732      2.00000
     19       1.9174      2.00000
     20       1.9174      2.00000
     21       4.9865      0.00000
     22       4.9865      0.00000
     23       5.6438      0.00000
     24       5.6438      0.00000
     25       6.6024      0.00000
     26       6.6024      0.00000
     27       7.4539      0.00000
     28       7.4539      0.00000
     29       7.6511      0.00000
     30       7.6511      0.00000
     31       8.7554      0.00000
     32       8.7554      0.00000

 k-point    35 :       0.3333   -0.3333    0.5000
  band No.  band energies     occupation 
      1     -10.1499      2.00000
      2     -10.1499      2.00000
      3      -9.6978      2.00000
      4      -9.6978      2.00000
      5      -5.2448      2.00000
      6      -5.2448      2.00000
      7      -4.4766      2.00000
      8      -4.4766      2.00000
      9      -1.7754      2.00000
     10      -1.7754      2.00000
     11      -0.8816      2.00000
     12      -0.8816      2.00000
     13      -0.2542      2.00000
     14      -0.2542      2.00000
     15       0.4683      2.00000
     16       0.4683      2.00000
     17       1.1554      2.00000
     18       1.1554      2.00000
     19       1.7787      2.00000
     20       1.7787      2.00000
     21       5.1559      0.00000
     22       5.1559      0.00000
     23       5.5544      0.00000
     24       5.5544      0.00000
     25       6.8317      0.00000
     26       6.8317      0.00000
     27       7.2652      0.00000
     28       7.2652      0.00000
     29       7.6000      0.00000
     30       7.6000      0.00000
     31       8.7476      0.00000
     32       8.7476      0.00000

 k-point    36 :       0.5000    0.3333    0.5000
  band No.  band energies     occupation 
      1      -9.7920      2.00000
      2      -9.7920      2.00000
      3      -9.7193      2.00000
      4      -9.7193      2.00000
      5      -5.2876      2.00000
      6      -5.2876      2.00000
      7      -4.7445      2.00000
      8      -4.7445      2.00000
      9      -1.4535      2.00000
     10      -1.4535      2.00000
     11      -1.2771      2.00000
     12      -1.2771      2.00000
     13      -0.5102      2.00000
     14      -0.5102      2.00000
     15      -0.2282      2.00000
     16      -0.2282      2.00000
     17       1.2687      2.00000
     18       1.2687      2.00000
     19       1.4130      2.00000
     20       1.4130      2.00000
     21       5.0578      0.00000
     22       5.0578      0.00000
     23       6.2582      0.00000
     24       6.2582      0.00000
     25       6.5486      0.00000
     26       6.5486      0.00000
     27       7.3539      0.00000
     28       7.3539      0.00000
     29       8.1020      0.00000
     30       8.1020      0.00000
     31       8.4384      0.00000
     32       8.4384      0.00000

 k-point    37 :       0.0000    0.5000    0.5000
  band No.  band energies     occupation 
      1     -10.3174      2.00000
      2     -10.3174      2.00000
      3     -10.3121      2.00000
      4     -10.3121      2.00000
      5      -5.2925      2.00000
      6      -5.2925      2.00000
      7      -4.8136      2.00000
      8      -4.8136      2.00000
      9       0.0375      2.00000
     10       0.0375      2.00000
     11       0.3069      2.00000
     12       0.3069      2.00000
     13       0.9579      2.00000
     14       0.9579      2.00000
     15       0.9789      2.00000
     16       0.9789      2.00000
     17       2.2919      2.00000
     18       2.2919      2.00000
     19       2.6197      2.00000
     20       2.6197      2.00000
     21       4.3912      0.00000
     22       4.3912      0.00000
     23       4.5382      0.00000
     24       4.5382      0.00000
     25       5.7876      0.00000
     26       5.7876      0.00000
     27       5.7991      0.00000
     28       5.7991      0.00000
     29       6.2765      0.00000
     30       6.2765      0.00000
     31       7.3935      0.00000
     32       7.3935      0.00000

 k-point    38 :       0.1667    0.5000    0.5000
  band No.  band energies     occupation 
      1     -10.1895      2.00000
      2     -10.1895      2.00000
      3     -10.1789      2.00000
      4     -10.1789      2.00000
      5      -5.2135      2.00000
      6      -5.2135      2.00000
      7      -4.7103      2.00000
      8      -4.7103      2.00000
      9      -0.5783      2.00000
     10      -0.5783      2.00000
     11      -0.4454      2.00000
     12      -0.4454      2.00000
     13       0.2707      2.00000
     14       0.2707      2.00000
     15       0.5269      2.00000
     16       0.5269      2.00000
     17       2.0285      2.00000
     18       2.0285      2.00000
     19       2.3051      2.00000
     20       2.3051      2.00000
     21       5.1655      0.00000
     22       5.1655      0.00000
     23       5.4093      0.00000
     24       5.4093      0.00000
     25       5.7226      0.00000
     26       5.7226      0.00000
     27       6.8392      0.00000
     28       6.8392      0.00000
     29       7.0466      0.00000
     30       7.0466      0.00000
     31       7.5796      0.00000
     32       7.5796      0.00000

 k-point    39 :       0.3333    0.5000    0.5000
  band No.  band energies     occupation 
      1      -9.9034      2.00000
      2      -9.9034      2.00000
      3      -9.8707      2.00000
      4      -9.8707      2.00000
      5      -5.1411      2.00000
      6      -5.1411      2.00000
      7      -4.5943      2.00000
      8      -4.5943      2.00000
      9      -1.6429      2.00000
     10      -1.6429      2.00000
     11      -1.5223      2.00000
     12      -1.5223      2.00000
     13      -0.1057      2.00000
     14      -0.1057      2.00000
     15       0.0947      2.00000
     16       0.0947      2.00000
     17       1.2232      2.00000
     18       1.2232      2.00000
     19       1.4607      2.00000
     20       1.4607      2.00000
     21       5.2151      0.00000
     22       5.2151      0.00000
     23       6.7163      0.00000
     24       6.7163      0.00000
     25       6.9145      0.00000
     26       6.9145      0.00000
     27       7.4811      0.00000
     28       7.4811      0.00000
     29       8.3892      0.00000
     30       8.3892      0.00000
     31       8.6534      0.00000
     32       8.6534      0.00000

 k-point    40 :       0.5000    0.5000    0.5000
  band No.  band energies     occupation 
      1      -9.7385      2.00000
      2      -9.7385      2.00000
      3      -9.6896      2.00000
      4      -9.6896      2.00000
      5      -5.1969      2.00000
      6      -5.1969      2.00000
      7      -4.6487      2.00000
      8      -4.6487      2.00000
      9      -1.6699      2.00000
     10      -1.6699      2.00000
     11      -1.5668      2.00000
     12      -1.5668      2.00000
     13      -0.8739      2.00000
     14      -0.8739      2.00000
     15      -0.6246      2.00000
     16      -0.6246      2.00000
     17       1.2587      2.00000
     18       1.2587      2.00000
     19       1.4492      2.00000
     20       1.4492      2.00000
     21       4.9419      0.00000
     22       4.9419      0.00000
     23       6.7116      0.00000
     24       6.7116      0.00000
     25       7.5370      0.00000
     26       7.5370      0.00000
     27       7.8155      0.00000
     28       7.8155      0.00000
     29       8.4969      0.00000
     30       8.4969      0.00000
     31       9.3433      0.00000
     32       9.3433      0.00000


--------------------------------------------------------------------------------------------------------


 soft charge-density along one line, spin component            1
         0         1         2         3         4         5         6         7         8         9
 total charge-density along one line
 
 pseudopotential strength for first ion, spin component:            1
 14.621  18.245   0.040   0.044   0.001   0.073   0.080   0.001
 18.245  22.781   0.051   0.056   0.001   0.092   0.101   0.001
  0.040   0.051   3.242  -0.002  -0.000   5.520  -0.004  -0.000
  0.044   0.056  -0.002   3.239  -0.000  -0.004   5.515  -0.000
  0.001   0.001  -0.000  -0.000   3.243  -0.000  -0.000   5.523
  0.073   0.092   5.520  -0.004  -0.000   9.458  -0.007  -0.000
  0.080   0.101  -0.004   5.515  -0.000  -0.007   9.449  -0.000
  0.001   0.001  -0.000  -0.000   5.523  -0.000  -0.000   9.462
 -0.000  -0.000   0.000  -0.000   0.006   0.000  -0.000   0.013
 -0.005  -0.006   0.011   0.013  -0.000   0.021   0.023  -0.000
 -0.004  -0.005  -0.003   0.011   0.000  -0.007   0.021   0.000
 -0.000  -0.000  -0.000   0.000   0.011  -0.000   0.001   0.021
  0.002   0.002  -0.012   0.000   0.000  -0.022   0.000   0.000
 total augmentation occupancy for first ion, spin component:            1
  2.739  -0.704   0.347   0.336  -0.008  -0.066  -0.059   0.003  -0.000  -0.014  -0.001   0.003   0.009
 -0.704   0.658  -0.436  -0.457   0.004   0.069   0.071  -0.001   0.001   0.008   0.005  -0.002  -0.004
  0.347  -0.436   1.231   0.044   0.002  -0.201   0.005  -0.000  -0.000   0.041  -0.098   0.000   0.000
  0.336  -0.457   0.044   1.353   0.012   0.005  -0.219  -0.003  -0.001  -0.014   0.094  -0.007  -0.004
 -0.008   0.004   0.002   0.012   1.244   0.000  -0.003  -0.214   0.145   0.001  -0.002   0.034  -0.000
 -0.066   0.069  -0.201   0.005   0.000   0.037  -0.003  -0.000   0.000  -0.007   0.017  -0.000   0.000
 -0.059   0.071   0.005  -0.219  -0.003  -0.003   0.040   0.001  -0.000   0.002  -0.017   0.001   0.001
  0.003  -0.001  -0.000  -0.003  -0.214  -0.000   0.001   0.041  -0.025  -0.000   0.000  -0.006   0.000
 -0.000   0.001  -0.000  -0.001   0.145   0.000  -0.000  -0.025   0.031  -0.000   0.000   0.002  -0.000
 -0.014   0.008   0.041  -0.014   0.001  -0.007   0.002  -0.000  -0.000   0.011  -0.007  -0.001   0.001
 -0.001   0.005  -0.098   0.094  -0.002   0.017  -0.017   0.000   0.000  -0.007   0.032   0.001  -0.002
  0.003  -0.002   0.000  -0.007   0.034  -0.000   0.001  -0.006   0.002  -0.001   0.001   0.009   0.000
  0.009  -0.004   0.000  -0.004  -0.000   0.000   0.001   0.000  -0.000   0.001  -0.002   0.000   0.008


------------------------ aborting loop because EDIFF is reached ----------------------------------------


    CHARGE:  cpu time      0.0055: real time      0.0055
    FORLOC:  cpu time      0.0002: real time      0.0002
    FORNL :  cpu time      0.0346: real time      0.0347
    STRESS:  cpu time      0.2811: real time      0.2820
    FORCOR:  cpu time      0.0072: real time      0.0073
    FORHAR:  cpu time      0.0017: real time      0.0017
    MIXING:  cpu time      0.0046: real time      0.0046
    OFIELD:  cpu time      0.0000: real time      0.0000

  FORCE on cell =-STRESS in cart. coord.  units (eV):
  Direction    XX          YY          ZZ          XY          YZ          ZX
  --------------------------------------------------------------------------------------
  Alpha Z    83.74936    83.74936    83.74936
  Ewald    -408.03330  -453.23823  -521.72206    -5.89341    -0.00001     0.00000
  Hartree    79.26646    62.31502    14.23118    -2.79611    -0.00000     0.00000
  E(xc)    -140.99493  -140.99972  -141.42808    -0.03530    -0.00000    -0.00000
  Local    -232.13560  -175.94498   -63.36162     9.17665     0.00001    -0.00000
  n-local   240.41594   239.81977   242.04008    -0.06724    -0.00000     0.00000
  augment   -11.39322   -11.77211   -12.16598     0.04628    -0.00000     0.00000
  Kinetic   389.76797   396.20517   399.28939    -0.81439     0.00000    -0.00000
  Fock        0.00000     0.00000     0.00000     0.00000     0.00000     0.00000
  -------------------------------------------------------------------------------------
  Total       0.64269     0.13428     0.63226    -0.38352    -0.00000    -0.00000
  in kB       5.08936     1.06338     5.00681    -3.03707    -0.00000    -0.00001
  external pressure =        3.72 kB  Pullay stress =        0.00 kB


 VOLUME and BASIS-vectors are now :
 -----------------------------------------------------------------------------
  energy-cutoff  :      360.00
  volume of cell :      202.32
      direct lattice vectors                 reciprocal lattice vectors
     3.858100176  0.000000000  0.000000000     0.259194929  0.000000000  0.000000000
     0.000000000  4.526575088  0.000000000     0.000000000  0.220917577  0.000000000
     0.000000000  0.000000000 11.585176468     0.000000000  0.000000000  0.086317200

  length of vectors
     3.858100176  4.526575088 11.585176468     0.259194929  0.220917577  0.086317200


 FORCES acting on ions
    electron-ion (+dipol)            ewald-force                    non-local-force                 convergence-correction
 -----------------------------------------------------------------------------------------------
   -.399E+00 0.148E+02 0.299E+02   0.303E+00 -.172E+02 -.327E+02   0.417E-01 0.246E+01 0.297E+01   -.661E-04 0.577E-04 -.791E-03
   -.399E+00 0.148E+02 -.299E+02   0.303E+00 -.172E+02 0.327E+02   0.417E-01 0.246E+01 -.297E+01   -.662E-04 0.580E-04 0.794E-03
   0.399E+00 -.148E+02 -.299E+02   -.303E+00 0.172E+02 0.327E+02   -.418E-01 -.246E+01 -.297E+01   0.660E-04 -.582E-04 0.791E-03
   0.399E+00 -.148E+02 0.299E+02   -.303E+00 0.172E+02 -.327E+02   -.418E-01 -.246E+01 0.297E+01   0.665E-04 -.573E-04 -.794E-03
   0.514E-01 -.166E+02 -.374E+02   0.682E-02 0.182E+02 0.392E+02   -.967E-01 -.150E+01 -.185E+01   0.138E-03 -.362E-03 0.106E-02
   0.514E-01 -.166E+02 0.374E+02   0.682E-02 0.182E+02 -.392E+02   -.967E-01 -.150E+01 0.185E+01   0.138E-03 -.360E-03 -.105E-02
   -.514E-01 0.166E+02 0.374E+02   -.682E-02 -.182E+02 -.392E+02   0.972E-01 0.150E+01 0.185E+01   -.138E-03 0.361E-03 -.106E-02
   -.514E-01 0.166E+02 -.374E+02   -.682E-02 -.182E+02 0.392E+02   0.972E-01 0.150E+01 -.185E+01   -.137E-03 0.362E-03 0.105E-02
 -----------------------------------------------------------------------------------------------
   -.338E-04 0.299E-05 -.286E-05   0.471E-14 -.355E-14 -.711E-14   0.764E-03 0.512E-03 0.111E-05   0.151E-05 0.829E-06 0.152E-05
 
 
 POSITION                                       TOTAL-FORCE (eV/Angst)
 -----------------------------------------------------------------------------------
      3.76025      3.65018      1.52892        -0.053782      0.007266      0.111511
      1.83120      1.38689      4.26367        -0.053782      0.007266     -0.111511
      2.89357      4.09092     10.05626         0.053522     -0.007423     -0.111522
      0.96452      1.82763      7.32150         0.053522     -0.007422      0.111521
      3.76025      3.12157      4.06767        -0.038430      0.039366     -0.030032
      1.83120      0.85829      1.72492        -0.038430      0.039367      0.030033
      2.89357      0.09295      7.51751         0.038690     -0.039210      0.030101
      0.96452      2.35624      9.86026         0.038689     -0.039210     -0.030102
 -----------------------------------------------------------------------------------
    total drift:                                0.000732      0.000516     -0.000000


--------------------------------------------------------------------------------------------------------



  FREE ENERGIE OF THE ION-ELECTRON SYSTEM (eV)
  ---------------------------------------------------
  free  energy   TOTEN  =       -33.70099942 eV

  energy  without entropy=      -33.70099940  energy(sigma->0) =      -33.70099941
 


--------------------------------------------------------------------------------------------------------


    POTLOK:  cpu time      0.2243: real time      0.2252


--------------------------------------------------------------------------------------------------------


     LOOP+:  cpu time      7.8776: real time      7.9138
    4ORBIT:  cpu time      0.0000: real time      0.0000

 total amount of memory used by VASP MPI-rank0    37119. kBytes
=======================================================================

   base      :      30000. kBytes
   nonl-proj :       5406. kBytes
   fftplans  :        334. kBytes
   grid      :        503. kBytes
   one-center:         16. kBytes
   wavefun   :        860. kBytes
 
  
  
 General timing and accounting informations for this job:
 ========================================================
  
                  Total CPU time used (sec):        9.549
                            User time (sec):        9.288
                          System time (sec):        0.261
                         Elapsed time (sec):        9.858
  
                   Maximum memory used (kb):      174296.
                   Average memory used (kb):          N/A
  
                          Minor page faults:        20809
                          Major page faults:           62
                 Voluntary context switches:         2060
