 vasp.6.4.2 20Jul23 (build Oct 12 2023 10:31:02) complex                         
 executed on              LinuxNV date 2025.05.18  07:48:03
 running  160 mpi-ranks, with    1 threads/rank, on   10 nodes
 distrk:  each k-point on   80 cores,    2 groups
 distr:  one band on NCORE=   5 cores,   16 groups


--------------------------------------------------------------------------------------------------------


 INCAR:
   ENCUT = 520.000000
   SIGMA = 0.050000
   EDIFF = 1.00e-06
   ALGO = Normal
   GGA = PE
   PREC = Normal
   SYSTEM = ./
   ICHARG = 2
   ISMEAR = 0
   ISPIN = 1
   ISTART = 0
   ISYM = 0
   KPAR = 2
   LMAXMIX = 4
   NELM = 100
   NPAR = 16
   LASPH = .TRUE.
   LCHARG = .FALSE.
   LWAVE = .FALSE.

 POTCAR:    PAW_PBE Ge 05Jan2001                  
 POTCAR:    PAW_PBE Se 06Sep2000                  
 POTCAR:    PAW_PBE Ge 05Jan2001                  
   VRHFIN =Ge: s2p2                                                                                 
   LEXCH  = PE                                                                                      
   EATOM  =   104.9960 eV,    7.7170 Ry                                                             
                                                                                                    
   TITEL  = PAW_PBE Ge 05Jan2001                                                                    
   LULTRA =        F    use ultrasoft PP ?                                                          
   IUNSCR =        1    unscreen: 0-lin 1-nonlin 2-no                                               
   RPACOR =    2.170    partial core radius                                                         
   POMASS =   72.610; ZVAL   =    4.000    mass and valenz                                          
   RCORE  =    2.300    outmost cutoff radius                                                       
   RWIGS  =    2.300; RWIGS  =    1.217    wigner-seitz radius (au A)                               
   ENMAX  =  173.807; ENMIN  =  130.355 eV                                                          
   ICORE  =        3    local potential                                                             
   LCOR   =        T    correct aug charges                                                         
   LPAW   =        T    paw PP                                                                      
   EAUG   =  385.843                                                                                
   DEXC   =    0.000                                                                                
   RMAX   =    2.342    core radius for proj-oper                                                   
   RAUG   =    1.300    factor for augmentation sphere                                              
   RDEP   =    2.318    radius for radial grids                                                     
   RDEPT  =    2.103    core radius for aug-charge                                                  
                                                                                                    
   Atomic configuration                                                                             
   10 entries                                                                                       
     n  l   j            E        occ.                                                              
     1  0  0.50    -10959.8463   2.0000                                                             
     2  0  0.50     -1371.6056   2.0000                                                             
     2  1  1.50     -1198.4791   6.0000                                                             
     3  0  0.50      -168.4733   2.0000                                                             
     3  1  1.50      -115.6019   6.0000                                                             
     3  2  2.50       -29.3106  10.0000                                                             
     4  0  0.50       -11.7309   2.0000                                                             
     4  1  0.50        -3.8952   2.0000                                                             
     4  2  1.50        -4.0817   0.0000                                                             
     4  3  2.50        -4.0817   0.0000                                                             
   Description                                                                                      
     l       E           TYP  RCUT    TYP  RCUT                                                     
     0    -11.7309493     23  2.300                                                                 
     0     -7.4578696     23  2.300                                                                 
     1     -3.8952261     23  2.300                                                                 
     1      6.1178114     23  2.300                                                                 
     2     -4.0817478     23  2.300                                                                 
     3     -1.3605826      7  2.300                                                                 
  local pseudopotential read in
  partial core-charges read in
  partial kinetic energy density read in
  atomic valenz-charges read in
  non local Contribution for L=            0  read in
    real space projection operators read in
  non local Contribution for L=            0  read in
    real space projection operators read in
  non local Contribution for L=            1  read in
    real space projection operators read in
  non local Contribution for L=            1  read in
    real space projection operators read in
  non local Contribution for L=            2  read in
    real space projection operators read in
    PAW grid and wavefunctions read in
 
   number of l-projection  operators is LMAX  =            5
   number of lm-projection operators is LMMAX =           13
 
 POTCAR:    PAW_PBE Se 06Sep2000                  
   VRHFIN =Se: s2p4                                                                                 
   LEXCH  = PE                                                                                      
   EATOM  =   257.1286 eV,   18.8984 Ry                                                             
                                                                                                    
   TITEL  = PAW_PBE Se 06Sep2000                                                                    
   LULTRA =        F    use ultrasoft PP ?                                                          
   IUNSCR =        1    unscreen: 0-lin 1-nonlin 2-no                                               
   RPACOR =    1.900    partial core radius                                                         
   POMASS =   78.960; ZVAL   =    6.000    mass and valenz                                          
   RCORE  =    2.100    outmost cutoff radius                                                       
   RWIGS  =    2.200; RWIGS  =    1.164    wigner-seitz radius (au A)                               
   ENMAX  =  211.555; ENMIN  =  158.666 eV                                                          
   ICORE  =        3    local potential                                                             
   LCOR   =        T    correct aug charges                                                         
   LPAW   =        T    paw PP                                                                      
   EAUG   =  446.842                                                                                
   DEXC   =    0.000                                                                                
   RMAX   =    2.147    core radius for proj-oper                                                   
   RAUG   =    1.300    factor for augmentation sphere                                              
   RDEP   =    2.177    radius for radial grids                                                     
   RDEPT  =    1.928    core radius for aug-charge                                                  
                                                                                                    
   Atomic configuration                                                                             
   10 entries                                                                                       
     n  l   j            E        occ.                                                              
     1  0  0.50    -12503.4787   2.0000                                                             
     2  0  0.50     -1606.9547   2.0000                                                             
     2  1  1.50     -1413.3140   6.0000                                                             
     3  0  0.50      -213.4885   2.0000                                                             
     3  1  1.50      -152.9538   6.0000                                                             
     3  2  2.50       -53.1221  10.0000                                                             
     4  0  0.50       -17.2865   2.0000                                                             
     4  1  0.50        -6.5110   4.0000                                                             
     4  2  2.50        -6.8029   0.0000                                                             
     4  3  2.50        -6.8029   0.0000                                                             
   Description                                                                                      
     l       E           TYP  RCUT    TYP  RCUT                                                     
     0    -17.2865377     23  2.100                                                                 
     0    -15.3094411     23  2.100                                                                 
     1     -6.5110275     23  2.100                                                                 
     1     -0.0695192     23  2.100                                                                 
     2     -6.8029130     23  2.100                                                                 
     3     -1.3605826      7  2.100                                                                 
  local pseudopotential read in
  partial core-charges read in
  partial kinetic energy density read in
  atomic valenz-charges read in
  non local Contribution for L=            0  read in
    real space projection operators read in
  non local Contribution for L=            0  read in
    real space projection operators read in
  non local Contribution for L=            1  read in
    real space projection operators read in
  non local Contribution for L=            1  read in
    real space projection operators read in
  non local Contribution for L=            2  read in
    real space projection operators read in
    PAW grid and wavefunctions read in
 
   number of l-projection  operators is LMAX  =            5
   number of lm-projection operators is LMMAX =           13
 
  PAW_PBE Ge 05Jan2001                  :
 energy of atom  1       EATOM= -104.9960
 kinetic energy error for atom=    0.0002 (will be added to EATOM!!)
  PAW_PBE Se 06Sep2000                  :
 energy of atom  2       EATOM= -257.1286
 kinetic energy error for atom=    0.0007 (will be added to EATOM!!)
 
 
 POSCAR: Ge Se
  positions in cartesian coordinates
  No initial velocities read in
 exchange correlation table for  LEXCH =        8
   RHO(1)=    0.500       N(1)  =     2000
   RHO(2)=  100.500       N(2)  =     4000
 


--------------------------------------------------------------------------------------------------------


 ion  position               nearest neighbor table
   1  0.612  0.389  0.123-   6 2.60   6 2.60   5 2.60
   2  0.112  0.889  0.377-   5 2.60   5 2.60   6 2.60
   3  0.750  0.886  0.877-   8 2.60   8 2.60   7 2.60
   4  0.250  0.386  0.623-   7 2.60   7 2.60   8 2.60
   5  0.612  0.269  0.352-   2 2.60   2 2.60   1 2.60
   6  0.112  0.769  0.148-   1 2.60   1 2.60   2 2.60
   7  0.750  0.007  0.648-   4 2.60   4 2.60   3 2.60
   8  0.250  0.507  0.852-   3 2.60   3 2.60   4 2.60
 

IMPORTANT INFORMATION: All symmetrisations will be switched off!
NOSYMM: (Re-)initialisation of all symmetry stuff for point group C_1.


----------------------------------------------------------------------------------------

                                     Primitive cell                                     

  volume of cell :     193.5913

  direct lattice vectors                    reciprocal lattice vectors
     3.858100176  0.000000000  0.000000000     0.259194929  0.000000000  0.000000000
     0.000000000  4.526575088  0.000000000     0.000000000  0.220917577  0.000000000
     0.000000000  0.000000000 11.085176468     0.000000000  0.000000000  0.090210562

  length of vectors
     3.858100176  4.526575088 11.085176468     0.259194929  0.220917577  0.090210562

  position of ions in fractional coordinates (direct lattice)
     0.612318841  0.389482753  0.122982664
     0.112318841  0.889482753  0.377017336
     0.750000000  0.885879566  0.877017336
     0.250000000  0.385879566  0.622982664
     0.612318841  0.268672208  0.352381810
     0.112318841  0.768672208  0.147618190
     0.750000000  0.006690111  0.647618190
     0.250000000  0.506690111  0.852381810

  ion indices of the primitive-cell ions
   primitive index   ion index
                 1           1
                 2           2
                 3           3
                 4           4
                 5           5
                 6           6
                 7           7
                 8           8

----------------------------------------------------------------------------------------

 
 
 KPOINTS: KPOINTS created by Atomic Simulation Env

Automatic generation of k-mesh.
 Grid dimensions read from file:
 generate k-points for:    6    6    2

 Generating k-lattice:

  Cartesian coordinates                     Fractional coordinates (reciprocal lattice)
     0.043199155  0.000000000  0.000000000     0.166666667  0.000000000  0.000000000
     0.000000000  0.036819596  0.000000000     0.000000000  0.166666667  0.000000000
     0.000000000  0.000000000  0.045105281     0.000000000  0.000000000  0.500000000

  Length of vectors
     0.043199155  0.036819596  0.045105281

  Shift w.r.t. Gamma in fractional coordinates (k-lattice)
     0.000000000  0.000000000  0.000000000

 
 Subroutine IBZKPT returns following result:
 ===========================================
 
 Found     40 irreducible k-points:
 
 Following reciprocal coordinates:
            Coordinates               Weight
  0.000000  0.000000  0.000000      1.000000
  0.166667  0.000000  0.000000      2.000000
  0.333333  0.000000  0.000000      2.000000
  0.500000  0.000000  0.000000      1.000000
  0.000000  0.166667  0.000000      2.000000
  0.166667  0.166667  0.000000      2.000000
  0.166667 -0.166667  0.000000      2.000000
  0.333333  0.166667  0.000000      2.000000
  0.333333 -0.166667  0.000000      2.000000
  0.500000  0.166667  0.000000      2.000000
  0.000000  0.333333  0.000000      2.000000
  0.166667  0.333333  0.000000      2.000000
  0.166667 -0.333333  0.000000      2.000000
  0.333333  0.333333  0.000000      2.000000
  0.333333 -0.333333  0.000000      2.000000
  0.500000  0.333333  0.000000      2.000000
  0.000000  0.500000  0.000000      1.000000
  0.166667  0.500000  0.000000      2.000000
  0.333333  0.500000  0.000000      2.000000
  0.500000  0.500000  0.000000      1.000000
  0.000000  0.000000  0.500000      1.000000
  0.166667  0.000000  0.500000      2.000000
  0.333333  0.000000  0.500000      2.000000
  0.500000  0.000000  0.500000      1.000000
  0.000000  0.166667  0.500000      2.000000
  0.166667  0.166667  0.500000      2.000000
  0.166667 -0.166667  0.500000      2.000000
  0.333333  0.166667  0.500000      2.000000
  0.333333 -0.166667  0.500000      2.000000
  0.500000  0.166667  0.500000      2.000000
  0.000000  0.333333  0.500000      2.000000
  0.166667  0.333333  0.500000      2.000000
  0.166667 -0.333333  0.500000      2.000000
  0.333333  0.333333  0.500000      2.000000
  0.333333 -0.333333  0.500000      2.000000
  0.500000  0.333333  0.500000      2.000000
  0.000000  0.500000  0.500000      1.000000
  0.166667  0.500000  0.500000      2.000000
  0.333333  0.500000  0.500000      2.000000
  0.500000  0.500000  0.500000      1.000000
 
 Following cartesian coordinates:
            Coordinates               Weight
  0.000000  0.000000  0.000000      1.000000
  0.043199  0.000000  0.000000      2.000000
  0.086398  0.000000  0.000000      2.000000
  0.129597  0.000000  0.000000      1.000000
  0.000000  0.036820  0.000000      2.000000
  0.043199  0.036820  0.000000      2.000000
  0.043199 -0.036820  0.000000      2.000000
  0.086398  0.036820  0.000000      2.000000
  0.086398 -0.036820  0.000000      2.000000
  0.129597  0.036820  0.000000      2.000000
  0.000000  0.073639  0.000000      2.000000
  0.043199  0.073639  0.000000      2.000000
  0.043199 -0.073639  0.000000      2.000000
  0.086398  0.073639  0.000000      2.000000
  0.086398 -0.073639  0.000000      2.000000
  0.129597  0.073639  0.000000      2.000000
  0.000000  0.110459  0.000000      1.000000
  0.043199  0.110459  0.000000      2.000000
  0.086398  0.110459  0.000000      2.000000
  0.129597  0.110459  0.000000      1.000000
  0.000000  0.000000  0.045105      1.000000
  0.043199  0.000000  0.045105      2.000000
  0.086398  0.000000  0.045105      2.000000
  0.129597  0.000000  0.045105      1.000000
  0.000000  0.036820  0.045105      2.000000
  0.043199  0.036820  0.045105      2.000000
  0.043199 -0.036820  0.045105      2.000000
  0.086398  0.036820  0.045105      2.000000
  0.086398 -0.036820  0.045105      2.000000
  0.129597  0.036820  0.045105      2.000000
  0.000000  0.073639  0.045105      2.000000
  0.043199  0.073639  0.045105      2.000000
  0.043199 -0.073639  0.045105      2.000000
  0.086398  0.073639  0.045105      2.000000
  0.086398 -0.073639  0.045105      2.000000
  0.129597  0.073639  0.045105      2.000000
  0.000000  0.110459  0.045105      1.000000
  0.043199  0.110459  0.045105      2.000000
  0.086398  0.110459  0.045105      2.000000
  0.129597  0.110459  0.045105      1.000000
 


--------------------------------------------------------------------------------------------------------




 Dimension of arrays:
   k-points           NKPTS =     40   k-points in BZ     NKDIM =     40   number of bands    NBANDS=     32
   number of dos      NEDOS =    301   number of ions     NIONS =      8
   non local maximal  LDIM  =      5   non local SUM 2l+1 LMDIM =     13
   total plane-waves  NPLWV =  43008
   max r-space proj   IRMAX =      1   max aug-charges    IRDMAX=  12272
   dimension x,y,z NGX =    24 NGY =   28 NGZ =   64
   dimension x,y,z NGXF=    48 NGYF=   56 NGZF=  128
   support grid    NGXF=    48 NGYF=   56 NGZF=  128
   ions per type =               4   4
   NGX,Y,Z   is equivalent  to a cutoff of  10.34, 10.28,  9.60 a.u.
   NGXF,Y,Z  is equivalent  to a cutoff of  20.68, 20.57, 19.20 a.u.

 SYSTEM =  ./                                      
 POSCAR =  Ge Se                                   

 Startparameter for this run:
   NWRITE =      2    write-flag & timer
   PREC   = normal    normal or accurate (medium, high low for compatibility)
   ISTART =      0    job   : 0-new  1-cont  2-samecut
   ICHARG =      2    charge: 1-file 2-atom 10-const
   ISPIN  =      1    spin polarized calculation?
   LNONCOLLINEAR =      F non collinear calculations
   LSORBIT =      F    spin-orbit coupling
   INIWAV =      1    electr: 0-lowe 1-rand  2-diag
   LASPH  =      T    aspherical Exc in radial PAW
 Electronic Relaxation 1
   ENCUT  =  520.0 eV  38.22 Ry    6.18 a.u.   7.17  8.42 20.61*2*pi/ulx,y,z
   ENINI  =  520.0     initial cutoff
   ENAUG  =  446.8 eV  augmentation charge cutoff
   NELM   =    100;   NELMIN=  2; NELMDL= -5     # of ELM steps 
   EDIFF  = 0.1E-05   stopping-criterion for ELM
   LREAL  =      F    real-space projection
   NLSPLINE    = F    spline interpolate recip. space projectors
   LCOMPAT=      F    compatible to vasp.4.4
   GGA_COMPAT  = T    GGA compatible to vasp.4.4-vasp.4.6
   LMAXPAW     = -100 max onsite density
   LMAXMIX     =    4 max onsite mixed and CHGCAR
   VOSKOWN=      0    Vosko Wilk Nusair interpolation
   ROPT   =    0.00000   0.00000
 Ionic relaxation
   EDIFFG = 0.1E-04   stopping-criterion for IOM
   NSW    =      0    number of steps for IOM
   NBLOCK =      1;   KBLOCK =      1    inner block; outer block 
   IBRION =     -1    ionic relax: 0-MD 1-quasi-New 2-CG
   NFREE  =      0    steps in history (QN), initial steepest desc. (CG)
   ISIF   =      2    stress and relaxation
   IWAVPR =     10    prediction:  0-non 1-charg 2-wave 3-comb
   ISYM   =      0    0-nonsym 1-usesym 2-fastsym
   LCORR  =      T    Harris-Foulkes like correction to forces

   POTIM  = 0.5000    time-step for ionic-motion
   TEIN   =    0.0    initial temperature
   TEBEG  =    0.0;   TEEND  =   0.0 temperature during run
   SMASS  =  -3.00    Nose mass-parameter (am)
   estimated Nose-frequenzy (Omega)   =  0.10E-29 period in steps = 0.13E+47 mass=  -0.340E-27a.u.
   SCALEE = 1.0000    scale energy and forces
   NPACO  =    256;   APACO  = 10.0  distance and # of slots for P.C.
   PSTRESS=    0.0 pullay stress

  Mass of Ions in am
   POMASS =  72.61 78.96
  Ionic Valenz
   ZVAL   =   4.00  6.00
  Atomic Wigner-Seitz radii
   RWIGS  =  -1.00 -1.00
  virtual crystal weights 
   VCA    =   1.00  1.00
   NELECT =      40.0000    total number of electrons
   NUPDOWN=      -1.0000    fix difference up-down

 DOS related values:
   EMIN   =  10.00;   EMAX   =-10.00  energy-range for DOS
   EFERMI =   0.00;   METHOD = LEGACY      
   ISMEAR =     0;   SIGMA  =   0.05  broadening in eV -4-tet -1-fermi 0-gaus

 Electronic relaxation 2 (details)
   IALGO  =     38    algorithm
   LDIAG  =      T    sub-space diagonalisation (order eigenvalues)
   LSUBROT=      F    optimize rotation matrix (better conditioning)
   TURBO    =      0    0=normal 1=particle mesh
   IRESTART =      0    0=no restart 2=restart with 2 vectors
   NREBOOT  =      0    no. of reboots
   NMIN     =      0    reboot dimension
   EREF     =   0.00    reference energy to select bands
   IMIX   =      4    mixing-type and parameters
     AMIX     =   0.40;   BMIX     =  1.00
     AMIX_MAG =   1.60;   BMIX_MAG =  1.00
     AMIN     =   0.10
     WC   =   100.;   INIMIX=   1;  MIXPRE=   1;  MAXMIX= -45

 Intra band minimization:
   WEIMIN = 0.0000     energy-eigenvalue tresh-hold
   EBREAK =  0.78E-08  absolut break condition
   DEPER  =   0.30     relativ break condition  

   TIME   =   0.40     timestep for ELM

  volume/ion in A,a.u.               =      24.20       163.30
  Fermi-wavevector in a.u.,A,eV,Ry     =   0.967831  1.828935 12.744535  0.936697
  Thomas-Fermi vector in A             =   2.097750
 
 Write flags
   LWAVE        =      F    write WAVECAR
   LDOWNSAMPLE  =      F    k-point downsampling of WAVECAR
   LCHARG       =      F    write CHGCAR
   LVTOT        =      F    write LOCPOT, total local potential
   LVHAR        =      F    write LOCPOT, Hartree potential only
   LELF         =      F    write electronic localiz. function (ELF)
   LORBIT       =      0    0 simple, 1 ext, 2 COOP (PROOUT), +10 PAW based schemes


 Dipole corrections
   LMONO  =      F    monopole corrections only (constant potential shift)
   LDIPOL =      F    correct potential (dipole corrections)
   IDIPOL =      0    1-x, 2-y, 3-z, 4-all directions 
   EPSILON=  1.0000000 bulk dielectric constant

 Exchange correlation treatment:
   GGA     =    PE    GGA type
   LEXCH   =     8    internal setting for exchange type
   LIBXC   =     F    Libxc                    
   VOSKOWN =     0    Vosko Wilk Nusair interpolation
   LHFCALC =     F    Hartree Fock is set to
   LHFONE  =     F    Hartree Fock one center treatment
   AEXX    =    0.0000 exact exchange contribution

 Linear response parameters
   LEPSILON=     F    determine dielectric tensor
   LRPA    =     F    only Hartree local field effects (RPA)
   LNABLA  =     F    use nabla operator in PAW spheres
   LVEL    =     F    velocity operator in full k-point grid
   CSHIFT  =0.1000    complex shift for real part using Kramers Kronig
   OMEGAMAX=  -1.0    maximum frequency
   DEG_THRESHOLD= 0.2000000E-02 threshold for treating states as degnerate
   RTIME   =   -0.100 relaxation time in fs
  (WPLASMAI=    0.000 imaginary part of plasma frequency in eV, 0.658/RTIME)
   DFIELD  = 0.0000000 0.0000000 0.0000000 field for delta impulse in time
 
  Optional k-point grid parameters
   LKPOINTS_OPT  =     F    use optional k-point grid
   KPOINTS_OPT_MODE=     1    mode for optional k-point grid
 
 Orbital magnetization related:
   ORBITALMAG=     F  switch on orbital magnetization
   LCHIMAG   =     F  perturbation theory with respect to B field
   DQ        =  0.001000  dq finite difference perturbation B field
   LLRAUG    =     F  two centre corrections for induced B field
   LBONE     =     F  B-component reconstruction in AE one-centre
   LVGVCALC  =     T  calculate vGv susceptibility
   LVGVAPPL  =     F  apply vGv susceptibility instead of pGv for G=0

 Random number generation:
   RANDOM_GENERATOR = DEFAULT
   PCG_SEED         = not used


--------------------------------------------------------------------------------------------------------


 Static calculation
 charge density and potential will be updated during run
 non-spin polarized calculation
 Variant of blocked Davidson
 Davidson routine will perform the subspace rotation
 perform sub-space diagonalisation
    after iterative eigenvector-optimisation
 modified Broyden-mixing scheme, WC =      100.0
 initial mixing is a Kerker type mixing with AMIX =  0.4000 and BMIX =      1.0000
 Hartree-type preconditioning will be used
 using additional bands            12
 reciprocal scheme for non local part
 use partial core corrections
 calculate Harris-corrections to forces 
   (improved forces if not selfconsistent)
 use gradient corrections 
 use of overlap-Matrix (Vanderbilt PP)
 Gauss-broadening in eV      SIGMA  =   0.05


--------------------------------------------------------------------------------------------------------


  energy-cutoff  :      520.00
  volume of cell :      193.59
      direct lattice vectors                 reciprocal lattice vectors
     3.858100176  0.000000000  0.000000000     0.259194929  0.000000000  0.000000000
     0.000000000  4.526575088  0.000000000     0.000000000  0.220917577  0.000000000
     0.000000000  0.000000000 11.085176468     0.000000000  0.000000000  0.090210562

  length of vectors
     3.858100176  4.526575088 11.085176468     0.259194929  0.220917577  0.090210562


 
 k-points in units of 2pi/SCALE and weight: KPOINTS created by Atomic Simulation Env
   0.00000000  0.00000000  0.00000000       0.014
   0.04319915  0.00000000  0.00000000       0.028
   0.08639831  0.00000000  0.00000000       0.028
   0.12959746  0.00000000  0.00000000       0.014
   0.00000000  0.03681960  0.00000000       0.028
   0.04319915  0.03681960  0.00000000       0.028
   0.04319915 -0.03681960  0.00000000       0.028
   0.08639831  0.03681960  0.00000000       0.028
   0.08639831 -0.03681960  0.00000000       0.028
   0.12959746  0.03681960  0.00000000       0.028
   0.00000000  0.07363919  0.00000000       0.028
   0.04319915  0.07363919  0.00000000       0.028
   0.04319915 -0.07363919  0.00000000       0.028
   0.08639831  0.07363919  0.00000000       0.028
   0.08639831 -0.07363919  0.00000000       0.028
   0.12959746  0.07363919  0.00000000       0.028
   0.00000000  0.11045879  0.00000000       0.014
   0.04319915  0.11045879  0.00000000       0.028
   0.08639831  0.11045879  0.00000000       0.028
   0.12959746  0.11045879  0.00000000       0.014
   0.00000000  0.00000000  0.04510528       0.014
   0.04319915  0.00000000  0.04510528       0.028
   0.08639831  0.00000000  0.04510528       0.028
   0.12959746  0.00000000  0.04510528       0.014
   0.00000000  0.03681960  0.04510528       0.028
   0.04319915  0.03681960  0.04510528       0.028
   0.04319915 -0.03681960  0.04510528       0.028
   0.08639831  0.03681960  0.04510528       0.028
   0.08639831 -0.03681960  0.04510528       0.028
   0.12959746  0.03681960  0.04510528       0.028
   0.00000000  0.07363919  0.04510528       0.028
   0.04319915  0.07363919  0.04510528       0.028
   0.04319915 -0.07363919  0.04510528       0.028
   0.08639831  0.07363919  0.04510528       0.028
   0.08639831 -0.07363919  0.04510528       0.028
   0.12959746  0.07363919  0.04510528       0.028
   0.00000000  0.11045879  0.04510528       0.014
   0.04319915  0.11045879  0.04510528       0.028
   0.08639831  0.11045879  0.04510528       0.028
   0.12959746  0.11045879  0.04510528       0.014
 
 k-points in reciprocal lattice and weights: KPOINTS created by Atomic Simulation Env
   0.00000000  0.00000000  0.00000000       0.014
   0.16666667  0.00000000  0.00000000       0.028
   0.33333333  0.00000000  0.00000000       0.028
   0.50000000  0.00000000  0.00000000       0.014
   0.00000000  0.16666667  0.00000000       0.028
   0.16666667  0.16666667  0.00000000       0.028
   0.16666667 -0.16666667  0.00000000       0.028
   0.33333333  0.16666667  0.00000000       0.028
   0.33333333 -0.16666667  0.00000000       0.028
   0.50000000  0.16666667  0.00000000       0.028
   0.00000000  0.33333333  0.00000000       0.028
   0.16666667  0.33333333  0.00000000       0.028
   0.16666667 -0.33333333  0.00000000       0.028
   0.33333333  0.33333333  0.00000000       0.028
   0.33333333 -0.33333333  0.00000000       0.028
   0.50000000  0.33333333  0.00000000       0.028
   0.00000000  0.50000000  0.00000000       0.014
   0.16666667  0.50000000  0.00000000       0.028
   0.33333333  0.50000000  0.00000000       0.028
   0.50000000  0.50000000  0.00000000       0.014
   0.00000000  0.00000000  0.50000000       0.014
   0.16666667  0.00000000  0.50000000       0.028
   0.33333333  0.00000000  0.50000000       0.028
   0.50000000  0.00000000  0.50000000       0.014
   0.00000000  0.16666667  0.50000000       0.028
   0.16666667  0.16666667  0.50000000       0.028
   0.16666667 -0.16666667  0.50000000       0.028
   0.33333333  0.16666667  0.50000000       0.028
   0.33333333 -0.16666667  0.50000000       0.028
   0.50000000  0.16666667  0.50000000       0.028
   0.00000000  0.33333333  0.50000000       0.028
   0.16666667  0.33333333  0.50000000       0.028
   0.16666667 -0.33333333  0.50000000       0.028
   0.33333333  0.33333333  0.50000000       0.028
   0.33333333 -0.33333333  0.50000000       0.028
   0.50000000  0.33333333  0.50000000       0.028
   0.00000000  0.50000000  0.50000000       0.014
   0.16666667  0.50000000  0.50000000       0.028
   0.33333333  0.50000000  0.50000000       0.028
   0.50000000  0.50000000  0.50000000       0.014
 
 position of ions in fractional coordinates (direct lattice) 
   0.61231884  0.38948275  0.12298266
   0.11231884  0.88948275  0.37701734
   0.75000000  0.88587957  0.87701734
   0.25000000  0.38587957  0.62298266
   0.61231884  0.26867221  0.35238181
   0.11231884  0.76867221  0.14761819
   0.75000000  0.00669011  0.64761819
   0.25000000  0.50669011  0.85238181
 
 position of ions in cartesian coordinates  (Angst):
   2.36238743  1.76302293  1.36328454
   0.43333734  4.02631047  4.17930370
   2.89357513  4.01000037  9.72189193
   0.96452504  1.74671283  6.90587277
   2.36238743  1.21616492  3.90621455
   0.43333734  3.47945247  1.63637368
   2.89357513  0.03028329  7.17896192
   0.96452504  2.29357083  9.44880278
 


--------------------------------------------------------------------------------------------------------


 k-point   1 :   0.0000 0.0000 0.0000  plane waves:    5211
 k-point   2 :   0.1667 0.0000 0.0000  plane waves:    5225
 k-point   3 :   0.3333 0.0000 0.0000  plane waves:    5224
 k-point   4 :   0.5000 0.0000 0.0000  plane waves:    5258
 k-point   5 :   0.0000 0.1667 0.0000  plane waves:    5209
 k-point   6 :   0.1667 0.1667 0.0000  plane waves:    5201
 k-point   7 :   0.1667-0.1667 0.0000  plane waves:    5201
 k-point   8 :   0.3333 0.1667 0.0000  plane waves:    5230
 k-point   9 :   0.3333-0.1667 0.0000  plane waves:    5230
 k-point  10 :   0.5000 0.1667 0.0000  plane waves:    5236
 k-point  11 :   0.0000 0.3333 0.0000  plane waves:    5213
 k-point  12 :   0.1667 0.3333 0.0000  plane waves:    5199
 k-point  13 :   0.1667-0.3333 0.0000  plane waves:    5199
 k-point  14 :   0.3333 0.3333 0.0000  plane waves:    5211
 k-point  15 :   0.3333-0.3333 0.0000  plane waves:    5211
 k-point  16 :   0.5000 0.3333 0.0000  plane waves:    5230
 k-point  17 :   0.0000 0.5000 0.0000  plane waves:    5220
 k-point  18 :   0.1667 0.5000 0.0000  plane waves:    5208
 k-point  19 :   0.3333 0.5000 0.0000  plane waves:    5230
 k-point  20 :   0.5000 0.5000 0.0000  plane waves:    5180
 k-point  21 :   0.0000 0.0000 0.5000  plane waves:    5210
 k-point  22 :   0.1667 0.0000 0.5000  plane waves:    5178
 k-point  23 :   0.3333 0.0000 0.5000  plane waves:    5214
 k-point  24 :   0.5000 0.0000 0.5000  plane waves:    5232
 k-point  25 :   0.0000 0.1667 0.5000  plane waves:    5224
 k-point  26 :   0.1667 0.1667 0.5000  plane waves:    5210
 k-point  27 :   0.1667-0.1667 0.5000  plane waves:    5210
 k-point  28 :   0.3333 0.1667 0.5000  plane waves:    5196
 k-point  29 :   0.3333-0.1667 0.5000  plane waves:    5196
 k-point  30 :   0.5000 0.1667 0.5000  plane waves:    5224
 k-point  31 :   0.0000 0.3333 0.5000  plane waves:    5202
 k-point  32 :   0.1667 0.3333 0.5000  plane waves:    5214
 k-point  33 :   0.1667-0.3333 0.5000  plane waves:    5214
 k-point  34 :   0.3333 0.3333 0.5000  plane waves:    5216
 k-point  35 :   0.3333-0.3333 0.5000  plane waves:    5216
 k-point  36 :   0.5000 0.3333 0.5000  plane waves:    5216
 k-point  37 :   0.0000 0.5000 0.5000  plane waves:    5212
 k-point  38 :   0.1667 0.5000 0.5000  plane waves:    5192
 k-point  39 :   0.3333 0.5000 0.5000  plane waves:    5208
 k-point  40 :   0.5000 0.5000 0.5000  plane waves:    5208

 maximum and minimum number of plane-waves per node :      1076     1017

 maximum number of plane-waves:      5258
 maximum index in each direction: 
   IXMAX=    7   IYMAX=    8   IZMAX=   20
   IXMIN=   -7   IYMIN=   -8   IZMIN=  -21


 parallel 3D FFT for wavefunctions:
    minimum data exchange during FFTs selected (reduces bandwidth)
 parallel 3D FFT for charge:
    minimum data exchange during FFTs selected (reduces bandwidth)


 total amount of memory used by VASP MPI-rank0    41770. kBytes
=======================================================================

   base      :      30000. kBytes
   nonl-proj :       9056. kBytes
   fftplans  :        519. kBytes
   grid      :        766. kBytes
   one-center:         16. kBytes
   wavefun   :       1413. kBytes
 
     INWAV:  cpu time      0.0000: real time      0.0001
 Broyden mixing: mesh for mixing (old mesh)
   NGX = 15   NGY = 17   NGZ = 41
  (NGX  = 48   NGY  = 56   NGZ  =128)
  gives a total of  10455 points

 initial charge density was supplied:
 charge density of overlapping atoms calculated
 number of electron      40.0000000 magnetization 
 keeping initial charge density in first step


--------------------------------------------------------------------------------------------------------


 Maximum index for augmentation-charges           525 (set IRDMAX)


--------------------------------------------------------------------------------------------------------


 First call to EWALD:  gamma=   0.306
 Maximum number of real-space cells 4x 3x 2
 Maximum number of reciprocal cells 2x 2x 5

    FEWALD:  cpu time      0.0012: real time      0.0012


--------------------------------------- Ionic step        1  -------------------------------------------




--------------------------------------- Iteration      1(   1)  ---------------------------------------


    POTLOK:  cpu time      0.0110: real time      0.0111
    SETDIJ:  cpu time      0.2181: real time      0.2187
     EDDAV:  cpu time      0.3480: real time      0.3501
       DOS:  cpu time      0.0011: real time      0.0011
    --------------------------------------------
      LOOP:  cpu time      0.5782: real time      0.5811

 eigenvalue-minimisations  :  2560
 total energy-change (2. order) : 0.1634221E+03  (-0.1588466E+04)
 number of electron      40.0000000 magnetization 
 augmentation part       40.0000000 magnetization 

 Free energy of the ion-electron system (eV)
  ---------------------------------------------------
  alpha Z        PSCENC =        87.52689448
  Ewald energy   TEWEN  =     -1415.88353684
  -Hartree energ DENC   =      -131.13396074
  -exchange      EXHF   =         0.00000000
  -V(xc)+E(xc)   XCENC  =       -33.36268242
  PAW double counting   =      1193.78262552    -1080.73714043
  entropy T*S    EENTRO =        -0.00365515
  eigenvalues    EBANDS =        94.73896414
  atomic energy  EATOM  =      1448.49460871
  Solvation  Ediel_sol  =         0.00000000
  ---------------------------------------------------
  free energy    TOTEN  =       163.42211727 eV

  energy without entropy =      163.42577242  energy(sigma->0) =      163.42394484


--------------------------------------------------------------------------------------------------------




--------------------------------------- Iteration      1(   2)  ---------------------------------------


     EDDAV:  cpu time      0.4834: real time      0.4871
       DOS:  cpu time      0.0005: real time      0.0005
    --------------------------------------------
      LOOP:  cpu time      0.4839: real time      0.4876

 eigenvalue-minimisations  :  3632
 total energy-change (2. order) :-0.1857420E+03  (-0.1801620E+03)
 number of electron      40.0000000 magnetization 
 augmentation part       40.0000000 magnetization 

 Free energy of the ion-electron system (eV)
  ---------------------------------------------------
  alpha Z        PSCENC =        87.52689448
  Ewald energy   TEWEN  =     -1415.88353684
  -Hartree energ DENC   =      -131.13396074
  -exchange      EXHF   =         0.00000000
  -V(xc)+E(xc)   XCENC  =       -33.36268242
  PAW double counting   =      1193.78262552    -1080.73714043
  entropy T*S    EENTRO =        -0.00000000
  eigenvalues    EBANDS =       -91.00672475
  atomic energy  EATOM  =      1448.49460871
  Solvation  Ediel_sol  =         0.00000000
  ---------------------------------------------------
  free energy    TOTEN  =       -22.31991647 eV

  energy without entropy =      -22.31991647  energy(sigma->0) =      -22.31991647


--------------------------------------------------------------------------------------------------------




--------------------------------------- Iteration      1(   3)  ---------------------------------------


     EDDAV:  cpu time      0.5121: real time      0.5151
       DOS:  cpu time      0.0006: real time      0.0006
    --------------------------------------------
      LOOP:  cpu time      0.5127: real time      0.5157

 eigenvalue-minimisations  :  3312
 total energy-change (2. order) :-0.1154691E+02  (-0.1151181E+02)
 number of electron      40.0000000 magnetization 
 augmentation part       40.0000000 magnetization 

 Free energy of the ion-electron system (eV)
  ---------------------------------------------------
  alpha Z        PSCENC =        87.52689448
  Ewald energy   TEWEN  =     -1415.88353684
  -Hartree energ DENC   =      -131.13396074
  -exchange      EXHF   =         0.00000000
  -V(xc)+E(xc)   XCENC  =       -33.36268242
  PAW double counting   =      1193.78262552    -1080.73714043
  entropy T*S    EENTRO =        -0.00000000
  eigenvalues    EBANDS =      -102.55363842
  atomic energy  EATOM  =      1448.49460871
  Solvation  Ediel_sol  =         0.00000000
  ---------------------------------------------------
  free energy    TOTEN  =       -33.86683014 eV

  energy without entropy =      -33.86683014  energy(sigma->0) =      -33.86683014


--------------------------------------------------------------------------------------------------------




--------------------------------------- Iteration      1(   4)  ---------------------------------------


     EDDAV:  cpu time      0.4375: real time      0.4400
       DOS:  cpu time      0.0005: real time      0.0005
    --------------------------------------------
      LOOP:  cpu time      0.4380: real time      0.4405

 eigenvalue-minimisations  :  3120
 total energy-change (2. order) :-0.8837508E-01  (-0.8836336E-01)
 number of electron      40.0000000 magnetization 
 augmentation part       40.0000000 magnetization 

 Free energy of the ion-electron system (eV)
  ---------------------------------------------------
  alpha Z        PSCENC =        87.52689448
  Ewald energy   TEWEN  =     -1415.88353684
  -Hartree energ DENC   =      -131.13396074
  -exchange      EXHF   =         0.00000000
  -V(xc)+E(xc)   XCENC  =       -33.36268242
  PAW double counting   =      1193.78262552    -1080.73714043
  entropy T*S    EENTRO =        -0.00000000
  eigenvalues    EBANDS =      -102.64201350
  atomic energy  EATOM  =      1448.49460871
  Solvation  Ediel_sol  =         0.00000000
  ---------------------------------------------------
  free energy    TOTEN  =       -33.95520522 eV

  energy without entropy =      -33.95520522  energy(sigma->0) =      -33.95520522


--------------------------------------------------------------------------------------------------------




--------------------------------------- Iteration      1(   5)  ---------------------------------------


     EDDAV:  cpu time      0.4439: real time      0.4458
       DOS:  cpu time      0.0005: real time      0.0005
    CHARGE:  cpu time      0.0091: real time      0.0091
    MIXING:  cpu time      0.0008: real time      0.0008
    --------------------------------------------
      LOOP:  cpu time      0.4543: real time      0.4562

 eigenvalue-minimisations  :  3216
 total energy-change (2. order) :-0.5443113E-03  (-0.5443077E-03)
 number of electron      39.9999996 magnetization 
 augmentation part       -7.4312631 magnetization 

 Broyden mixing:
  rms(total) = 0.64954E+00    rms(broyden)= 0.64954E+00
  rms(prec ) = 0.73423E+00
  weight for this iteration     100.00

 Free energy of the ion-electron system (eV)
  ---------------------------------------------------
  alpha Z        PSCENC =        87.52689448
  Ewald energy   TEWEN  =     -1415.88353684
  -Hartree energ DENC   =      -131.13396074
  -exchange      EXHF   =         0.00000000
  -V(xc)+E(xc)   XCENC  =       -33.36268242
  PAW double counting   =      1193.78262552    -1080.73714043
  entropy T*S    EENTRO =        -0.00000000
  eigenvalues    EBANDS =      -102.64255781
  atomic energy  EATOM  =      1448.49460871
  Solvation  Ediel_sol  =         0.00000000
  ---------------------------------------------------
  free energy    TOTEN  =       -33.95574953 eV

  energy without entropy =      -33.95574953  energy(sigma->0) =      -33.95574953


--------------------------------------------------------------------------------------------------------




--------------------------------------- Iteration      1(   6)  ---------------------------------------


    POTLOK:  cpu time      0.0103: real time      0.0104
    SETDIJ:  cpu time      0.2178: real time      0.2183
     EDDAV:  cpu time      0.4205: real time      0.4256
       DOS:  cpu time      0.0005: real time      0.0005
    CHARGE:  cpu time      0.0086: real time      0.0086
    MIXING:  cpu time      0.0008: real time      0.0008
    --------------------------------------------
      LOOP:  cpu time      0.6585: real time      0.6642

 eigenvalue-minimisations  :  3168
 total energy-change (2. order) : 0.3936885E+00  (-0.7821546E-01)
 number of electron      39.9999996 magnetization 
 augmentation part       -7.3745455 magnetization 

 Broyden mixing:
  rms(total) = 0.40689E+00    rms(broyden)= 0.40689E+00
  rms(prec ) = 0.42866E+00
  weight for this iteration     100.00

 eigenvalues of (default mixing * dielectric matrix)
  average eigenvalue GAMMA=   2.1902
  2.1902

 Free energy of the ion-electron system (eV)
  ---------------------------------------------------
  alpha Z        PSCENC =        87.52689448
  Ewald energy   TEWEN  =     -1415.88353684
  -Hartree energ DENC   =      -137.06560315
  -exchange      EXHF   =         0.00000000
  -V(xc)+E(xc)   XCENC  =       -32.76400425
  PAW double counting   =      1456.21636379    -1343.49068625
  entropy T*S    EENTRO =        -0.00000000
  eigenvalues    EBANDS =       -96.59609754
  atomic energy  EATOM  =      1448.49460871
  Solvation  Ediel_sol  =         0.00000000
  ---------------------------------------------------
  free energy    TOTEN  =       -33.56206106 eV

  energy without entropy =      -33.56206106  energy(sigma->0) =      -33.56206106


--------------------------------------------------------------------------------------------------------




--------------------------------------- Iteration      1(   7)  ---------------------------------------


    POTLOK:  cpu time      0.0101: real time      0.0102
    SETDIJ:  cpu time      0.2181: real time      0.2186
     EDDAV:  cpu time      0.4213: real time      0.4239
       DOS:  cpu time      0.0005: real time      0.0005
    CHARGE:  cpu time      0.0088: real time      0.0088
    MIXING:  cpu time      0.0006: real time      0.0006
    --------------------------------------------
      LOOP:  cpu time      0.6594: real time      0.6627

 eigenvalue-minimisations  :  3072
 total energy-change (2. order) : 0.1280384E-01  (-0.2367643E-01)
 number of electron      39.9999996 magnetization 
 augmentation part       -7.3593891 magnetization 

 Broyden mixing:
  rms(total) = 0.13015E+00    rms(broyden)= 0.13015E+00
  rms(prec ) = 0.13898E+00
  weight for this iteration     100.00

 eigenvalues of (default mixing * dielectric matrix)
  average eigenvalue GAMMA=   1.8095
  1.2173  2.4017

 Free energy of the ion-electron system (eV)
  ---------------------------------------------------
  alpha Z        PSCENC =        87.52689448
  Ewald energy   TEWEN  =     -1415.88353684
  -Hartree energ DENC   =      -139.75100951
  -exchange      EXHF   =         0.00000000
  -V(xc)+E(xc)   XCENC  =       -32.29683438
  PAW double counting   =      1782.82120229    -1670.33597503
  entropy T*S    EENTRO =        -0.00000000
  eigenvalues    EBANDS =       -94.12460693
  atomic energy  EATOM  =      1448.49460871
  Solvation  Ediel_sol  =         0.00000000
  ---------------------------------------------------
  free energy    TOTEN  =       -33.54925721 eV

  energy without entropy =      -33.54925721  energy(sigma->0) =      -33.54925721


--------------------------------------------------------------------------------------------------------




--------------------------------------- Iteration      1(   8)  ---------------------------------------


    POTLOK:  cpu time      0.0101: real time      0.0103
    SETDIJ:  cpu time      0.2168: real time      0.2175
     EDDAV:  cpu time      0.4310: real time      0.4331
       DOS:  cpu time      0.0005: real time      0.0006
    CHARGE:  cpu time      0.0087: real time      0.0088
    MIXING:  cpu time      0.0009: real time      0.0009
    --------------------------------------------
      LOOP:  cpu time      0.6680: real time      0.6710

 eigenvalue-minimisations  :  3056
 total energy-change (2. order) : 0.1889377E-02  (-0.2554250E-02)
 number of electron      39.9999996 magnetization 
 augmentation part       -7.3692589 magnetization 

 Broyden mixing:
  rms(total) = 0.17111E-01    rms(broyden)= 0.17111E-01
  rms(prec ) = 0.21225E-01
  weight for this iteration     100.00

 eigenvalues of (default mixing * dielectric matrix)
  average eigenvalue GAMMA=   1.6978
  2.4884  1.3025  1.3025

 Free energy of the ion-electron system (eV)
  ---------------------------------------------------
  alpha Z        PSCENC =        87.52689448
  Ewald energy   TEWEN  =     -1415.88353684
  -Hartree energ DENC   =      -139.75245944
  -exchange      EXHF   =         0.00000000
  -V(xc)+E(xc)   XCENC  =       -32.16723510
  PAW double counting   =      1921.42283481    -1808.99586999
  entropy T*S    EENTRO =        -0.00000000
  eigenvalues    EBANDS =       -94.19260448
  atomic energy  EATOM  =      1448.49460871
  Solvation  Ediel_sol  =         0.00000000
  ---------------------------------------------------
  free energy    TOTEN  =       -33.54736784 eV

  energy without entropy =      -33.54736784  energy(sigma->0) =      -33.54736784


--------------------------------------------------------------------------------------------------------




--------------------------------------- Iteration      1(   9)  ---------------------------------------


    POTLOK:  cpu time      0.0102: real time      0.0103
    SETDIJ:  cpu time      0.2180: real time      0.2185
     EDDAV:  cpu time      0.3979: real time      0.4004
       DOS:  cpu time      0.0006: real time      0.0006
    CHARGE:  cpu time      0.0085: real time      0.0086
    MIXING:  cpu time      0.0009: real time      0.0009
    --------------------------------------------
      LOOP:  cpu time      0.6360: real time      0.6391

 eigenvalue-minimisations  :  3008
 total energy-change (2. order) :-0.2125031E-03  (-0.3507024E-03)
 number of electron      39.9999996 magnetization 
 augmentation part       -7.3670047 magnetization 

 Broyden mixing:
  rms(total) = 0.62470E-02    rms(broyden)= 0.62470E-02
  rms(prec ) = 0.71610E-02
  weight for this iteration     100.00

 eigenvalues of (default mixing * dielectric matrix)
  average eigenvalue GAMMA=   1.7216
  2.2713  2.2713  1.1719  1.1719

 Free energy of the ion-electron system (eV)
  ---------------------------------------------------
  alpha Z        PSCENC =        87.52689448
  Ewald energy   TEWEN  =     -1415.88353684
  -Hartree energ DENC   =      -140.13626389
  -exchange      EXHF   =         0.00000000
  -V(xc)+E(xc)   XCENC  =       -32.12962216
  PAW double counting   =      1932.34884754    -1819.93100312
  entropy T*S    EENTRO =        -0.00000000
  eigenvalues    EBANDS =       -93.83750506
  atomic energy  EATOM  =      1448.49460871
  Solvation  Ediel_sol  =         0.00000000
  ---------------------------------------------------
  free energy    TOTEN  =       -33.54758034 eV

  energy without entropy =      -33.54758034  energy(sigma->0) =      -33.54758034


--------------------------------------------------------------------------------------------------------




--------------------------------------- Iteration      1(  10)  ---------------------------------------


    POTLOK:  cpu time      0.0100: real time      0.0102
    SETDIJ:  cpu time      0.2174: real time      0.2178
     EDDAV:  cpu time      0.4234: real time      0.4254
       DOS:  cpu time      0.0005: real time      0.0005
    CHARGE:  cpu time      0.0081: real time      0.0082
    MIXING:  cpu time      0.0006: real time      0.0006
    --------------------------------------------
      LOOP:  cpu time      0.6601: real time      0.6626

 eigenvalue-minimisations  :  3152
 total energy-change (2. order) :-0.9645412E-04  (-0.2897835E-04)
 number of electron      39.9999996 magnetization 
 augmentation part       -7.3669372 magnetization 

 Broyden mixing:
  rms(total) = 0.22448E-02    rms(broyden)= 0.22448E-02
  rms(prec ) = 0.27559E-02
  weight for this iteration     100.00

 eigenvalues of (default mixing * dielectric matrix)
  average eigenvalue GAMMA=   1.7594
  2.7107  2.4650  1.1757  1.2228  1.2228

 Free energy of the ion-electron system (eV)
  ---------------------------------------------------
  alpha Z        PSCENC =        87.52689448
  Ewald energy   TEWEN  =     -1415.88353684
  -Hartree energ DENC   =      -140.17211734
  -exchange      EXHF   =         0.00000000
  -V(xc)+E(xc)   XCENC  =       -32.12595032
  PAW double counting   =      1927.05927571    -1814.63694106
  entropy T*S    EENTRO =        -0.00000000
  eigenvalues    EBANDS =       -93.80991014
  atomic energy  EATOM  =      1448.49460871
  Solvation  Ediel_sol  =         0.00000000
  ---------------------------------------------------
  free energy    TOTEN  =       -33.54767679 eV

  energy without entropy =      -33.54767679  energy(sigma->0) =      -33.54767679


--------------------------------------------------------------------------------------------------------




--------------------------------------- Iteration      1(  11)  ---------------------------------------


    POTLOK:  cpu time      0.0101: real time      0.0102
    SETDIJ:  cpu time      0.2167: real time      0.2174
     EDDAV:  cpu time      0.3939: real time      0.3957
       DOS:  cpu time      0.0006: real time      0.0006
    CHARGE:  cpu time      0.0091: real time      0.0092
    MIXING:  cpu time      0.0007: real time      0.0007
    --------------------------------------------
      LOOP:  cpu time      0.6310: real time      0.6337

 eigenvalue-minimisations  :  2864
 total energy-change (2. order) :-0.2643303E-04  (-0.4004915E-05)
 number of electron      39.9999996 magnetization 
 augmentation part       -7.3671923 magnetization 

 Broyden mixing:
  rms(total) = 0.11703E-02    rms(broyden)= 0.11703E-02
  rms(prec ) = 0.13286E-02
  weight for this iteration     100.00

 eigenvalues of (default mixing * dielectric matrix)
  average eigenvalue GAMMA=   1.7449
  2.5369  2.5369  2.1150  1.1690  1.1690  0.9422

 Free energy of the ion-electron system (eV)
  ---------------------------------------------------
  alpha Z        PSCENC =        87.52689448
  Ewald energy   TEWEN  =     -1415.88353684
  -Hartree energ DENC   =      -140.19310757
  -exchange      EXHF   =         0.00000000
  -V(xc)+E(xc)   XCENC  =       -32.12061757
  PAW double counting   =      1928.17694224    -1815.75458734
  entropy T*S    EENTRO =        -0.00000000
  eigenvalues    EBANDS =       -93.79429934
  atomic energy  EATOM  =      1448.49460871
  Solvation  Ediel_sol  =         0.00000000
  ---------------------------------------------------
  free energy    TOTEN  =       -33.54770323 eV

  energy without entropy =      -33.54770323  energy(sigma->0) =      -33.54770323


--------------------------------------------------------------------------------------------------------




--------------------------------------- Iteration      1(  12)  ---------------------------------------


    POTLOK:  cpu time      0.0102: real time      0.0103
    SETDIJ:  cpu time      0.2171: real time      0.2175
     EDDAV:  cpu time      0.4593: real time      0.4618
       DOS:  cpu time      0.0005: real time      0.0005
    --------------------------------------------
      LOOP:  cpu time      0.6871: real time      0.6902

 eigenvalue-minimisations  :  3456
 total energy-change (2. order) :-0.7112524E-06  (-0.6512880E-06)
 number of electron      39.9999996 magnetization 
 augmentation part       -7.3671923 magnetization 

 Free energy of the ion-electron system (eV)
  ---------------------------------------------------
  alpha Z        PSCENC =        87.52689448
  Ewald energy   TEWEN  =     -1415.88353684
  -Hartree energ DENC   =      -140.20579385
  -exchange      EXHF   =         0.00000000
  -V(xc)+E(xc)   XCENC  =       -32.11950397
  PAW double counting   =      1927.57179128    -1815.14924595
  entropy T*S    EENTRO =        -0.00000000
  eigenvalues    EBANDS =       -93.78291779
  atomic energy  EATOM  =      1448.49460871
  Solvation  Ediel_sol  =         0.00000000
  ---------------------------------------------------
  free energy    TOTEN  =       -33.54770394 eV

  energy without entropy =      -33.54770394  energy(sigma->0) =      -33.54770394


--------------------------------------------------------------------------------------------------------




 average (electrostatic) potential at core
  the test charge radii are     1.1631  1.0808
  (the norm of the test charge is              1.0000)
       1 -33.4505       2 -33.4505       3 -33.4505       4 -33.4505       5 -54.9592
       6 -54.9592       7 -54.9592       8 -54.9592
 
 
 
 E-fermi :   3.5549     XC(G=0):  -9.2906     alpha+bet : -8.7197

 Fermi energy:         3.5549264088

 k-point     1 :       0.0000    0.0000    0.0000
  band No.  band energies     occupation 
      1     -10.9982      2.00000
      2     -10.6187      2.00000
      3      -9.7613      2.00000
      4      -9.1876      2.00000
      5      -4.6525      2.00000
      6      -4.1907      2.00000
      7      -2.5133      2.00000
      8      -2.4135      2.00000
      9      -1.9586      2.00000
     10      -0.5086      2.00000
     11       0.1327      2.00000
     12       0.1851      2.00000
     13       0.2676      2.00000
     14       0.4547      2.00000
     15       1.0650      2.00000
     16       1.4042      2.00000
     17       1.8281      2.00000
     18       2.4309      2.00000
     19       2.7186      2.00000
     20       2.7675      2.00000
     21       3.8725      0.00000
     22       5.6357      0.00000
     23       5.7835      0.00000
     24       5.9652      0.00000
     25       6.5469      0.00000
     26       7.0465      0.00000
     27       7.1184      0.00000
     28       7.2491      0.00000
     29       7.9597      0.00000
     30       8.4112      0.00000
     31       8.4970      0.00000
     32       8.7191      0.00000

 k-point     2 :       0.1667    0.0000    0.0000
  band No.  band energies     occupation 
      1     -10.8089      2.00000
      2     -10.4410      2.00000
      3      -9.6468      2.00000
      4      -9.1256      2.00000
      5      -4.9432      2.00000
      6      -4.3508      2.00000
      7      -3.1021      2.00000
      8      -2.6865      2.00000
      9      -1.8671      2.00000
     10      -0.3273      2.00000
     11      -0.1409      2.00000
     12      -0.0456      2.00000
     13       0.4190      2.00000
     14       0.5969      2.00000
     15       1.2011      2.00000
     16       1.3343      2.00000
     17       1.4714      2.00000
     18       2.4759      2.00000
     19       2.6344      2.00000
     20       2.8956      2.00000
     21       3.8727      0.00000
     22       5.6319      0.00000
     23       5.8199      0.00000
     24       6.2249      0.00000
     25       6.4155      0.00000
     26       6.7649      0.00000
     27       6.9661      0.00000
     28       7.3046      0.00000
     29       7.7494      0.00000
     30       7.8177      0.00000
     31       7.8561      0.00000
     32       8.3806      0.00000

 k-point     3 :       0.3333    0.0000    0.0000
  band No.  band energies     occupation 
      1     -10.2958      2.00000
      2      -9.9647      2.00000
      3      -9.4694      2.00000
      4      -9.0970      2.00000
      5      -5.4891      2.00000
      6      -4.6535      2.00000
      7      -4.3873      2.00000
      8      -3.5907      2.00000
      9      -1.2893      2.00000
     10      -0.3195      2.00000
     11      -0.0681      2.00000
     12       0.3950      2.00000
     13       0.7184      2.00000
     14       0.9962      2.00000
     15       1.1767      2.00000
     16       1.3428      2.00000
     17       1.8100      2.00000
     18       1.8232      2.00000
     19       2.4756      2.00000
     20       2.8008      2.00000
     21       4.1638      0.00000
     22       4.2716      0.00000
     23       4.8749      0.00000
     24       5.3161      0.00000
     25       5.4615      0.00000
     26       6.0182      0.00000
     27       6.0298      0.00000
     28       6.2327      0.00000
     29       7.0020      0.00000
     30       7.2539      0.00000
     31       8.0327      0.00000
     32       8.8488      0.00000

 k-point     4 :       0.5000    0.0000    0.0000
  band No.  band energies     occupation 
      1      -9.6903      2.00000
      2      -9.6903      2.00000
      3      -9.4021      2.00000
      4      -9.4021      2.00000
      5      -5.3935      2.00000
      6      -5.3935      2.00000
      7      -4.4534      2.00000
      8      -4.4534      2.00000
      9      -0.5334      2.00000
     10      -0.5334      2.00000
     11       0.5003      2.00000
     12       0.5003      2.00000
     13       1.0509      2.00000
     14       1.0509      2.00000
     15       1.2383      2.00000
     16       1.2383      2.00000
     17       1.7231      2.00000
     18       1.7231      2.00000
     19       2.3876      2.00000
     20       2.3876      2.00000
     21       4.1573      0.00000
     22       4.1573      0.00000
     23       4.7861      0.00000
     24       4.7861      0.00000
     25       5.1368      0.00000
     26       5.1368      0.00000
     27       5.6858      0.00000
     28       5.6858      0.00000
     29       6.1473      0.00000
     30       6.1473      0.00000
     31       8.6429      0.00000
     32       8.6429      0.00000

 k-point     5 :       0.0000    0.1667    0.0000
  band No.  band energies     occupation 
      1     -10.8865      2.00000
      2     -10.5091      2.00000
      3      -9.7768      2.00000
      4      -9.2440      2.00000
      5      -4.9102      2.00000
      6      -4.3594      2.00000
      7      -3.2643      2.00000
      8      -2.7784      2.00000
      9      -1.7411      2.00000
     10      -0.0353      2.00000
     11       0.2900      2.00000
     12       0.4530      2.00000
     13       0.5916      2.00000
     14       0.6681      2.00000
     15       1.3873      2.00000
     16       1.6915      2.00000
     17       1.8612      2.00000
     18       1.9919      2.00000
     19       2.7374      2.00000
     20       3.1382      2.00000
     21       4.0416      0.00000
     22       5.1536      0.00000
     23       5.6206      0.00000
     24       6.0548      0.00000
     25       6.0944      0.00000
     26       6.5253      0.00000
     27       6.8384      0.00000
     28       7.4861      0.00000
     29       7.6604      0.00000
     30       7.8196      0.00000
     31       8.2186      0.00000
     32       8.6574      0.00000

 k-point     6 :       0.1667    0.1667    0.0000
  band No.  band energies     occupation 
      1     -10.7035      2.00000
      2     -10.3364      2.00000
      3      -9.6622      2.00000
      4      -9.1787      2.00000
      5      -5.0017      2.00000
      6      -4.4790      2.00000
      7      -3.3661      2.00000
      8      -3.1603      2.00000
      9      -1.6324      2.00000
     10      -0.7428      2.00000
     11      -0.5493      2.00000
     12       0.3650      2.00000
     13       0.8169      2.00000
     14       0.8274      2.00000
     15       1.2917      2.00000
     16       1.3227      2.00000
     17       2.0047      2.00000
     18       2.1846      2.00000
     19       2.7763      2.00000
     20       2.8296      2.00000
     21       4.2120      0.00000
     22       5.2967      0.00000
     23       5.4098      0.00000
     24       5.8080      0.00000
     25       6.2637      0.00000
     26       6.7323      0.00000
     27       7.2507      0.00000
     28       7.4226      0.00000
     29       7.6004      0.00000
     30       7.6562      0.00000
     31       7.7885      0.00000
     32       8.2824      0.00000

 k-point     7 :       0.1667   -0.1667    0.0000
  band No.  band energies     occupation 
      1     -10.7014      2.00000
      2     -10.3386      2.00000
      3      -9.6633      2.00000
      4      -9.1750      2.00000
      5      -5.0679      2.00000
      6      -4.4102      2.00000
      7      -3.4932      2.00000
      8      -3.0275      2.00000
      9      -1.5921      2.00000
     10      -0.6918      2.00000
     11      -0.5346      2.00000
     12       0.2331      2.00000
     13       0.7986      2.00000
     14       0.8897      2.00000
     15       1.1111      2.00000
     16       1.4220      2.00000
     17       2.0246      2.00000
     18       2.1079      2.00000
     19       2.6589      2.00000
     20       3.2108      2.00000
     21       4.0138      0.00000
     22       5.2680      0.00000
     23       5.4840      0.00000
     24       5.6482      0.00000
     25       6.4536      0.00000
     26       6.8104      0.00000
     27       6.9136      0.00000
     28       7.3073      0.00000
     29       7.6033      0.00000
     30       7.8319      0.00000
     31       8.0086      0.00000
     32       8.4994      0.00000

 k-point     8 :       0.3333    0.1667    0.0000
  band No.  band energies     occupation 
      1     -10.2121      2.00000
      2      -9.8802      2.00000
      3      -9.4712      2.00000
      4      -9.1271      2.00000
      5      -5.3518      2.00000
      6      -4.6475      2.00000
      7      -4.3668      2.00000
      8      -3.7301      2.00000
      9      -1.1793      2.00000
     10      -0.9833      2.00000
     11      -0.8482      2.00000
     12       0.2171      2.00000
     13       0.6303      2.00000
     14       0.9150      2.00000
     15       1.0603      2.00000
     16       1.1875      2.00000
     17       1.5134      2.00000
     18       2.0963      2.00000
     19       2.4154      2.00000
     20       2.5734      2.00000
     21       4.3385      0.00000
     22       5.0105      0.00000
     23       5.0646      0.00000
     24       5.4787      0.00000
     25       5.6883      0.00000
     26       5.9570      0.00000
     27       6.7240      0.00000
     28       7.3377      0.00000
     29       7.5023      0.00000
     30       7.5816      0.00000
     31       8.3245      0.00000
     32       8.4418      0.00000

 k-point     9 :       0.3333   -0.1667    0.0000
  band No.  band energies     occupation 
      1     -10.2061      2.00000
      2      -9.8870      2.00000
      3      -9.4790      2.00000
      4      -9.1141      2.00000
      5      -5.4222      2.00000
      6      -4.5723      2.00000
      7      -4.3935      2.00000
      8      -3.7003      2.00000
      9      -1.1388      2.00000
     10      -1.0636      2.00000
     11      -0.7024      2.00000
     12       0.1268      2.00000
     13       0.6346      2.00000
     14       0.7408      2.00000
     15       0.9210      2.00000
     16       1.4743      2.00000
     17       1.6274      2.00000
     18       1.9320      2.00000
     19       2.2336      2.00000
     20       2.9218      2.00000
     21       4.1746      0.00000
     22       4.8728      0.00000
     23       5.0081      0.00000
     24       5.5592      0.00000
     25       5.6224      0.00000
     26       6.2146      0.00000
     27       6.8369      0.00000
     28       7.1375      0.00000
     29       7.5286      0.00000
     30       7.6369      0.00000
     31       8.4089      0.00000
     32       8.4695      0.00000

 k-point    10 :       0.5000    0.1667    0.0000
  band No.  band energies     occupation 
      1      -9.6549      2.00000
      2      -9.6420      2.00000
      3      -9.3771      2.00000
      4      -9.3606      2.00000
      5      -5.3013      2.00000
      6      -5.2677      2.00000
      7      -4.4350      2.00000
      8      -4.3974      2.00000
      9      -0.6830      2.00000
     10      -0.6147      2.00000
     11      -0.3145      2.00000
     12      -0.2208      2.00000
     13       0.3589      2.00000
     14       0.3595      2.00000
     15       1.1346      2.00000
     16       1.1433      2.00000
     17       1.2540      2.00000
     18       1.4563      2.00000
     19       2.4568      2.00000
     20       2.7764      2.00000
     21       4.3646      0.00000
     22       4.4562      0.00000
     23       5.2615      0.00000
     24       5.4800      0.00000
     25       5.9006      0.00000
     26       5.9876      0.00000
     27       6.1764      0.00000
     28       6.3680      0.00000
     29       7.1320      0.00000
     30       7.3170      0.00000
     31       8.1313      0.00000
     32       8.3423      0.00000

 k-point    11 :       0.0000    0.3333    0.0000
  band No.  band energies     occupation 
      1     -10.5827      2.00000
      2     -10.2085      2.00000
      3      -9.8924      2.00000
      4      -9.4483      2.00000
      5      -5.2203      2.00000
      6      -4.5119      2.00000
      7      -4.3173      2.00000
      8      -3.5880      2.00000
      9      -1.2562      2.00000
     10       0.2858      2.00000
     11       0.6964      2.00000
     12       0.9123      2.00000
     13       1.0709      2.00000
     14       1.2811      2.00000
     15       1.4008      2.00000
     16       1.7559      2.00000
     17       1.9393      2.00000
     18       2.7416      2.00000
     19       2.8208      2.00000
     20       3.3252      2.00000
     21       4.1252      0.00000
     22       4.7133      0.00000
     23       5.0800      0.00000
     24       5.3171      0.00000
     25       5.9176      0.00000
     26       5.9792      0.00000
     27       6.4088      0.00000
     28       6.7798      0.00000
     29       6.8747      0.00000
     30       7.2650      0.00000
     31       8.0837      0.00000
     32       8.7379      0.00000

 k-point    12 :       0.1667    0.3333    0.0000
  band No.  band energies     occupation 
      1     -10.4167      2.00000
      2     -10.0534      2.00000
      3      -9.7698      2.00000
      4      -9.3640      2.00000
      5      -5.1204      2.00000
      6      -4.5199      2.00000
      7      -4.2233      2.00000
      8      -3.7319      2.00000
      9      -1.1015      2.00000
     10      -0.7908      2.00000
     11      -0.4947      2.00000
     12       0.1634      2.00000
     13       0.5302      2.00000
     14       0.8079      2.00000
     15       1.4718      2.00000
     16       1.6547      2.00000
     17       1.9768      2.00000
     18       2.4946      2.00000
     19       2.8436      2.00000
     20       2.9702      2.00000
     21       4.5786      0.00000
     22       5.2725      0.00000
     23       5.4195      0.00000
     24       5.7937      0.00000
     25       5.9963      0.00000
     26       6.3472      0.00000
     27       6.8734      0.00000
     28       7.3231      0.00000
     29       7.3482      0.00000
     30       7.7635      0.00000
     31       8.0363      0.00000
     32       8.2101      0.00000

 k-point    13 :       0.1667   -0.3333    0.0000
  band No.  band energies     occupation 
      1     -10.4126      2.00000
      2     -10.0581      2.00000
      3      -9.7734      2.00000
      4      -9.3572      2.00000
      5      -5.1699      2.00000
      6      -4.4759      2.00000
      7      -4.2811      2.00000
      8      -3.6586      2.00000
      9      -1.0932      2.00000
     10      -0.6566      2.00000
     11      -0.5027      2.00000
     12       0.0591      2.00000
     13       0.4804      2.00000
     14       0.6171      2.00000
     15       1.4306      2.00000
     16       1.9899      2.00000
     17       2.2833      2.00000
     18       2.3762      2.00000
     19       2.5281      2.00000
     20       2.9810      2.00000
     21       4.5748      0.00000
     22       5.1518      0.00000
     23       5.5754      0.00000
     24       5.7060      0.00000
     25       5.8998      0.00000
     26       6.5864      0.00000
     27       6.6788      0.00000
     28       7.0656      0.00000
     29       7.4958      0.00000
     30       7.9851      0.00000
     31       8.1362      0.00000
     32       8.3420      0.00000

 k-point    14 :       0.3333    0.3333    0.0000
  band No.  band energies     occupation 
      1      -9.9889      2.00000
      2      -9.6641      2.00000
      3      -9.5276      2.00000
      4      -9.2287      2.00000
      5      -5.0429      2.00000
      6      -4.5791      2.00000
      7      -4.4200      2.00000
      8      -4.0804      2.00000
      9      -1.5416      2.00000
     10      -1.2801      2.00000
     11      -0.8539      2.00000
     12      -0.5605      2.00000
     13      -0.3071      2.00000
     14       0.3846      2.00000
     15       0.7201      2.00000
     16       0.9273      2.00000
     17       0.9395      2.00000
     18       2.1316      2.00000
     19       2.2671      2.00000
     20       2.6278      2.00000
     21       4.7033      0.00000
     22       5.9808      0.00000
     23       6.0457      0.00000
     24       6.2106      0.00000
     25       6.7281      0.00000
     26       6.9994      0.00000
     27       7.1415      0.00000
     28       7.4307      0.00000
     29       8.1999      0.00000
     30       8.2833      0.00000
     31       8.7383      0.00000
     32       9.4214      0.00000

 k-point    15 :       0.3333   -0.3333    0.0000
  band No.  band energies     occupation 
      1      -9.9765      2.00000
      2      -9.6790      2.00000
      3      -9.5430      2.00000
      4      -9.2063      2.00000
      5      -5.1671      2.00000
      6      -4.4509      2.00000
      7      -4.4500      2.00000
      8      -4.0363      2.00000
      9      -1.5327      2.00000
     10      -1.2209      2.00000
     11      -0.9407      2.00000
     12      -0.5255      2.00000
     13      -0.2242      2.00000
     14       0.2310      2.00000
     15       0.3613      2.00000
     16       1.2164      2.00000
     17       1.3463      2.00000
     18       1.6423      2.00000
     19       2.1728      2.00000
     20       3.0788      2.00000
     21       4.4374      0.00000
     22       5.8635      0.00000
     23       6.0355      0.00000
     24       6.1355      0.00000
     25       6.9119      0.00000
     26       7.0863      0.00000
     27       7.3047      0.00000
     28       7.4940      0.00000
     29       7.9744      0.00000
     30       8.2007      0.00000
     31       8.9996      0.00000
     32       9.2031      0.00000

 k-point    16 :       0.5000    0.3333    0.0000
  band No.  band energies     occupation 
      1      -9.5731      2.00000
      2      -9.5471      2.00000
      3      -9.3174      2.00000
      4      -9.2847      2.00000
      5      -5.0579      2.00000
      6      -4.9625      2.00000
      7      -4.4354      2.00000
      8      -4.3313      2.00000
      9      -1.2170      2.00000
     10      -1.1825      2.00000
     11      -0.8901      2.00000
     12      -0.7797      2.00000
     13      -0.4674      2.00000
     14      -0.4217      2.00000
     15       0.3442      2.00000
     16       0.3617      2.00000
     17       0.8307      2.00000
     18       1.3052      2.00000
     19       2.1204      2.00000
     20       2.8433      2.00000
     21       4.9996      0.00000
     22       5.4011      0.00000
     23       6.5798      0.00000
     24       6.9082      0.00000
     25       6.9489      0.00000
     26       7.1042      0.00000
     27       7.2131      0.00000
     28       7.8449      0.00000
     29       8.1071      0.00000
     30       8.2574      0.00000
     31       8.7573      0.00000
     32       8.9549      0.00000

 k-point    17 :       0.0000    0.5000    0.0000
  band No.  band energies     occupation 
      1     -10.1930      2.00000
      2     -10.1930      2.00000
      3      -9.8071      2.00000
      4      -9.8071      2.00000
      5      -5.0453      2.00000
      6      -5.0453      2.00000
      7      -4.2569      2.00000
      8      -4.2569      2.00000
      9      -0.5116      2.00000
     10      -0.5116      2.00000
     11       1.1093      2.00000
     12       1.1093      2.00000
     13       1.3687      2.00000
     14       1.3687      2.00000
     15       1.8973      2.00000
     16       1.8973      2.00000
     17       2.4275      2.00000
     18       2.4275      2.00000
     19       2.8909      2.00000
     20       2.8909      2.00000
     21       4.6093      0.00000
     22       4.6093      0.00000
     23       5.0795      0.00000
     24       5.0795      0.00000
     25       5.6915      0.00000
     26       5.6915      0.00000
     27       6.1342      0.00000
     28       6.1342      0.00000
     29       6.5547      0.00000
     30       6.5547      0.00000
     31       8.5370      0.00000
     32       8.5370      0.00000

 k-point    18 :       0.1667    0.5000    0.0000
  band No.  band energies     occupation 
      1     -10.0527      2.00000
      2     -10.0474      2.00000
      3      -9.6891      2.00000
      4      -9.6821      2.00000
      5      -4.9167      2.00000
      6      -4.9147      2.00000
      7      -4.2466      2.00000
      8      -4.2374      2.00000
      9      -0.5876      2.00000
     10      -0.3940      2.00000
     11      -0.2200      2.00000
     12      -0.2101      2.00000
     13      -0.0117      2.00000
     14       0.2582      2.00000
     15       1.5583      2.00000
     16       1.8712      2.00000
     17       2.0976      2.00000
     18       2.5104      2.00000
     19       2.8287      2.00000
     20       3.0561      2.00000
     21       4.8370      0.00000
     22       4.8876      0.00000
     23       5.6752      0.00000
     24       5.8531      0.00000
     25       6.4022      0.00000
     26       6.4524      0.00000
     27       6.7915      0.00000
     28       6.9613      0.00000
     29       7.4389      0.00000
     30       7.4833      0.00000
     31       8.0303      0.00000
     32       8.1190      0.00000

 k-point    19 :       0.3333    0.5000    0.0000
  band No.  band energies     occupation 
      1      -9.7253      2.00000
      2      -9.7079      2.00000
      3      -9.4270      2.00000
      4      -9.4045      2.00000
      5      -4.7677      2.00000
      6      -4.6693      2.00000
      7      -4.4100      2.00000
      8      -4.3200      2.00000
      9      -1.4514      2.00000
     10      -1.2892      2.00000
     11      -1.0927      2.00000
     12      -1.0282      2.00000
     13      -0.2280      2.00000
     14       0.0720      2.00000
     15       0.2512      2.00000
     16       0.4933      2.00000
     17       1.1652      2.00000
     18       1.6113      2.00000
     19       2.1929      2.00000
     20       2.8666      2.00000
     21       5.3013      0.00000
     22       5.5930      0.00000
     23       6.4599      0.00000
     24       6.9053      0.00000
     25       7.2767      0.00000
     26       7.3769      0.00000
     27       7.6575      0.00000
     28       7.9836      0.00000
     29       8.4504      0.00000
     30       8.8029      0.00000
     31       8.9175      0.00000
     32       9.2024      0.00000

 k-point    20 :       0.5000    0.5000    0.0000
  band No.  band energies     occupation 
      1      -9.5296      2.00000
      2      -9.4968      2.00000
      3      -9.2872      2.00000
      4      -9.2463      2.00000
      5      -4.8951      2.00000
      6      -4.6438      2.00000
      7      -4.5959      2.00000
      8      -4.3345      2.00000
      9      -1.4800      2.00000
     10      -1.3952      2.00000
     11      -1.1772      2.00000
     12      -1.1146      2.00000
     13      -0.6012      2.00000
     14      -0.5811      2.00000
     15      -0.1779      2.00000
     16      -0.1220      2.00000
     17       0.7635      2.00000
     18       1.5965      2.00000
[...]
     32       7.8333      0.00000

 k-point    32 :       0.1667    0.3333    0.5000
  band No.  band energies     occupation 
      1     -10.2863      2.00000
      2     -10.2863      2.00000
      3      -9.5158      2.00000
      4      -9.5158      2.00000
      5      -4.8599      2.00000
      6      -4.8599      2.00000
      7      -3.9904      2.00000
      8      -3.9904      2.00000
      9      -0.7636      2.00000
     10      -0.7636      2.00000
     11      -0.0925      2.00000
     12      -0.0925      2.00000
     13       0.4162      2.00000
     14       0.4162      2.00000
     15       1.6459      2.00000
     16       1.6459      2.00000
     17       2.1373      2.00000
     18       2.1373      2.00000
     19       2.7169      2.00000
     20       2.7169      2.00000
     21       5.2204      0.00000
     22       5.2204      0.00000
     23       5.7115      0.00000
     24       5.7115      0.00000
     25       6.5161      0.00000
     26       6.5161      0.00000
     27       6.8232      0.00000
     28       6.8232      0.00000
     29       7.4296      0.00000
     30       7.4296      0.00000
     31       7.9208      0.00000
     32       7.9208      0.00000

 k-point    33 :       0.1667   -0.3333    0.5000
  band No.  band energies     occupation 
      1     -10.2854      2.00000
      2     -10.2854      2.00000
      3      -9.5163      2.00000
      4      -9.5163      2.00000
      5      -4.8806      2.00000
      6      -4.8806      2.00000
      7      -3.9696      2.00000
      8      -3.9696      2.00000
      9      -0.8223      2.00000
     10      -0.8223      2.00000
     11       0.0116      2.00000
     12       0.0116      2.00000
     13       0.5214      2.00000
     14       0.5214      2.00000
     15       1.4582      2.00000
     16       1.4582      2.00000
     17       2.3084      2.00000
     18       2.3084      2.00000
     19       2.4753      2.00000
     20       2.4753      2.00000
     21       5.3530      0.00000
     22       5.3530      0.00000
     23       5.7645      0.00000
     24       5.7645      0.00000
     25       6.3834      0.00000
     26       6.3834      0.00000
     27       6.7900      0.00000
     28       6.7900      0.00000
     29       7.4992      0.00000
     30       7.4992      0.00000
     31       8.1550      0.00000
     32       8.1550      0.00000

 k-point    34 :       0.3333    0.3333    0.5000
  band No.  band energies     occupation 
      1      -9.8774      2.00000
      2      -9.8774      2.00000
      3      -9.3269      2.00000
      4      -9.3269      2.00000
      5      -4.8618      2.00000
      6      -4.8618      2.00000
      7      -4.2098      2.00000
      8      -4.2098      2.00000
      9      -1.4292      2.00000
     10      -1.4292      2.00000
     11      -0.7744      2.00000
     12      -0.7744      2.00000
     13       0.1223      2.00000
     14       0.1223      2.00000
     15       0.9496      2.00000
     16       0.9496      2.00000
     17       1.3554      2.00000
     18       1.3554      2.00000
     19       2.3956      2.00000
     20       2.3956      2.00000
     21       5.4829      0.00000
     22       5.4829      0.00000
     23       5.9160      0.00000
     24       5.9160      0.00000
     25       7.1338      0.00000
     26       7.1338      0.00000
     27       7.3605      0.00000
     28       7.3605      0.00000
     29       8.0013      0.00000
     30       8.0013      0.00000
     31       9.1784      0.00000
     32       9.1784      0.00000

 k-point    35 :       0.3333   -0.3333    0.5000
  band No.  band energies     occupation 
      1      -9.8757      2.00000
      2      -9.8757      2.00000
      3      -9.3280      2.00000
      4      -9.3280      2.00000
      5      -4.8960      2.00000
      6      -4.8960      2.00000
      7      -4.1717      2.00000
      8      -4.1717      2.00000
      9      -1.4758      2.00000
     10      -1.4758      2.00000
     11      -0.6950      2.00000
     12      -0.6950      2.00000
     13       0.1454      2.00000
     14       0.1454      2.00000
     15       1.0169      2.00000
     16       1.0169      2.00000
     17       1.2453      2.00000
     18       1.2453      2.00000
     19       2.3096      2.00000
     20       2.3096      2.00000
     21       5.5695      0.00000
     22       5.5695      0.00000
     23       5.9268      0.00000
     24       5.9268      0.00000
     25       7.0771      0.00000
     26       7.0771      0.00000
     27       7.5603      0.00000
     28       7.5603      0.00000
     29       7.9822      0.00000
     30       7.9822      0.00000
     31       8.9993      0.00000
     32       8.9993      0.00000

 k-point    36 :       0.5000    0.3333    0.5000
  band No.  band energies     occupation 
      1      -9.5578      2.00000
      2      -9.5578      2.00000
      3      -9.3044      2.00000
      4      -9.3044      2.00000
      5      -4.9811      2.00000
      6      -4.9811      2.00000
      7      -4.4176      2.00000
      8      -4.4176      2.00000
      9      -1.2675      2.00000
     10      -1.2675      2.00000
     11      -0.7182      2.00000
     12      -0.7182      2.00000
     13      -0.5145      2.00000
     14      -0.5145      2.00000
     15       0.2664      2.00000
     16       0.2664      2.00000
     17       1.4497      2.00000
     18       1.4497      2.00000
     19       2.1273      2.00000
     20       2.1273      2.00000
     21       5.2276      0.00000
     22       5.2276      0.00000
     23       6.7808      0.00000
     24       6.7808      0.00000
     25       6.9100      0.00000
     26       6.9100      0.00000
     27       7.6583      0.00000
     28       7.6583      0.00000
     29       8.2814      0.00000
     30       8.2814      0.00000
     31       8.7949      0.00000
     32       8.7949      0.00000

 k-point    37 :       0.0000    0.5000    0.5000
  band No.  band energies     occupation 
      1     -10.1890      2.00000
      2     -10.1890      2.00000
      3      -9.8131      2.00000
      4      -9.8131      2.00000
      5      -4.8216      2.00000
      6      -4.8216      2.00000
      7      -4.5626      2.00000
      8      -4.5626      2.00000
      9       0.1344      2.00000
     10       0.1344      2.00000
     11       0.8378      2.00000
     12       0.8378      2.00000
     13       1.1654      2.00000
     14       1.1654      2.00000
     15       1.3966      2.00000
     16       1.3966      2.00000
     17       2.7325      2.00000
     18       2.7325      2.00000
     19       2.7480      2.00000
     20       2.7480      2.00000
     21       4.7983      0.00000
     22       4.7983      0.00000
     23       4.8359      0.00000
     24       4.8359      0.00000
     25       6.0395      0.00000
     26       6.0395      0.00000
     27       6.4341      0.00000
     28       6.4341      0.00000
     29       7.2942      0.00000
     30       7.2942      0.00000
     31       7.3261      0.00000
     32       7.3261      0.00000

 k-point    38 :       0.1667    0.5000    0.5000
  band No.  band energies     occupation 
      1     -10.0464      2.00000
      2     -10.0464      2.00000
      3      -9.6910      2.00000
      4      -9.6910      2.00000
      5      -4.6969      2.00000
      6      -4.6969      2.00000
      7      -4.5199      2.00000
      8      -4.5199      2.00000
      9      -0.5242      2.00000
     10      -0.5242      2.00000
     11      -0.0671      2.00000
     12      -0.0671      2.00000
     13       0.6051      2.00000
     14       0.6051      2.00000
     15       1.1130      2.00000
     16       1.1130      2.00000
     17       2.2289      2.00000
     18       2.2289      2.00000
     19       2.6886      2.00000
     20       2.6886      2.00000
     21       5.4625      0.00000
     22       5.4625      0.00000
     23       5.7097      0.00000
     24       5.7097      0.00000
     25       6.5959      0.00000
     26       6.5959      0.00000
     27       7.0307      0.00000
     28       7.0307      0.00000
     29       7.4213      0.00000
     30       7.4213      0.00000
     31       7.7354      0.00000
     32       7.7354      0.00000

 k-point    39 :       0.3333    0.5000    0.5000
  band No.  band energies     occupation 
      1      -9.7143      2.00000
      2      -9.7143      2.00000
      3      -9.4190      2.00000
      4      -9.4190      2.00000
      5      -4.6670      2.00000
      6      -4.6670      2.00000
      7      -4.4133      2.00000
      8      -4.4133      2.00000
      9      -1.3687      2.00000
     10      -1.3687      2.00000
     11      -1.2699      2.00000
     12      -1.2699      2.00000
     13       0.1545      2.00000
     14       0.1545      2.00000
     15       0.6034      2.00000
     16       0.6034      2.00000
     17       1.4064      2.00000
     18       1.4064      2.00000
     19       2.0703      2.00000
     20       2.0703      2.00000
     21       5.5769      0.00000
     22       5.5769      0.00000
     23       6.8177      0.00000
     24       6.8177      0.00000
     25       7.3659      0.00000
     26       7.3659      0.00000
     27       7.8514      0.00000
     28       7.8514      0.00000
     29       8.5872      0.00000
     30       8.5872      0.00000
     31       9.0195      0.00000
     32       9.0195      0.00000

 k-point    40 :       0.5000    0.5000    0.5000
  band No.  band energies     occupation 
      1      -9.5132      2.00000
      2      -9.5132      2.00000
      3      -9.2670      2.00000
      4      -9.2670      2.00000
      5      -4.8545      2.00000
      6      -4.8545      2.00000
      7      -4.3546      2.00000
      8      -4.3546      2.00000
      9      -1.5680      2.00000
     10      -1.5680      2.00000
     11      -0.9462      2.00000
     12      -0.9462      2.00000
     13      -0.8175      2.00000
     14      -0.8175      2.00000
     15      -0.1943      2.00000
     16      -0.1943      2.00000
     17       1.5644      2.00000
     18       1.5644      2.00000
     19       2.1066      2.00000
     20       2.1066      2.00000
     21       5.0233      0.00000
     22       5.0233      0.00000
     23       7.4936      0.00000
     24       7.4936      0.00000
     25       7.5834      0.00000
     26       7.5834      0.00000
     27       8.1034      0.00000
     28       8.1034      0.00000
     29       8.6345      0.00000
     30       8.6345      0.00000
     31       9.8447      0.00000
     32       9.8447      0.00000


--------------------------------------------------------------------------------------------------------


 soft charge-density along one line, spin component            1
         0         1         2         3         4         5         6         7         8         9
 total charge-density along one line
 
 pseudopotential strength for first ion, spin component:            1
 14.506  18.097   0.043   0.044  -0.001   0.077   0.080  -0.002
 18.097  22.592   0.054   0.056  -0.001   0.097   0.101  -0.002
  0.043   0.054   3.222  -0.003   0.000   5.485  -0.004   0.000
  0.044   0.056  -0.003   3.221   0.000  -0.004   5.482   0.000
 -0.001  -0.001   0.000   0.000   3.224   0.000   0.000   5.488
  0.077   0.097   5.485  -0.004   0.000   9.395  -0.008   0.001
  0.080   0.101  -0.004   5.482   0.000  -0.008   9.389   0.001
 -0.002  -0.002   0.000   0.000   5.488   0.001   0.001   9.399
  0.001   0.001  -0.000  -0.000   0.007  -0.000  -0.000   0.014
 -0.006  -0.007   0.011   0.013  -0.000   0.021   0.024  -0.000
 -0.003  -0.004  -0.004   0.012   0.000  -0.007   0.021   0.000
  0.000   0.001  -0.000  -0.000   0.011  -0.000  -0.000   0.021
  0.001   0.002  -0.013   0.000  -0.000  -0.023   0.000  -0.000
 total augmentation occupancy for first ion, spin component:            1
  2.735  -0.711   0.358   0.365  -0.001  -0.067  -0.066  -0.000   0.002  -0.009  -0.004   0.003   0.008
 -0.711   0.688  -0.447  -0.477   0.008   0.072   0.073  -0.001  -0.002   0.002   0.003  -0.005  -0.005
  0.358  -0.447   1.233   0.054  -0.005  -0.202   0.002   0.001   0.001   0.045  -0.097   0.001   0.002
  0.365  -0.477   0.054   1.286  -0.004   0.002  -0.207  -0.000  -0.001  -0.013   0.098  -0.002  -0.001
 -0.001   0.008  -0.005  -0.004   1.236   0.001  -0.000  -0.213   0.147   0.000  -0.001   0.041  -0.001
 -0.067   0.072  -0.202   0.002   0.001   0.037  -0.002  -0.000  -0.000  -0.007   0.016  -0.000   0.000
 -0.066   0.073   0.002  -0.207  -0.000  -0.002   0.038   0.000   0.000   0.002  -0.017   0.001   0.000
 -0.000  -0.001   0.001  -0.000  -0.213  -0.000   0.000   0.041  -0.026  -0.000   0.000  -0.007   0.000
  0.002  -0.002   0.001  -0.001   0.147  -0.000   0.000  -0.026   0.031  -0.000   0.000   0.003   0.000
 -0.009   0.002   0.045  -0.013   0.000  -0.007   0.002  -0.000  -0.000   0.012  -0.007  -0.000   0.001
 -0.004   0.003  -0.097   0.098  -0.001   0.016  -0.017   0.000   0.000  -0.007   0.030   0.001  -0.002
  0.003  -0.005   0.001  -0.002   0.041  -0.000   0.001  -0.007   0.003  -0.000   0.001   0.010   0.000
  0.008  -0.005   0.002  -0.001  -0.001   0.000   0.000   0.000   0.000   0.001  -0.002   0.000   0.009


------------------------ aborting loop because EDIFF is reached ----------------------------------------


    CHARGE:  cpu time      0.0090: real time      0.0091
    FORLOC:  cpu time      0.0004: real time      0.0004
    FORNL :  cpu time      0.0620: real time      0.0622
    STRESS:  cpu time      0.4727: real time      0.4748
    FORCOR:  cpu time      0.0091: real time      0.0091
    FORHAR:  cpu time      0.0022: real time      0.0022
    MIXING:  cpu time      0.0007: real time      0.0007
    OFIELD:  cpu time      0.0000: real time      0.0000

  FORCE on cell =-STRESS in cart. coord.  units (eV):
  Direction    XX          YY          ZZ          XY          YZ          ZX
  --------------------------------------------------------------------------------------
  Alpha Z    87.52689    87.52689    87.52689
  Ewald    -432.31951  -503.05559  -480.51001    -4.89087     0.00000     0.00000
  Hartree    66.31716    33.91944    39.97650    -2.24250     0.00000    -0.00000
  E(xc)    -141.23857  -141.31399  -141.37407    -0.02513     0.00000    -0.00000
  Local    -198.45466  -102.12043  -132.90725     7.42455    -0.00000    -0.00000
  n-local   240.60604   240.26087   241.47405    -0.09779    -0.00000     0.00000
  augment   -11.31034   -11.80296   -12.03432     0.01450    -0.00000    -0.00000
  Kinetic   390.15866   397.87112   400.66386    -0.05337    -0.00000     0.00000
  Fock        0.00000     0.00000     0.00000     0.00000     0.00000     0.00000
  -------------------------------------------------------------------------------------
  Total       1.28568     1.28535     2.81565     0.12940    -0.00000    -0.00000
  in kB      10.64043    10.63766    23.30258     1.07089    -0.00000    -0.00000
  external pressure =       14.86 kB  Pullay stress =        0.00 kB


 VOLUME and BASIS-vectors are now :
 -----------------------------------------------------------------------------
  energy-cutoff  :      520.00
  volume of cell :      193.59
      direct lattice vectors                 reciprocal lattice vectors
     3.858100176  0.000000000  0.000000000     0.259194929  0.000000000  0.000000000
     0.000000000  4.526575088  0.000000000     0.000000000  0.220917577  0.000000000
     0.000000000  0.000000000 11.085176468     0.000000000  0.000000000  0.090210562

  length of vectors
     3.858100176  4.526575088 11.085176468     0.259194929  0.220917577  0.090210562


 FORCES acting on ions
    electron-ion (+dipol)            ewald-force                    non-local-force                 convergence-correction
 -----------------------------------------------------------------------------------------------
   -.697E+00 0.183E+02 0.248E+02   0.793E+00 -.209E+02 -.275E+02   -.127E+00 0.247E+01 0.292E+01   0.325E-04 -.404E-03 -.139E-02
   -.697E+00 0.183E+02 -.248E+02   0.793E+00 -.209E+02 0.275E+02   -.127E+00 0.247E+01 -.292E+01   0.331E-04 -.406E-03 0.139E-02
   0.697E+00 -.183E+02 -.248E+02   -.793E+00 0.209E+02 0.275E+02   0.127E+00 -.247E+01 -.292E+01   -.327E-04 0.406E-03 0.139E-02
   0.697E+00 -.183E+02 0.248E+02   -.793E+00 0.209E+02 -.275E+02   0.127E+00 -.247E+01 0.292E+01   -.328E-04 0.404E-03 -.139E-02
   -.383E+00 -.187E+02 -.221E+02   0.433E+00 0.202E+02 0.236E+02   0.348E-01 -.137E+01 -.156E+01   -.971E-04 0.881E-03 0.263E-02
   -.383E+00 -.187E+02 0.221E+02   0.433E+00 0.202E+02 -.236E+02   0.348E-01 -.137E+01 0.156E+01   -.952E-04 0.879E-03 -.263E-02
   0.383E+00 0.187E+02 0.221E+02   -.433E+00 -.202E+02 -.236E+02   -.347E-01 0.137E+01 0.156E+01   0.953E-04 -.881E-03 -.263E-02
   0.383E+00 0.187E+02 -.221E+02   -.433E+00 -.202E+02 0.236E+02   -.347E-01 0.137E+01 -.156E+01   0.957E-04 -.881E-03 0.263E-02
 -----------------------------------------------------------------------------------------------
   0.686E-05 0.938E-05 -.712E-06   -.361E-14 0.107E-13 0.107E-13   0.168E-03 0.282E-03 0.158E-05   -.106E-05 -.219E-05 -.742E-06
 
 
 POSITION                                       TOTAL-FORCE (eV/Angst)
 -----------------------------------------------------------------------------------
      2.36239      1.76302      1.36328        -0.030836     -0.195198      0.171973
      0.43334      4.02631      4.17930        -0.030836     -0.195198     -0.171973
      2.89358      4.01000      9.72189         0.030807      0.195064     -0.171993
      0.96453      1.74671      6.90587         0.030806      0.195064      0.171994
      2.36239      1.21616      3.90621         0.084809      0.171643     -0.043363
      0.43334      3.47945      1.63637         0.084810      0.171643      0.043363
      2.89358      0.03028      7.17896        -0.084780     -0.171509      0.043369
      0.96453      2.29357      9.44880        -0.084780     -0.171510     -0.043370
 -----------------------------------------------------------------------------------
    total drift:                                0.000173      0.000290      0.000000


--------------------------------------------------------------------------------------------------------



  FREE ENERGIE OF THE ION-ELECTRON SYSTEM (eV)
  ---------------------------------------------------
  free  energy   TOTEN  =       -33.54770394 eV

  energy  without entropy=      -33.54770394  energy(sigma->0) =      -33.54770394
 


--------------------------------------------------------------------------------------------------------


    POTLOK:  cpu time      0.2301: real time      0.2307


--------------------------------------------------------------------------------------------------------


     LOOP+:  cpu time      8.0739: real time      8.1171
    4ORBIT:  cpu time      0.0000: real time      0.0000

 total amount of memory used by VASP MPI-rank0    41770. kBytes
=======================================================================

   base      :      30000. kBytes
   nonl-proj :       9056. kBytes
   fftplans  :        519. kBytes
   grid      :        766. kBytes
   one-center:         16. kBytes
   wavefun   :       1413. kBytes
 
  
  
 General timing and accounting informations for this job:
 ========================================================
  
                  Total CPU time used (sec):        9.837
                            User time (sec):        9.518
                          System time (sec):        0.319
                         Elapsed time (sec):       10.119
  
                   Maximum memory used (kb):      181384.
                   Average memory used (kb):          N/A
  
                          Minor page faults:        23814
                          Major page faults:           86
                 Voluntary context switches:         1769
