 vasp.6.4.2 20Jul23 (build Oct 12 2023 10:31:02) complex                         
 executed on              LinuxNV date 2025.05.19  21:12:28
 running  160 mpi-ranks, with    1 threads/rank, on   10 nodes
 distrk:  each k-point on   80 cores,    2 groups
 distr:  one band on NCORE=   5 cores,   16 groups


--------------------------------------------------------------------------------------------------------


 INCAR:
   ENCUT = 360.000000
   SIGMA = 0.050000
   EDIFF = 1.00e-06
   ALGO = Normal
   GGA = PE
   PREC = Normal
   SYSTEM = ./
   ICHARG = 2
   ISMEAR = 0
   ISPIN = 1
   ISTART = 0
   ISYM = 0
   KPAR = 2
   LMAXMIX = 4
   NELM = 100
   NPAR = 16
   LASPH = .TRUE.
   LCHARG = .FALSE.
   LWAVE = .FALSE.

 POTCAR:    PAW_PBE Ge 05Jan2001                  
 POTCAR:    PAW_PBE Se 06Sep2000                  
 POTCAR:    PAW_PBE Ge 05Jan2001                  
   VRHFIN =Ge: s2p2                                                                                 
   LEXCH  = PE                                                                                      
   EATOM  =   104.9960 eV,    7.7170 Ry                                                             
                                                                                                    
   TITEL  = PAW_PBE Ge 05Jan2001                                                                    
   LULTRA =        F    use ultrasoft PP ?                                                          
   IUNSCR =        1    unscreen: 0-lin 1-nonlin 2-no                                               
   RPACOR =    2.170    partial core radius                                                         
   POMASS =   72.610; ZVAL   =    4.000    mass and valenz                                          
   RCORE  =    2.300    outmost cutoff radius                                                       
   RWIGS  =    2.300; RWIGS  =    1.217    wigner-seitz radius (au A)                               
   ENMAX  =  173.807; ENMIN  =  130.355 eV                                                          
   ICORE  =        3    local potential                                                             
   LCOR   =        T    correct aug charges                                                         
   LPAW   =        T    paw PP                                                                      
   EAUG   =  385.843                                                                                
   DEXC   =    0.000                                                                                
   RMAX   =    2.342    core radius for proj-oper                                                   
   RAUG   =    1.300    factor for augmentation sphere                                              
   RDEP   =    2.318    radius for radial grids                                                     
   RDEPT  =    2.103    core radius for aug-charge                                                  
                                                                                                    
   Atomic configuration                                                                             
   10 entries                                                                                       
     n  l   j            E        occ.                                                              
     1  0  0.50    -10959.8463   2.0000                                                             
     2  0  0.50     -1371.6056   2.0000                                                             
     2  1  1.50     -1198.4791   6.0000                                                             
     3  0  0.50      -168.4733   2.0000                                                             
     3  1  1.50      -115.6019   6.0000                                                             
     3  2  2.50       -29.3106  10.0000                                                             
     4  0  0.50       -11.7309   2.0000                                                             
     4  1  0.50        -3.8952   2.0000                                                             
     4  2  1.50        -4.0817   0.0000                                                             
     4  3  2.50        -4.0817   0.0000                                                             
   Description                                                                                      
     l       E           TYP  RCUT    TYP  RCUT                                                     
     0    -11.7309493     23  2.300                                                                 
     0     -7.4578696     23  2.300                                                                 
     1     -3.8952261     23  2.300                                                                 
     1      6.1178114     23  2.300                                                                 
     2     -4.0817478     23  2.300                                                                 
     3     -1.3605826      7  2.300                                                                 
  local pseudopotential read in
  partial core-charges read in
  partial kinetic energy density read in
  atomic valenz-charges read in
  non local Contribution for L=            0  read in
    real space projection operators read in
  non local Contribution for L=            0  read in
    real space projection operators read in
  non local Contribution for L=            1  read in
    real space projection operators read in
  non local Contribution for L=            1  read in
    real space projection operators read in
  non local Contribution for L=            2  read in
    real space projection operators read in
    PAW grid and wavefunctions read in
 
   number of l-projection  operators is LMAX  =            5
   number of lm-projection operators is LMMAX =           13
 
 POTCAR:    PAW_PBE Se 06Sep2000                  
   VRHFIN =Se: s2p4                                                                                 
   LEXCH  = PE                                                                                      
   EATOM  =   257.1286 eV,   18.8984 Ry                                                             
                                                                                                    
   TITEL  = PAW_PBE Se 06Sep2000                                                                    
   LULTRA =        F    use ultrasoft PP ?                                                          
   IUNSCR =        1    unscreen: 0-lin 1-nonlin 2-no                                               
   RPACOR =    1.900    partial core radius                                                         
   POMASS =   78.960; ZVAL   =    6.000    mass and valenz                                          
   RCORE  =    2.100    outmost cutoff radius                                                       
   RWIGS  =    2.200; RWIGS  =    1.164    wigner-seitz radius (au A)                               
   ENMAX  =  211.555; ENMIN  =  158.666 eV                                                          
   ICORE  =        3    local potential                                                             
   LCOR   =        T    correct aug charges                                                         
   LPAW   =        T    paw PP                                                                      
   EAUG   =  446.842                                                                                
   DEXC   =    0.000                                                                                
   RMAX   =    2.147    core radius for proj-oper                                                   
   RAUG   =    1.300    factor for augmentation sphere                                              
   RDEP   =    2.177    radius for radial grids                                                     
   RDEPT  =    1.928    core radius for aug-charge                                                  
                                                                                                    
   Atomic configuration                                                                             
   10 entries                                                                                       
     n  l   j            E        occ.                                                              
     1  0  0.50    -12503.4787   2.0000                                                             
     2  0  0.50     -1606.9547   2.0000                                                             
     2  1  1.50     -1413.3140   6.0000                                                             
     3  0  0.50      -213.4885   2.0000                                                             
     3  1  1.50      -152.9538   6.0000                                                             
     3  2  2.50       -53.1221  10.0000                                                             
     4  0  0.50       -17.2865   2.0000                                                             
     4  1  0.50        -6.5110   4.0000                                                             
     4  2  2.50        -6.8029   0.0000                                                             
     4  3  2.50        -6.8029   0.0000                                                             
   Description                                                                                      
     l       E           TYP  RCUT    TYP  RCUT                                                     
     0    -17.2865377     23  2.100                                                                 
     0    -15.3094411     23  2.100                                                                 
     1     -6.5110275     23  2.100                                                                 
     1     -0.0695192     23  2.100                                                                 
     2     -6.8029130     23  2.100                                                                 
     3     -1.3605826      7  2.100                                                                 
  local pseudopotential read in
  partial core-charges read in
  partial kinetic energy density read in
  atomic valenz-charges read in
  non local Contribution for L=            0  read in
    real space projection operators read in
  non local Contribution for L=            0  read in
    real space projection operators read in
  non local Contribution for L=            1  read in
    real space projection operators read in
  non local Contribution for L=            1  read in
    real space projection operators read in
  non local Contribution for L=            2  read in
    real space projection operators read in
    PAW grid and wavefunctions read in
 
   number of l-projection  operators is LMAX  =            5
   number of lm-projection operators is LMMAX =           13
 
  PAW_PBE Ge 05Jan2001                  :
 energy of atom  1       EATOM= -104.9960
 kinetic energy error for atom=    0.0005 (will be added to EATOM!!)
  PAW_PBE Se 06Sep2000                  :
 energy of atom  2       EATOM= -257.1286
 kinetic energy error for atom=    0.0030 (will be added to EATOM!!)
 
 
 POSCAR: Ge Se
  positions in cartesian coordinates
  No initial velocities read in
 exchange correlation table for  LEXCH =        8
   RHO(1)=    0.500       N(1)  =     2000
   RHO(2)=  100.500       N(2)  =     4000
 


--------------------------------------------------------------------------------------------------------


 ion  position               nearest neighbor table
   1  0.221  0.618  0.132-   5 2.59   6 2.60   6 2.60
   2  0.721  0.118  0.368-   6 2.59   5 2.60   5 2.60
   3  0.750  0.904  0.868-   7 2.59   8 2.60   8 2.60
   4  0.250  0.404  0.632-   8 2.59   7 2.60   7 2.60
   5  0.221  0.501  0.351-   1 2.59   2 2.60   2 2.60
   6  0.721  0.001  0.149-   2 2.59   1 2.60   1 2.60
   7  0.750  0.021  0.649-   3 2.59   4 2.60   4 2.60
   8  0.250  0.521  0.851-   4 2.59   3 2.60   3 2.60
 

IMPORTANT INFORMATION: All symmetrisations will be switched off!
NOSYMM: (Re-)initialisation of all symmetry stuff for point group C_1.


----------------------------------------------------------------------------------------

                                     Primitive cell                                     

  volume of cell :     202.3233

  direct lattice vectors                    reciprocal lattice vectors
     3.858100176  0.000000000  0.000000000     0.259194929  0.000000000  0.000000000
     0.000000000  4.526575088  0.000000000     0.000000000  0.220917577  0.000000000
     0.000000000  0.000000000 11.585176468     0.000000000  0.000000000  0.086317200

  length of vectors
     3.858100176  4.526575088 11.585176468     0.259194929  0.220917577  0.086317200

  position of ions in fractional coordinates (direct lattice)
     0.221014496  0.617982488  0.131971745
     0.721014460  0.117982475  0.368028228
     0.749999855  0.903756548  0.868028249
     0.249999781  0.403756501  0.631971759
     0.221014480  0.501204835  0.351109927
     0.721014496  0.001204856  0.148890049
     0.749999761  0.020534152  0.648890076
     0.249999838  0.520534176  0.851109946

  ion indices of the primitive-cell ions
   primitive index   ion index
                 1           1
                 2           2
                 3           3
                 4           4
                 5           5
                 6           6
                 7           7
                 8           8

----------------------------------------------------------------------------------------

 
 
 KPOINTS: KPOINTS created by Atomic Simulation Env

Automatic generation of k-mesh.
 Grid dimensions read from file:
 generate k-points for:    6    6    2

 Generating k-lattice:

  Cartesian coordinates                     Fractional coordinates (reciprocal lattice)
     0.043199155  0.000000000  0.000000000     0.166666667  0.000000000  0.000000000
     0.000000000  0.036819596  0.000000000     0.000000000  0.166666667  0.000000000
     0.000000000  0.000000000  0.043158600     0.000000000  0.000000000  0.500000000

  Length of vectors
     0.043199155  0.036819596  0.043158600

  Shift w.r.t. Gamma in fractional coordinates (k-lattice)
     0.000000000  0.000000000  0.000000000

 
 Subroutine IBZKPT returns following result:
 ===========================================
 
 Found     40 irreducible k-points:
 
 Following reciprocal coordinates:
            Coordinates               Weight
  0.000000  0.000000  0.000000      1.000000
  0.166667  0.000000  0.000000      2.000000
  0.333333  0.000000  0.000000      2.000000
  0.500000  0.000000  0.000000      1.000000
  0.000000  0.166667  0.000000      2.000000
  0.166667  0.166667  0.000000      2.000000
  0.166667 -0.166667  0.000000      2.000000
  0.333333  0.166667  0.000000      2.000000
  0.333333 -0.166667  0.000000      2.000000
  0.500000  0.166667  0.000000      2.000000
  0.000000  0.333333  0.000000      2.000000
  0.166667  0.333333  0.000000      2.000000
  0.166667 -0.333333  0.000000      2.000000
  0.333333  0.333333  0.000000      2.000000
  0.333333 -0.333333  0.000000      2.000000
  0.500000  0.333333  0.000000      2.000000
  0.000000  0.500000  0.000000      1.000000
  0.166667  0.500000  0.000000      2.000000
  0.333333  0.500000  0.000000      2.000000
  0.500000  0.500000  0.000000      1.000000
  0.000000  0.000000  0.500000      1.000000
  0.166667  0.000000  0.500000      2.000000
  0.333333  0.000000  0.500000      2.000000
  0.500000  0.000000  0.500000      1.000000
  0.000000  0.166667  0.500000      2.000000
  0.166667  0.166667  0.500000      2.000000
  0.166667 -0.166667  0.500000      2.000000
  0.333333  0.166667  0.500000      2.000000
  0.333333 -0.166667  0.500000      2.000000
  0.500000  0.166667  0.500000      2.000000
  0.000000  0.333333  0.500000      2.000000
  0.166667  0.333333  0.500000      2.000000
  0.166667 -0.333333  0.500000      2.000000
  0.333333  0.333333  0.500000      2.000000
  0.333333 -0.333333  0.500000      2.000000
  0.500000  0.333333  0.500000      2.000000
  0.000000  0.500000  0.500000      1.000000
  0.166667  0.500000  0.500000      2.000000
  0.333333  0.500000  0.500000      2.000000
  0.500000  0.500000  0.500000      1.000000
 
 Following cartesian coordinates:
            Coordinates               Weight
  0.000000  0.000000  0.000000      1.000000
  0.043199  0.000000  0.000000      2.000000
  0.086398  0.000000  0.000000      2.000000
  0.129597  0.000000  0.000000      1.000000
  0.000000  0.036820  0.000000      2.000000
  0.043199  0.036820  0.000000      2.000000
  0.043199 -0.036820  0.000000      2.000000
  0.086398  0.036820  0.000000      2.000000
  0.086398 -0.036820  0.000000      2.000000
  0.129597  0.036820  0.000000      2.000000
  0.000000  0.073639  0.000000      2.000000
  0.043199  0.073639  0.000000      2.000000
  0.043199 -0.073639  0.000000      2.000000
  0.086398  0.073639  0.000000      2.000000
  0.086398 -0.073639  0.000000      2.000000
  0.129597  0.073639  0.000000      2.000000
  0.000000  0.110459  0.000000      1.000000
  0.043199  0.110459  0.000000      2.000000
  0.086398  0.110459  0.000000      2.000000
  0.129597  0.110459  0.000000      1.000000
  0.000000  0.000000  0.043159      1.000000
  0.043199  0.000000  0.043159      2.000000
  0.086398  0.000000  0.043159      2.000000
  0.129597  0.000000  0.043159      1.000000
  0.000000  0.036820  0.043159      2.000000
  0.043199  0.036820  0.043159      2.000000
  0.043199 -0.036820  0.043159      2.000000
  0.086398  0.036820  0.043159      2.000000
  0.086398 -0.036820  0.043159      2.000000
  0.129597  0.036820  0.043159      2.000000
  0.000000  0.073639  0.043159      2.000000
  0.043199  0.073639  0.043159      2.000000
  0.043199 -0.073639  0.043159      2.000000
  0.086398  0.073639  0.043159      2.000000
  0.086398 -0.073639  0.043159      2.000000
  0.129597  0.073639  0.043159      2.000000
  0.000000  0.110459  0.043159      1.000000
  0.043199  0.110459  0.043159      2.000000
  0.086398  0.110459  0.043159      2.000000
  0.129597  0.110459  0.043159      1.000000
 


--------------------------------------------------------------------------------------------------------




 Dimension of arrays:
   k-points           NKPTS =     40   k-points in BZ     NKDIM =     40   number of bands    NBANDS=     32
   number of dos      NEDOS =    301   number of ions     NIONS =      8
   non local maximal  LDIM  =      5   non local SUM 2l+1 LMDIM =     13
   total plane-waves  NPLWV =  23328
   max r-space proj   IRMAX =      1   max aug-charges    IRDMAX=   6465
   dimension x,y,z NGX =    18 NGY =   24 NGZ =   54
   dimension x,y,z NGXF=    36 NGYF=   48 NGZF=  108
   support grid    NGXF=    36 NGYF=   48 NGZF=  108
   ions per type =               4   4
   NGX,Y,Z   is equivalent  to a cutoff of   7.76,  8.81,  7.75 a.u.
   NGXF,Y,Z  is equivalent  to a cutoff of  15.51, 17.63, 15.50 a.u.

 SYSTEM =  ./                                      
 POSCAR =  Ge Se                                   

 Startparameter for this run:
   NWRITE =      2    write-flag & timer
   PREC   = normal    normal or accurate (medium, high low for compatibility)
   ISTART =      0    job   : 0-new  1-cont  2-samecut
   ICHARG =      2    charge: 1-file 2-atom 10-const
   ISPIN  =      1    spin polarized calculation?
   LNONCOLLINEAR =      F non collinear calculations
   LSORBIT =      F    spin-orbit coupling
   INIWAV =      1    electr: 0-lowe 1-rand  2-diag
   LASPH  =      T    aspherical Exc in radial PAW
 Electronic Relaxation 1
   ENCUT  =  360.0 eV  26.46 Ry    5.14 a.u.   5.97  7.00 17.92*2*pi/ulx,y,z
   ENINI  =  360.0     initial cutoff
   ENAUG  =  446.8 eV  augmentation charge cutoff
   NELM   =    100;   NELMIN=  2; NELMDL= -5     # of ELM steps 
   EDIFF  = 0.1E-05   stopping-criterion for ELM
   LREAL  =      F    real-space projection
   NLSPLINE    = F    spline interpolate recip. space projectors
   LCOMPAT=      F    compatible to vasp.4.4
   GGA_COMPAT  = T    GGA compatible to vasp.4.4-vasp.4.6
   LMAXPAW     = -100 max onsite density
   LMAXMIX     =    4 max onsite mixed and CHGCAR
   VOSKOWN=      0    Vosko Wilk Nusair interpolation
   ROPT   =    0.00000   0.00000
 Ionic relaxation
   EDIFFG = 0.1E-04   stopping-criterion for IOM
   NSW    =      0    number of steps for IOM
   NBLOCK =      1;   KBLOCK =      1    inner block; outer block 
   IBRION =     -1    ionic relax: 0-MD 1-quasi-New 2-CG
   NFREE  =      0    steps in history (QN), initial steepest desc. (CG)
   ISIF   =      2    stress and relaxation
   IWAVPR =     10    prediction:  0-non 1-charg 2-wave 3-comb
   ISYM   =      0    0-nonsym 1-usesym 2-fastsym
   LCORR  =      T    Harris-Foulkes like correction to forces

   POTIM  = 0.5000    time-step for ionic-motion
   TEIN   =    0.0    initial temperature
   TEBEG  =    0.0;   TEEND  =   0.0 temperature during run
   SMASS  =  -3.00    Nose mass-parameter (am)
   estimated Nose-frequenzy (Omega)   =  0.10E-29 period in steps = 0.13E+47 mass=  -0.340E-27a.u.
   SCALEE = 1.0000    scale energy and forces
   NPACO  =    256;   APACO  = 10.0  distance and # of slots for P.C.
   PSTRESS=    0.0 pullay stress

  Mass of Ions in am
   POMASS =  72.61 78.96
  Ionic Valenz
   ZVAL   =   4.00  6.00
  Atomic Wigner-Seitz radii
   RWIGS  =  -1.00 -1.00
  virtual crystal weights 
   VCA    =   1.00  1.00
   NELECT =      40.0000    total number of electrons
   NUPDOWN=      -1.0000    fix difference up-down

 DOS related values:
   EMIN   =  10.00;   EMAX   =-10.00  energy-range for DOS
   EFERMI =   0.00;   METHOD = LEGACY      
   ISMEAR =     0;   SIGMA  =   0.05  broadening in eV -4-tet -1-fermi 0-gaus

 Electronic relaxation 2 (details)
   IALGO  =     38    algorithm
   LDIAG  =      T    sub-space diagonalisation (order eigenvalues)
   LSUBROT=      F    optimize rotation matrix (better conditioning)
   TURBO    =      0    0=normal 1=particle mesh
   IRESTART =      0    0=no restart 2=restart with 2 vectors
   NREBOOT  =      0    no. of reboots
   NMIN     =      0    reboot dimension
   EREF     =   0.00    reference energy to select bands
   IMIX   =      4    mixing-type and parameters
     AMIX     =   0.40;   BMIX     =  1.00
     AMIX_MAG =   1.60;   BMIX_MAG =  1.00
     AMIN     =   0.10
     WC   =   100.;   INIMIX=   1;  MIXPRE=   1;  MAXMIX= -45

 Intra band minimization:
   WEIMIN = 0.0000     energy-eigenvalue tresh-hold
   EBREAK =  0.78E-08  absolut break condition
   DEPER  =   0.30     relativ break condition  

   TIME   =   0.40     timestep for ELM

  volume/ion in A,a.u.               =      25.29       170.67
  Fermi-wavevector in a.u.,A,eV,Ry     =   0.953702  1.802236 12.375155  0.909548
  Thomas-Fermi vector in A             =   2.082382
 
 Write flags
   LWAVE        =      F    write WAVECAR
   LDOWNSAMPLE  =      F    k-point downsampling of WAVECAR
   LCHARG       =      F    write CHGCAR
   LVTOT        =      F    write LOCPOT, total local potential
   LVHAR        =      F    write LOCPOT, Hartree potential only
   LELF         =      F    write electronic localiz. function (ELF)
   LORBIT       =      0    0 simple, 1 ext, 2 COOP (PROOUT), +10 PAW based schemes


 Dipole corrections
   LMONO  =      F    monopole corrections only (constant potential shift)
   LDIPOL =      F    correct potential (dipole corrections)
   IDIPOL =      0    1-x, 2-y, 3-z, 4-all directions 
   EPSILON=  1.0000000 bulk dielectric constant

 Exchange correlation treatment:
   GGA     =    PE    GGA type
   LEXCH   =     8    internal setting for exchange type
   LIBXC   =     F    Libxc                    
   VOSKOWN =     0    Vosko Wilk Nusair interpolation
   LHFCALC =     F    Hartree Fock is set to
   LHFONE  =     F    Hartree Fock one center treatment
   AEXX    =    0.0000 exact exchange contribution

 Linear response parameters
   LEPSILON=     F    determine dielectric tensor
   LRPA    =     F    only Hartree local field effects (RPA)
   LNABLA  =     F    use nabla operator in PAW spheres
   LVEL    =     F    velocity operator in full k-point grid
   CSHIFT  =0.1000    complex shift for real part using Kramers Kronig
   OMEGAMAX=  -1.0    maximum frequency
   DEG_THRESHOLD= 0.2000000E-02 threshold for treating states as degnerate
   RTIME   =   -0.100 relaxation time in fs
  (WPLASMAI=    0.000 imaginary part of plasma frequency in eV, 0.658/RTIME)
   DFIELD  = 0.0000000 0.0000000 0.0000000 field for delta impulse in time
 
  Optional k-point grid parameters
   LKPOINTS_OPT  =     F    use optional k-point grid
   KPOINTS_OPT_MODE=     1    mode for optional k-point grid
 
 Orbital magnetization related:
   ORBITALMAG=     F  switch on orbital magnetization
   LCHIMAG   =     F  perturbation theory with respect to B field
   DQ        =  0.001000  dq finite difference perturbation B field
   LLRAUG    =     F  two centre corrections for induced B field
   LBONE     =     F  B-component reconstruction in AE one-centre
   LVGVCALC  =     T  calculate vGv susceptibility
   LVGVAPPL  =     F  apply vGv susceptibility instead of pGv for G=0

 Random number generation:
   RANDOM_GENERATOR = DEFAULT
   PCG_SEED         = not used


--------------------------------------------------------------------------------------------------------


 Static calculation
 charge density and potential will be updated during run
 non-spin polarized calculation
 Variant of blocked Davidson
 Davidson routine will perform the subspace rotation
 perform sub-space diagonalisation
    after iterative eigenvector-optimisation
 modified Broyden-mixing scheme, WC =      100.0
 initial mixing is a Kerker type mixing with AMIX =  0.4000 and BMIX =      1.0000
 Hartree-type preconditioning will be used
 using additional bands            12
 reciprocal scheme for non local part
 use partial core corrections
 calculate Harris-corrections to forces 
   (improved forces if not selfconsistent)
 use gradient corrections 
 use of overlap-Matrix (Vanderbilt PP)
 Gauss-broadening in eV      SIGMA  =   0.05


--------------------------------------------------------------------------------------------------------


  energy-cutoff  :      360.00
  volume of cell :      202.32
      direct lattice vectors                 reciprocal lattice vectors
     3.858100176  0.000000000  0.000000000     0.259194929  0.000000000  0.000000000
     0.000000000  4.526575088  0.000000000     0.000000000  0.220917577  0.000000000
     0.000000000  0.000000000 11.585176468     0.000000000  0.000000000  0.086317200

  length of vectors
     3.858100176  4.526575088 11.585176468     0.259194929  0.220917577  0.086317200


 
 k-points in units of 2pi/SCALE and weight: KPOINTS created by Atomic Simulation Env
   0.00000000  0.00000000  0.00000000       0.014
   0.04319915  0.00000000  0.00000000       0.028
   0.08639831  0.00000000  0.00000000       0.028
   0.12959746  0.00000000  0.00000000       0.014
   0.00000000  0.03681960  0.00000000       0.028
   0.04319915  0.03681960  0.00000000       0.028
   0.04319915 -0.03681960  0.00000000       0.028
   0.08639831  0.03681960  0.00000000       0.028
   0.08639831 -0.03681960  0.00000000       0.028
   0.12959746  0.03681960  0.00000000       0.028
   0.00000000  0.07363919  0.00000000       0.028
   0.04319915  0.07363919  0.00000000       0.028
   0.04319915 -0.07363919  0.00000000       0.028
   0.08639831  0.07363919  0.00000000       0.028
   0.08639831 -0.07363919  0.00000000       0.028
   0.12959746  0.07363919  0.00000000       0.028
   0.00000000  0.11045879  0.00000000       0.014
   0.04319915  0.11045879  0.00000000       0.028
   0.08639831  0.11045879  0.00000000       0.028
   0.12959746  0.11045879  0.00000000       0.014
   0.00000000  0.00000000  0.04315860       0.014
   0.04319915  0.00000000  0.04315860       0.028
   0.08639831  0.00000000  0.04315860       0.028
   0.12959746  0.00000000  0.04315860       0.014
   0.00000000  0.03681960  0.04315860       0.028
   0.04319915  0.03681960  0.04315860       0.028
   0.04319915 -0.03681960  0.04315860       0.028
   0.08639831  0.03681960  0.04315860       0.028
   0.08639831 -0.03681960  0.04315860       0.028
   0.12959746  0.03681960  0.04315860       0.028
   0.00000000  0.07363919  0.04315860       0.028
   0.04319915  0.07363919  0.04315860       0.028
   0.04319915 -0.07363919  0.04315860       0.028
   0.08639831  0.07363919  0.04315860       0.028
   0.08639831 -0.07363919  0.04315860       0.028
   0.12959746  0.07363919  0.04315860       0.028
   0.00000000  0.11045879  0.04315860       0.014
   0.04319915  0.11045879  0.04315860       0.028
   0.08639831  0.11045879  0.04315860       0.028
   0.12959746  0.11045879  0.04315860       0.014
 
 k-points in reciprocal lattice and weights: KPOINTS created by Atomic Simulation Env
   0.00000000  0.00000000  0.00000000       0.014
   0.16666667  0.00000000  0.00000000       0.028
   0.33333333  0.00000000  0.00000000       0.028
   0.50000000  0.00000000  0.00000000       0.014
   0.00000000  0.16666667  0.00000000       0.028
   0.16666667  0.16666667  0.00000000       0.028
   0.16666667 -0.16666667  0.00000000       0.028
   0.33333333  0.16666667  0.00000000       0.028
   0.33333333 -0.16666667  0.00000000       0.028
   0.50000000  0.16666667  0.00000000       0.028
   0.00000000  0.33333333  0.00000000       0.028
   0.16666667  0.33333333  0.00000000       0.028
   0.16666667 -0.33333333  0.00000000       0.028
   0.33333333  0.33333333  0.00000000       0.028
   0.33333333 -0.33333333  0.00000000       0.028
   0.50000000  0.33333333  0.00000000       0.028
   0.00000000  0.50000000  0.00000000       0.014
   0.16666667  0.50000000  0.00000000       0.028
   0.33333333  0.50000000  0.00000000       0.028
   0.50000000  0.50000000  0.00000000       0.014
   0.00000000  0.00000000  0.50000000       0.014
   0.16666667  0.00000000  0.50000000       0.028
   0.33333333  0.00000000  0.50000000       0.028
   0.50000000  0.00000000  0.50000000       0.014
   0.00000000  0.16666667  0.50000000       0.028
   0.16666667  0.16666667  0.50000000       0.028
   0.16666667 -0.16666667  0.50000000       0.028
   0.33333333  0.16666667  0.50000000       0.028
   0.33333333 -0.16666667  0.50000000       0.028
   0.50000000  0.16666667  0.50000000       0.028
   0.00000000  0.33333333  0.50000000       0.028
   0.16666667  0.33333333  0.50000000       0.028
   0.16666667 -0.33333333  0.50000000       0.028
   0.33333333  0.33333333  0.50000000       0.028
   0.33333333 -0.33333333  0.50000000       0.028
   0.50000000  0.33333333  0.50000000       0.028
   0.00000000  0.50000000  0.50000000       0.014
   0.16666667  0.50000000  0.50000000       0.028
   0.33333333  0.50000000  0.50000000       0.028
   0.50000000  0.50000000  0.50000000       0.014
 
 position of ions in fractional coordinates (direct lattice) 
   0.22101450  0.61798249  0.13197174
   0.72101446  0.11798248  0.36802823
   0.74999985  0.90375655  0.86802825
   0.24999978  0.40375650  0.63197176
   0.22101448  0.50120484  0.35110993
   0.72101450  0.00120486  0.14889005
   0.74999976  0.02053415  0.64889008
   0.24999984  0.52053418  0.85110995
 
 position of ions in cartesian coordinates  (Angst):
   0.85269607  2.79734413  1.52891595
   2.78174602  0.53405653  4.26367197
   2.89357457  4.09092188 10.05626045
   0.96452420  1.82763412  7.32150435
   0.85269600  2.26874132  4.06767047
   2.78174615  0.00545387  1.72491749
   2.89357421  0.09294938  7.51750603
   0.96452442  2.35623703  9.86025892
 


--------------------------------------------------------------------------------------------------------


 k-point   1 :   0.0000 0.0000 0.0000  plane waves:    3119
 k-point   2 :   0.1667 0.0000 0.0000  plane waves:    3116
 k-point   3 :   0.3333 0.0000 0.0000  plane waves:    3142
 k-point   4 :   0.5000 0.0000 0.0000  plane waves:    3148
 k-point   5 :   0.0000 0.1667 0.0000  plane waves:    3108
 k-point   6 :   0.1667 0.1667 0.0000  plane waves:    3123
 k-point   7 :   0.1667-0.1667 0.0000  plane waves:    3123
 k-point   8 :   0.3333 0.1667 0.0000  plane waves:    3135
 k-point   9 :   0.3333-0.1667 0.0000  plane waves:    3135
 k-point  10 :   0.5000 0.1667 0.0000  plane waves:    3138
 k-point  11 :   0.0000 0.3333 0.0000  plane waves:    3116
 k-point  12 :   0.1667 0.3333 0.0000  plane waves:    3133
 k-point  13 :   0.1667-0.3333 0.0000  plane waves:    3133
 k-point  14 :   0.3333 0.3333 0.0000  plane waves:    3155
 k-point  15 :   0.3333-0.3333 0.0000  plane waves:    3155
 k-point  16 :   0.5000 0.3333 0.0000  plane waves:    3152
 k-point  17 :   0.0000 0.5000 0.0000  plane waves:    3134
 k-point  18 :   0.1667 0.5000 0.0000  plane waves:    3140
 k-point  19 :   0.3333 0.5000 0.0000  plane waves:    3144
 k-point  20 :   0.5000 0.5000 0.0000  plane waves:    3144
 k-point  21 :   0.0000 0.0000 0.5000  plane waves:    3092
 k-point  22 :   0.1667 0.0000 0.5000  plane waves:    3124
 k-point  23 :   0.3333 0.0000 0.5000  plane waves:    3140
 k-point  24 :   0.5000 0.0000 0.5000  plane waves:    3132
 k-point  25 :   0.0000 0.1667 0.5000  plane waves:    3112
 k-point  26 :   0.1667 0.1667 0.5000  plane waves:    3140
 k-point  27 :   0.1667-0.1667 0.5000  plane waves:    3140
 k-point  28 :   0.3333 0.1667 0.5000  plane waves:    3134
 k-point  29 :   0.3333-0.1667 0.5000  plane waves:    3134
 k-point  30 :   0.5000 0.1667 0.5000  plane waves:    3144
 k-point  31 :   0.0000 0.3333 0.5000  plane waves:    3130
 k-point  32 :   0.1667 0.3333 0.5000  plane waves:    3148
 k-point  33 :   0.1667-0.3333 0.5000  plane waves:    3148
 k-point  34 :   0.3333 0.3333 0.5000  plane waves:    3142
 k-point  35 :   0.3333-0.3333 0.5000  plane waves:    3142
 k-point  36 :   0.5000 0.3333 0.5000  plane waves:    3152
 k-point  37 :   0.0000 0.5000 0.5000  plane waves:    3132
 k-point  38 :   0.1667 0.5000 0.5000  plane waves:    3148
 k-point  39 :   0.3333 0.5000 0.5000  plane waves:    3140
 k-point  40 :   0.5000 0.5000 0.5000  plane waves:    3160

 maximum and minimum number of plane-waves per node :       659      606

 maximum number of plane-waves:      3160
 maximum index in each direction: 
   IXMAX=    5   IYMAX=    7   IZMAX=   17
   IXMIN=   -6   IYMIN=   -7   IZMIN=  -18


 parallel 3D FFT for wavefunctions:
    minimum data exchange during FFTs selected (reduces bandwidth)
 parallel 3D FFT for charge:
    minimum data exchange during FFTs selected (reduces bandwidth)


 total amount of memory used by VASP MPI-rank0    37119. kBytes
=======================================================================

   base      :      30000. kBytes
   nonl-proj :       5406. kBytes
   fftplans  :        334. kBytes
   grid      :        503. kBytes
   one-center:         16. kBytes
   wavefun   :        860. kBytes
 
     INWAV:  cpu time      0.0000: real time      0.0001
 Broyden mixing: mesh for mixing (old mesh)
   NGX = 11   NGY = 15   NGZ = 35
  (NGX  = 36   NGY  = 48   NGZ  =108)
  gives a total of   5775 points

 initial charge density was supplied:
 charge density of overlapping atoms calculated
 number of electron      40.0000000 magnetization 
 keeping initial charge density in first step


--------------------------------------------------------------------------------------------------------


 Maximum index for augmentation-charges           195 (set IRDMAX)


--------------------------------------------------------------------------------------------------------


 First call to EWALD:  gamma=   0.302
 Maximum number of real-space cells 4x 3x 2
 Maximum number of reciprocal cells 2x 2x 5

    FEWALD:  cpu time      0.0011: real time      0.0011


--------------------------------------- Ionic step        1  -------------------------------------------




--------------------------------------- Iteration      1(   1)  ---------------------------------------


    POTLOK:  cpu time      0.0093: real time      0.0094
    SETDIJ:  cpu time      0.2219: real time      0.2222
     EDDAV:  cpu time      0.3143: real time      0.3158
       DOS:  cpu time      0.0011: real time      0.0011
    --------------------------------------------
      LOOP:  cpu time      0.5466: real time      0.5485

 eigenvalue-minimisations  :  2560
 total energy-change (2. order) : 0.1321756E+03  (-0.1288148E+04)
 number of electron      40.0000000 magnetization 
 augmentation part       40.0000000 magnetization 

 Free energy of the ion-electron system (eV)
  ---------------------------------------------------
  alpha Z        PSCENC =        83.74935623
  Ewald energy   TEWEN  =     -1379.56297508
  -Hartree energ DENC   =      -149.32616870
  -exchange      EXHF   =         0.00000000
  -V(xc)+E(xc)   XCENC  =       -33.65538823
  PAW double counting   =      1193.78262552    -1080.73714043
  entropy T*S    EENTRO =        -0.00343978
  eigenvalues    EBANDS =        49.44413398
  atomic energy  EATOM  =      1448.48460880
  Solvation  Ediel_sol  =         0.00000000
  ---------------------------------------------------
  free energy    TOTEN  =       132.17561231 eV

  energy without entropy =      132.17905209  energy(sigma->0) =      132.17733220


--------------------------------------------------------------------------------------------------------




--------------------------------------- Iteration      1(   2)  ---------------------------------------


     EDDAV:  cpu time      0.4312: real time      0.4337
       DOS:  cpu time      0.0005: real time      0.0005
    --------------------------------------------
      LOOP:  cpu time      0.4317: real time      0.4343

 eigenvalue-minimisations  :  3744
 total energy-change (2. order) :-0.1571249E+03  (-0.1527020E+03)
 number of electron      40.0000000 magnetization 
 augmentation part       40.0000000 magnetization 

 Free energy of the ion-electron system (eV)
  ---------------------------------------------------
  alpha Z        PSCENC =        83.74935623
  Ewald energy   TEWEN  =     -1379.56297508
  -Hartree energ DENC   =      -149.32616870
  -exchange      EXHF   =         0.00000000
  -V(xc)+E(xc)   XCENC  =       -33.65538823
  PAW double counting   =      1193.78262552    -1080.73714043
  entropy T*S    EENTRO =        -0.00000000
  eigenvalues    EBANDS =      -107.68416274
  atomic energy  EATOM  =      1448.48460880
  Solvation  Ediel_sol  =         0.00000000
  ---------------------------------------------------
  free energy    TOTEN  =       -24.94924463 eV

  energy without entropy =      -24.94924463  energy(sigma->0) =      -24.94924463


--------------------------------------------------------------------------------------------------------




--------------------------------------- Iteration      1(   3)  ---------------------------------------


     EDDAV:  cpu time      0.3516: real time      0.3532
       DOS:  cpu time      0.0005: real time      0.0005
    --------------------------------------------
      LOOP:  cpu time      0.3521: real time      0.3537

 eigenvalue-minimisations  :  3072
 total energy-change (2. order) :-0.8900735E+01  (-0.8882145E+01)
 number of electron      40.0000000 magnetization 
 augmentation part       40.0000000 magnetization 

 Free energy of the ion-electron system (eV)
  ---------------------------------------------------
  alpha Z        PSCENC =        83.74935623
  Ewald energy   TEWEN  =     -1379.56297508
  -Hartree energ DENC   =      -149.32616870
  -exchange      EXHF   =         0.00000000
  -V(xc)+E(xc)   XCENC  =       -33.65538823
  PAW double counting   =      1193.78262552    -1080.73714043
  entropy T*S    EENTRO =        -0.00000000
  eigenvalues    EBANDS =      -116.58489765
  atomic energy  EATOM  =      1448.48460880
  Solvation  Ediel_sol  =         0.00000000
  ---------------------------------------------------
  free energy    TOTEN  =       -33.84997954 eV

  energy without entropy =      -33.84997954  energy(sigma->0) =      -33.84997954


--------------------------------------------------------------------------------------------------------




--------------------------------------- Iteration      1(   4)  ---------------------------------------


     EDDAV:  cpu time      0.4142: real time      0.4162
       DOS:  cpu time      0.0006: real time      0.0006
    --------------------------------------------
      LOOP:  cpu time      0.4147: real time      0.4167

 eigenvalue-minimisations  :  3392
 total energy-change (2. order) :-0.6740250E-01  (-0.6738130E-01)
 number of electron      40.0000000 magnetization 
 augmentation part       40.0000000 magnetization 

 Free energy of the ion-electron system (eV)
  ---------------------------------------------------
  alpha Z        PSCENC =        83.74935623
  Ewald energy   TEWEN  =     -1379.56297508
  -Hartree energ DENC   =      -149.32616870
  -exchange      EXHF   =         0.00000000
  -V(xc)+E(xc)   XCENC  =       -33.65538823
  PAW double counting   =      1193.78262552    -1080.73714043
  entropy T*S    EENTRO =        -0.00000000
  eigenvalues    EBANDS =      -116.65230016
  atomic energy  EATOM  =      1448.48460880
  Solvation  Ediel_sol  =         0.00000000
  ---------------------------------------------------
  free energy    TOTEN  =       -33.91738205 eV

  energy without entropy =      -33.91738205  energy(sigma->0) =      -33.91738205


--------------------------------------------------------------------------------------------------------




--------------------------------------- Iteration      1(   5)  ---------------------------------------


     EDDAV:  cpu time      0.3502: real time      0.3521
       DOS:  cpu time      0.0005: real time      0.0005
    CHARGE:  cpu time      0.0057: real time      0.0057
    MIXING:  cpu time      0.0011: real time      0.0011
    --------------------------------------------
      LOOP:  cpu time      0.3575: real time      0.3595

 eigenvalue-minimisations  :  3024
 total energy-change (2. order) :-0.4998664E-03  (-0.4997337E-03)
 number of electron      39.9999944 magnetization 
 augmentation part       -7.4518268 magnetization 

 Broyden mixing:
  rms(total) = 0.65470E+00    rms(broyden)= 0.65468E+00
  rms(prec ) = 0.73537E+00
  weight for this iteration     100.00

 Free energy of the ion-electron system (eV)
  ---------------------------------------------------
  alpha Z        PSCENC =        83.74935623
  Ewald energy   TEWEN  =     -1379.56297508
  -Hartree energ DENC   =      -149.32616870
  -exchange      EXHF   =         0.00000000
  -V(xc)+E(xc)   XCENC  =       -33.65538823
  PAW double counting   =      1193.78262552    -1080.73714043
  entropy T*S    EENTRO =        -0.00000000
  eigenvalues    EBANDS =      -116.65280002
  atomic energy  EATOM  =      1448.48460880
  Solvation  Ediel_sol  =         0.00000000
  ---------------------------------------------------
  free energy    TOTEN  =       -33.91788191 eV

  energy without entropy =      -33.91788191  energy(sigma->0) =      -33.91788191


--------------------------------------------------------------------------------------------------------




--------------------------------------- Iteration      1(   6)  ---------------------------------------


    POTLOK:  cpu time      0.0077: real time      0.0079
    SETDIJ:  cpu time      0.2223: real time      0.2228
     EDDAV:  cpu time      0.3884: real time      0.3901
       DOS:  cpu time      0.0006: real time      0.0006
    CHARGE:  cpu time      0.0053: real time      0.0054
    MIXING:  cpu time      0.0005: real time      0.0005
    --------------------------------------------
      LOOP:  cpu time      0.6249: real time      0.6273

 eigenvalue-minimisations  :  3184
 total energy-change (2. order) : 0.4128292E+00  (-0.8406692E-01)
 number of electron      39.9999946 magnetization 
 augmentation part       -7.3885747 magnetization 

 Broyden mixing:
  rms(total) = 0.41015E+00    rms(broyden)= 0.41015E+00
  rms(prec ) = 0.42978E+00
  weight for this iteration     100.00

 eigenvalues of (default mixing * dielectric matrix)
  average eigenvalue GAMMA=   2.1687
  2.1687

 Free energy of the ion-electron system (eV)
  ---------------------------------------------------
  alpha Z        PSCENC =        83.74935623
  Ewald energy   TEWEN  =     -1379.56297508
  -Hartree energ DENC   =      -155.82297356
  -exchange      EXHF   =         0.00000000
  -V(xc)+E(xc)   XCENC  =       -33.02912783
  PAW double counting   =      1458.76238414    -1346.03557892
  entropy T*S    EENTRO =        -0.00000000
  eigenvalues    EBANDS =      -110.05074650
  atomic energy  EATOM  =      1448.48460880
  Solvation  Ediel_sol  =         0.00000000
  ---------------------------------------------------
  free energy    TOTEN  =       -33.50505273 eV

  energy without entropy =      -33.50505273  energy(sigma->0) =      -33.50505273


--------------------------------------------------------------------------------------------------------




--------------------------------------- Iteration      1(   7)  ---------------------------------------


    POTLOK:  cpu time      0.0077: real time      0.0078
    SETDIJ:  cpu time      0.2217: real time      0.2225
     EDDAV:  cpu time      0.3898: real time      0.3916
       DOS:  cpu time      0.0007: real time      0.0007
    CHARGE:  cpu time      0.0054: real time      0.0054
    MIXING:  cpu time      0.0005: real time      0.0005
    --------------------------------------------
      LOOP:  cpu time      0.6256: real time      0.6284

 eigenvalue-minimisations  :  3376
 total energy-change (2. order) : 0.5712244E-02  (-0.2460489E-01)
 number of electron      39.9999946 magnetization 
 augmentation part       -7.3663179 magnetization 

 Broyden mixing:
  rms(total) = 0.13328E+00    rms(broyden)= 0.13328E+00
  rms(prec ) = 0.14181E+00
  weight for this iteration     100.00

 eigenvalues of (default mixing * dielectric matrix)
  average eigenvalue GAMMA=   1.8183
  1.2325  2.4042

 Free energy of the ion-electron system (eV)
  ---------------------------------------------------
  alpha Z        PSCENC =        83.74935623
  Ewald energy   TEWEN  =     -1379.56297508
  -Hartree energ DENC   =      -158.96929276
  -exchange      EXHF   =         0.00000000
  -V(xc)+E(xc)   XCENC  =       -32.54592251
  PAW double counting   =      1788.18632112    -1675.69351725
  entropy T*S    EENTRO =        -0.00000000
  eigenvalues    EBANDS =      -107.14791903
  atomic energy  EATOM  =      1448.48460880
  Solvation  Ediel_sol  =         0.00000000
  ---------------------------------------------------
  free energy    TOTEN  =       -33.49934048 eV

  energy without entropy =      -33.49934048  energy(sigma->0) =      -33.49934048


--------------------------------------------------------------------------------------------------------




--------------------------------------- Iteration      1(   8)  ---------------------------------------


    POTLOK:  cpu time      0.0091: real time      0.0092
    SETDIJ:  cpu time      0.2173: real time      0.2178
     EDDAV:  cpu time      0.3661: real time      0.3682
       DOS:  cpu time      0.0006: real time      0.0006
    CHARGE:  cpu time      0.0055: real time      0.0055
    MIXING:  cpu time      0.0007: real time      0.0007
    --------------------------------------------
      LOOP:  cpu time      0.5992: real time      0.6021

 eigenvalue-minimisations  :  2976
 total energy-change (2. order) : 0.8879094E-03  (-0.2905055E-02)
 number of electron      39.9999946 magnetization 
 augmentation part       -7.3770368 magnetization 

 Broyden mixing:
  rms(total) = 0.17125E-01    rms(broyden)= 0.17125E-01
  rms(prec ) = 0.21469E-01
  weight for this iteration     100.00

 eigenvalues of (default mixing * dielectric matrix)
  average eigenvalue GAMMA=   1.6923
  2.4876  1.2947  1.2947

 Free energy of the ion-electron system (eV)
  ---------------------------------------------------
  alpha Z        PSCENC =        83.74935623
  Ewald energy   TEWEN  =     -1379.56297508
  -Hartree energ DENC   =      -159.04309107
  -exchange      EXHF   =         0.00000000
  -V(xc)+E(xc)   XCENC  =       -32.41107432
  PAW double counting   =      1930.52370306    -1818.08500206
  entropy T*S    EENTRO =        -0.00000000
  eigenvalues    EBANDS =      -107.15397814
  atomic energy  EATOM  =      1448.48460880
  Solvation  Ediel_sol  =         0.00000000
  ---------------------------------------------------
  free energy    TOTEN  =       -33.49845257 eV

  energy without entropy =      -33.49845257  energy(sigma->0) =      -33.49845257


--------------------------------------------------------------------------------------------------------




--------------------------------------- Iteration      1(   9)  ---------------------------------------


    POTLOK:  cpu time      0.0077: real time      0.0078
    SETDIJ:  cpu time      0.2224: real time      0.2229
     EDDAV:  cpu time      0.3853: real time      0.3871
       DOS:  cpu time      0.0006: real time      0.0006
    CHARGE:  cpu time      0.0054: real time      0.0054
    MIXING:  cpu time      0.0005: real time      0.0005
    --------------------------------------------
      LOOP:  cpu time      0.6219: real time      0.6243

 eigenvalue-minimisations  :  3104
 total energy-change (2. order) :-0.4461956E-03  (-0.3822355E-03)
 number of electron      39.9999946 magnetization 
 augmentation part       -7.3745024 magnetization 

 Broyden mixing:
  rms(total) = 0.66446E-02    rms(broyden)= 0.66446E-02
  rms(prec ) = 0.78044E-02
  weight for this iteration     100.00

 eigenvalues of (default mixing * dielectric matrix)
  average eigenvalue GAMMA=   1.7540
  2.3270  2.3270  1.1810  1.1810

 Free energy of the ion-electron system (eV)
  ---------------------------------------------------
  alpha Z        PSCENC =        83.74935623
  Ewald energy   TEWEN  =     -1379.56297508
  -Hartree energ DENC   =      -159.49253231
  -exchange      EXHF   =         0.00000000
  -V(xc)+E(xc)   XCENC  =       -32.36805727
  PAW double counting   =      1940.40359111    -1827.97427391
  entropy T*S    EENTRO =        -0.00000000
  eigenvalues    EBANDS =      -106.73861634
  atomic energy  EATOM  =      1448.48460880
  Solvation  Ediel_sol  =         0.00000000
  ---------------------------------------------------
  free energy    TOTEN  =       -33.49889877 eV

  energy without entropy =      -33.49889877  energy(sigma->0) =      -33.49889877


--------------------------------------------------------------------------------------------------------




--------------------------------------- Iteration      1(  10)  ---------------------------------------


    POTLOK:  cpu time      0.0076: real time      0.0077
    SETDIJ:  cpu time      0.2215: real time      0.2221
     EDDAV:  cpu time      0.3741: real time      0.3766
       DOS:  cpu time      0.0006: real time      0.0006
    CHARGE:  cpu time      0.0054: real time      0.0054
    MIXING:  cpu time      0.0005: real time      0.0005
    --------------------------------------------
      LOOP:  cpu time      0.6096: real time      0.6128

 eigenvalue-minimisations  :  3232
 total energy-change (2. order) :-0.2462918E-03  (-0.4336245E-04)
 number of electron      39.9999946 magnetization 
 augmentation part       -7.3745240 magnetization 

 Broyden mixing:
  rms(total) = 0.22425E-02    rms(broyden)= 0.22425E-02
  rms(prec ) = 0.27744E-02
  weight for this iteration     100.00

 eigenvalues of (default mixing * dielectric matrix)
  average eigenvalue GAMMA=   1.7644
  2.6533  2.6533  1.2022  1.2022  1.1109

 Free energy of the ion-electron system (eV)
  ---------------------------------------------------
  alpha Z        PSCENC =        83.74935623
  Ewald energy   TEWEN  =     -1379.56297508
  -Hartree energ DENC   =      -159.55317974
  -exchange      EXHF   =         0.00000000
  -V(xc)+E(xc)   XCENC  =       -32.36066546
  PAW double counting   =      1934.99998377    -1822.56563891
  entropy T*S    EENTRO =        -0.00000000
  eigenvalues    EBANDS =      -106.69063466
  atomic energy  EATOM  =      1448.48460880
  Solvation  Ediel_sol  =         0.00000000
  ---------------------------------------------------
  free energy    TOTEN  =       -33.49914506 eV

  energy without entropy =      -33.49914506  energy(sigma->0) =      -33.49914506


--------------------------------------------------------------------------------------------------------




--------------------------------------- Iteration      1(  11)  ---------------------------------------


    POTLOK:  cpu time      0.0076: real time      0.0078
    SETDIJ:  cpu time      0.2215: real time      0.2220
     EDDAV:  cpu time      0.3799: real time      0.3820
       DOS:  cpu time      0.0007: real time      0.0007
    CHARGE:  cpu time      0.0057: real time      0.0058
    MIXING:  cpu time      0.0005: real time      0.0005
    --------------------------------------------
      LOOP:  cpu time      0.6160: real time      0.6187

 eigenvalue-minimisations  :  3136
 total energy-change (2. order) :-0.5241989E-04  (-0.5882428E-05)
 number of electron      39.9999946 magnetization 
 augmentation part       -7.3746091 magnetization 

 Broyden mixing:
  rms(total) = 0.12094E-02    rms(broyden)= 0.12094E-02
  rms(prec ) = 0.14067E-02
  weight for this iteration     100.00

 eigenvalues of (default mixing * dielectric matrix)
  average eigenvalue GAMMA=   1.8083
  2.6102  2.6102  2.3155  0.9712  1.1713  1.1713

 Free energy of the ion-electron system (eV)
  ---------------------------------------------------
  alpha Z        PSCENC =        83.74935623
  Ewald energy   TEWEN  =     -1379.56297508
  -Hartree energ DENC   =      -159.59319074
  -exchange      EXHF   =         0.00000000
  -V(xc)+E(xc)   XCENC  =       -32.35431324
  PAW double counting   =      1935.62111139    -1823.18647059
  entropy T*S    EENTRO =        -0.00000000
  eigenvalues    EBANDS =      -106.65732425
  atomic energy  EATOM  =      1448.48460880
  Solvation  Ediel_sol  =         0.00000000
  ---------------------------------------------------
  free energy    TOTEN  =       -33.49919748 eV

  energy without entropy =      -33.49919748  energy(sigma->0) =      -33.49919748


--------------------------------------------------------------------------------------------------------




--------------------------------------- Iteration      1(  12)  ---------------------------------------


    POTLOK:  cpu time      0.0076: real time      0.0078
    SETDIJ:  cpu time      0.2216: real time      0.2223
     EDDAV:  cpu time      0.4042: real time      0.4062
       DOS:  cpu time      0.0006: real time      0.0006
    CHARGE:  cpu time      0.0056: real time      0.0056
    MIXING:  cpu time      0.0005: real time      0.0005
    --------------------------------------------
      LOOP:  cpu time      0.6402: real time      0.6430

 eigenvalue-minimisations  :  3408
 total energy-change (2. order) :-0.4875706E-05  (-0.1204393E-05)
 number of electron      39.9999946 magnetization 
 augmentation part       -7.3745018 magnetization 

 Broyden mixing:
  rms(total) = 0.26928E-03    rms(broyden)= 0.26928E-03
  rms(prec ) = 0.36892E-03
  weight for this iteration     100.00

 eigenvalues of (default mixing * dielectric matrix)
  average eigenvalue GAMMA=   1.7310
  3.0473  2.3685  2.1620  1.2417  1.0481  1.1248  1.1248

 Free energy of the ion-electron system (eV)
  ---------------------------------------------------
  alpha Z        PSCENC =        83.74935623
  Ewald energy   TEWEN  =     -1379.56297508
  -Hartree energ DENC   =      -159.61064699
  -exchange      EXHF   =         0.00000000
  -V(xc)+E(xc)   XCENC  =       -32.35261186
  PAW double counting   =      1935.41513322    -1822.98056807
  entropy T*S    EENTRO =        -0.00000000
  eigenvalues    EBANDS =      -106.64149860
  atomic energy  EATOM  =      1448.48460880
  Solvation  Ediel_sol  =         0.00000000
  ---------------------------------------------------
  free energy    TOTEN  =       -33.49920236 eV

  energy without entropy =      -33.49920236  energy(sigma->0) =      -33.49920236


--------------------------------------------------------------------------------------------------------




--------------------------------------- Iteration      1(  13)  ---------------------------------------


    POTLOK:  cpu time      0.0076: real time      0.0078
    SETDIJ:  cpu time      0.2219: real time      0.2224
     EDDAV:  cpu time      0.3332: real time      0.3350
       DOS:  cpu time      0.0006: real time      0.0006
    --------------------------------------------
      LOOP:  cpu time      0.5633: real time      0.5657

 eigenvalue-minimisations  :  2720
 total energy-change (2. order) :-0.8721150E-06  (-0.2102864E-06)
 number of electron      39.9999946 magnetization 
 augmentation part       -7.3745018 magnetization 

 Free energy of the ion-electron system (eV)
  ---------------------------------------------------
  alpha Z        PSCENC =        83.74935623
  Ewald energy   TEWEN  =     -1379.56297508
  -Hartree energ DENC   =      -159.61454233
  -exchange      EXHF   =         0.00000000
  -V(xc)+E(xc)   XCENC  =       -32.35205043
  PAW double counting   =      1935.53089449    -1823.09625414
  entropy T*S    EENTRO =        -0.00000000
  eigenvalues    EBANDS =      -106.63824077
  atomic energy  EATOM  =      1448.48460880
  Solvation  Ediel_sol  =         0.00000000
  ---------------------------------------------------
  free energy    TOTEN  =       -33.49920323 eV

  energy without entropy =      -33.49920323  energy(sigma->0) =      -33.49920323


--------------------------------------------------------------------------------------------------------




 average (electrostatic) potential at core
  the test charge radii are     1.1631  1.0808
  (the norm of the test charge is              1.0000)
       1 -33.7753       2 -33.7753       3 -33.7753       4 -33.7753       5 -55.2941
       6 -55.2941       7 -55.2941       8 -55.2941
 
 
 
 E-fermi :   3.4032     XC(G=0):  -9.0373     alpha+bet : -8.3433

 Fermi energy:         3.4032052201

 k-point     1 :       0.0000    0.0000    0.0000
  band No.  band energies     occupation 
      1     -11.2344      2.00000
      2     -11.0015      2.00000
      3      -9.9824      2.00000
      4      -9.6499      2.00000
      5      -4.9069      2.00000
      6      -4.5068      2.00000
      7      -3.0528      2.00000
      8      -2.6133      2.00000
      9      -2.1443      2.00000
     10      -0.7704      2.00000
     11      -0.2469      2.00000
     12      -0.2196      2.00000
     13      -0.1011      2.00000
     14       0.1718      2.00000
     15       0.8411      2.00000
     16       1.1081      2.00000
     17       1.5061      2.00000
     18       1.6395      2.00000
     19       1.8254      2.00000
     20       2.8230      2.00000
     21       3.8120      0.00000
     22       5.2267      0.00000
     23       5.7051      0.00000
     24       5.7625      0.00000
     25       6.1810      0.00000
     26       6.7451      0.00000
     27       6.8534      0.00000
     28       7.0536      0.00000
     29       7.2304      0.00000
     30       8.2321      0.00000
     31       8.3201      0.00000
     32       8.8547      0.00000

 k-point     2 :       0.1667    0.0000    0.0000
  band No.  band energies     occupation 
      1     -11.0482      2.00000
      2     -10.8254      2.00000
      3      -9.8731      2.00000
      4      -9.5861      2.00000
      5      -5.1283      2.00000
      6      -4.7388      2.00000
      7      -3.5163      2.00000
      8      -2.9755      2.00000
      9      -2.0489      2.00000
     10      -0.6020      2.00000
     11      -0.4949      2.00000
     12      -0.1060      2.00000
     13      -0.0829      2.00000
     14       0.1036      2.00000
     15       0.8061      2.00000
     16       0.8450      2.00000
     17       1.4511      2.00000
     18       1.5647      2.00000
     19       2.0420      2.00000
     20       3.0502      2.00000
     21       3.6446      0.00000
     22       5.3850      0.00000
     23       5.4794      0.00000
     24       6.0755      0.00000
     25       6.0764      0.00000
     26       6.4199      0.00000
     27       6.5503      0.00000
     28       7.1473      0.00000
     29       7.2406      0.00000
     30       7.2651      0.00000
     31       7.5998      0.00000
     32       8.8808      0.00000

 k-point     3 :       0.3333    0.0000    0.0000
  band No.  band energies     occupation 
      1     -10.5414      2.00000
      2     -10.3588      2.00000
      3      -9.6950      2.00000
      4      -9.5620      2.00000
      5      -5.5710      2.00000
      6      -5.1520      2.00000
      7      -4.5985      2.00000
      8      -4.0385      2.00000
      9      -1.4881      2.00000
     10      -0.5316      2.00000
     11      -0.3148      2.00000
     12       0.1656      2.00000
     13       0.2396      2.00000
     14       0.5480      2.00000
     15       0.7857      2.00000
     16       0.8328      2.00000
     17       0.9984      2.00000
     18       1.7391      2.00000
     19       2.2845      2.00000
     20       2.9586      2.00000
     21       3.7995      0.00000
     22       4.1059      0.00000
     23       4.2592      0.00000
     24       5.2286      0.00000
     25       5.3015      0.00000
     26       5.4102      0.00000
     27       5.5263      0.00000
     28       6.2032      0.00000
     29       6.3718      0.00000
     30       6.5544      0.00000
     31       7.3121      0.00000
     32       8.4691      0.00000

 k-point     4 :       0.5000    0.0000    0.0000
  band No.  band energies     occupation 
      1      -9.9176      2.00000
      2      -9.9176      2.00000
      3      -9.8448      2.00000
      4      -9.8448      2.00000
      5      -5.4886      2.00000
      6      -5.4886      2.00000
      7      -4.9703      2.00000
      8      -4.9703      2.00000
      9      -0.7120      2.00000
     10      -0.7120      2.00000
     11       0.1908      2.00000
     12       0.1908      2.00000
     13       0.5930      2.00000
     14       0.5930      2.00000
     15       0.6861      2.00000
     16       0.6861      2.00000
     17       1.4135      2.00000
     18       1.4135      2.00000
     19       2.4212      2.00000
     20       2.4212      2.00000
     21       3.8523      0.00000
     22       3.8523      0.00000
     23       4.6577      0.00000
     24       4.6577      0.00000
     25       4.8671      0.00000
     26       4.8671      0.00000
     27       5.1754      0.00000
     28       5.1754      0.00000
     29       5.3939      0.00000
     30       5.3939      0.00000
     31       7.7770      0.00000
     32       7.7770      0.00000

 k-point     5 :       0.0000    0.1667    0.0000
  band No.  band energies     occupation 
      1     -11.1208      2.00000
      2     -10.8954      2.00000
      3      -9.9933      2.00000
      4      -9.7044      2.00000
      5      -5.1383      2.00000
      6      -4.7339      2.00000
      7      -3.7069      2.00000
      8      -3.0165      2.00000
      9      -1.9901      2.00000
     10      -0.2958      2.00000
     11       0.0349      2.00000
     12       0.1196      2.00000
     13       0.1985      2.00000
     14       0.3027      2.00000
     15       1.1406      2.00000
     16       1.1901      2.00000
     17       1.4495      2.00000
     18       1.5122      2.00000
     19       2.2017      2.00000
     20       3.0445      2.00000
     21       3.6638      0.00000
     22       5.1904      0.00000
     23       5.3663      0.00000
     24       5.5894      0.00000
     25       5.8705      0.00000
     26       6.3154      0.00000
     27       6.4176      0.00000
     28       6.8807      0.00000
     29       7.2138      0.00000
     30       7.5069      0.00000
     31       7.8540      0.00000
     32       8.9983      0.00000

 k-point     6 :       0.1667    0.1667    0.0000
  band No.  band energies     occupation 
      1     -10.9402      2.00000
      2     -10.7250      2.00000
      3      -9.8850      2.00000
      4      -9.6348      2.00000
      5      -5.2480      2.00000
      6      -4.8186      2.00000
      7      -3.8884      2.00000
      8      -3.2969      2.00000
      9      -1.8575      2.00000
     10      -1.0894      2.00000
     11      -0.7082      2.00000
     12       0.0441      2.00000
     13       0.2642      2.00000
     14       0.5773      2.00000
     15       0.8328      2.00000
     16       0.9604      2.00000
     17       1.2999      2.00000
     18       1.8647      2.00000
     19       2.3515      2.00000
     20       3.1963      2.00000
     21       3.6063      0.00000
     22       4.8738      0.00000
     23       5.1820      0.00000
     24       5.4670      0.00000
     25       6.0603      0.00000
     26       6.4428      0.00000
     27       6.7292      0.00000
     28       7.0411      0.00000
     29       7.2006      0.00000
     30       7.3390      0.00000
     31       7.4896      0.00000
     32       8.5662      0.00000

 k-point     7 :       0.1667   -0.1667    0.0000
  band No.  band energies     occupation 
      1     -10.9400      2.00000
      2     -10.7251      2.00000
      3      -9.8843      2.00000
      4      -9.6358      2.00000
      5      -5.2379      2.00000
      6      -4.8291      2.00000
      7      -3.9099      2.00000
      8      -3.2702      2.00000
      9      -1.8543      2.00000
     10      -1.0977      2.00000
     11      -0.6929      2.00000
     12       0.0330      2.00000
     13       0.2640      2.00000
     14       0.5608      2.00000
     15       0.8544      2.00000
     16       0.9568      2.00000
     17       1.2696      2.00000
     18       1.8905      2.00000
     19       2.3301      2.00000
     20       3.1857      2.00000
     21       3.6603      0.00000
     22       4.8585      0.00000
     23       5.1996      0.00000
     24       5.4991      0.00000
     25       6.0389      0.00000
     26       6.4621      0.00000
     27       6.7085      0.00000
     28       6.9949      0.00000
     29       7.1383      0.00000
     30       7.2941      0.00000
     31       7.5596      0.00000
     32       8.5057      0.00000

 k-point     8 :       0.3333    0.1667    0.0000
  band No.  band energies     occupation 
      1     -10.4542      2.00000
      2     -10.2797      2.00000
      3      -9.7005      2.00000
      4      -9.5802      2.00000
      5      -5.5197      2.00000
      6      -5.0549      2.00000
      7      -4.6255      2.00000
      8      -4.1074      2.00000
      9      -1.4145      2.00000
     10      -1.3413      2.00000
     11      -0.9860      2.00000
     12      -0.0439      2.00000
     13       0.1400      2.00000
     14       0.3845      2.00000
     15       0.5426      2.00000
     16       0.9911      2.00000
     17       1.1625      2.00000
     18       1.5325      2.00000
     19       2.1002      2.00000
     20       3.0012      2.00000
     21       3.7143      0.00000
     22       4.7070      0.00000
     23       4.7721      0.00000
     24       5.0007      0.00000
     25       5.1537      0.00000
     26       5.8598      0.00000
     27       6.3121      0.00000
     28       6.5825      0.00000
     29       7.2271      0.00000
     30       7.5593      0.00000
     31       7.7597      0.00000
     32       8.2976      0.00000

 k-point     9 :       0.3333   -0.1667    0.0000
  band No.  band energies     occupation 
      1     -10.4539      2.00000
      2     -10.2798      2.00000
      3      -9.6980      2.00000
      4      -9.5833      2.00000
      5      -5.5019      2.00000
      6      -5.0735      2.00000
      7      -4.6485      2.00000
      8      -4.0819      2.00000
      9      -1.4111      2.00000
     10      -1.3424      2.00000
     11      -0.9754      2.00000
     12      -0.0520      2.00000
     13       0.1588      2.00000
     14       0.3552      2.00000
     15       0.5485      2.00000
     16       0.9943      2.00000
     17       1.1316      2.00000
     18       1.5283      2.00000
     19       2.1066      2.00000
     20       3.0209      2.00000
     21       3.7343      0.00000
     22       4.7366      0.00000
     23       4.7560      0.00000
     24       5.0011      0.00000
     25       5.2235      0.00000
     26       5.7800      0.00000
     27       6.3425      0.00000
     28       6.5417      0.00000
     29       7.1300      0.00000
     30       7.5085      0.00000
     31       7.7518      0.00000
     32       8.4085      0.00000

 k-point    10 :       0.5000    0.1667    0.0000
  band No.  band energies     occupation 
      1      -9.8790      2.00000
      2      -9.8773      2.00000
      3      -9.8095      2.00000
      4      -9.8073      2.00000
      5      -5.4138      2.00000
      6      -5.3953      2.00000
      7      -4.9086      2.00000
      8      -4.8894      2.00000
      9      -0.9035      2.00000
     10      -0.8905      2.00000
     11      -0.3934      2.00000
     12      -0.3844      2.00000
     13      -0.2258      2.00000
     14      -0.1813      2.00000
     15       0.5533      2.00000
     16       0.5634      2.00000
     17       1.1711      2.00000
     18       1.2028      2.00000
     19       2.4778      2.00000
     20       2.4812      2.00000
     21       4.0828      0.00000
     22       4.0971      0.00000
     23       4.9990      0.00000
     24       4.9993      0.00000
     25       5.3926      0.00000
     26       5.4435      0.00000
     27       6.1529      0.00000
     28       6.1556      0.00000
     29       6.6031      0.00000
     30       6.6176      0.00000
     31       7.6206      0.00000
     32       7.7257      0.00000

 k-point    11 :       0.0000    0.3333    0.0000
  band No.  band energies     occupation 
      1     -10.8094      2.00000
      2     -10.6083      2.00000
      3     -10.0974      2.00000
      4      -9.9027      2.00000
      5      -5.4389      2.00000
      6      -4.9490      2.00000
      7      -4.6490      2.00000
      8      -3.9670      2.00000
      9      -1.4636      2.00000
     10       0.1629      2.00000
     11       0.4047      2.00000
     12       0.6546      2.00000
     13       0.6796      2.00000
     14       0.7276      2.00000
     15       1.1311      2.00000
     16       1.3112      2.00000
     17       1.4085      2.00000
     18       2.5504      2.00000
     19       2.7235      2.00000
     20       2.8587      2.00000
     21       4.0762      0.00000
     22       4.2179      0.00000
     23       4.5914      0.00000
     24       5.2119      0.00000
     25       5.6839      0.00000
     26       5.7067      0.00000
     27       5.9104      0.00000
     28       6.0372      0.00000
     29       6.4050      0.00000
     30       6.8333      0.00000
     31       7.7061      0.00000
     32       8.8477      0.00000

 k-point    12 :       0.1667    0.3333    0.0000
  band No.  band energies     occupation 
      1     -10.6458      2.00000
      2     -10.4559      2.00000
      3      -9.9835      2.00000
      4      -9.8120      2.00000
      5      -5.3914      2.00000
      6      -4.8801      2.00000
      7      -4.6202      2.00000
      8      -3.9998      2.00000
      9      -1.3543      2.00000
     10      -1.0502      2.00000
     11      -0.6755      2.00000
     12      -0.0900      2.00000
     13       0.2249      2.00000
     14       0.2458      2.00000
     15       0.7956      2.00000
     16       1.3307      2.00000
     17       1.9449      2.00000
     18       2.0405      2.00000
     19       2.4510      2.00000
     20       2.9585      2.00000
     21       4.0599      0.00000
     22       4.8679      0.00000
     23       5.2196      0.00000
     24       5.3230      0.00000
     25       5.6436      0.00000
     26       5.7725      0.00000
     27       6.5231      0.00000
     28       6.7567      0.00000
     29       7.3559      0.00000
     30       7.4114      0.00000
     31       7.8367      0.00000
     32       8.5911      0.00000

 k-point    13 :       0.1667   -0.3333    0.0000
  band No.  band energies     occupation 
      1     -10.6455      2.00000
      2     -10.4560      2.00000
      3      -9.9825      2.00000
      4      -9.8133      2.00000
      5      -5.3798      2.00000
      6      -4.8915      2.00000
      7      -4.6366      2.00000
      8      -3.9825      2.00000
      9      -1.3418      2.00000
     10      -1.0623      2.00000
     11      -0.6631      2.00000
     12      -0.1034      2.00000
     13       0.2212      2.00000
     14       0.2534      2.00000
     15       0.7955      2.00000
     16       1.3133      2.00000
     17       1.9209      2.00000
     18       2.0492      2.00000
     19       2.4650      2.00000
     20       2.9711      2.00000
     21       4.0678      0.00000
     22       4.9276      0.00000
     23       5.1914      0.00000
     24       5.2924      0.00000
     25       5.7102      0.00000
     26       5.7420      0.00000
     27       6.5426      0.00000
     28       6.6757      0.00000
     29       7.3139      0.00000
     30       7.4911      0.00000
     31       7.7497      0.00000
     32       8.6122      0.00000

 k-point    14 :       0.3333    0.3333    0.0000
  band No.  band energies     occupation 
      1     -10.2246      2.00000
      2     -10.0764      2.00000
      3      -9.7600      2.00000
      4      -9.6643      2.00000
      5      -5.3604      2.00000
      6      -4.8285      2.00000
      7      -4.7876      2.00000
      8      -4.3022      2.00000
      9      -1.9063      2.00000
     10      -1.4648      2.00000
     11      -1.3288      2.00000
     12      -0.7608      2.00000
     13      -0.5042      2.00000
     14       0.0017      2.00000
     15       0.0577      2.00000
     16       0.5764      2.00000
     17       0.8422      2.00000
     18       1.3919      2.00000
     19       2.1141      2.00000
     20       2.8046      2.00000
     21       3.9649      0.00000
     22       5.3305      0.00000
     23       5.5975      0.00000
     24       5.6220      0.00000
     25       6.5826      0.00000
     26       7.0036      0.00000
     27       7.3645      0.00000
     28       7.5074      0.00000
     29       7.6083      0.00000
     30       7.8598      0.00000
     31       8.1238      0.00000
     32       8.8277      0.00000

 k-point    15 :       0.3333   -0.3333    0.0000
  band No.  band energies     occupation 
      1     -10.2243      2.00000
      2     -10.0762      2.00000
      3      -9.7564      2.00000
      4      -9.6687      2.00000
      5      -5.3314      2.00000
      6      -4.8587      2.00000
      7      -4.8240      2.00000
      8      -4.2632      2.00000
      9      -1.9114      2.00000
     10      -1.4529      2.00000
     11      -1.3154      2.00000
     12      -0.7645      2.00000
     13      -0.5210      2.00000
     14      -0.0140      2.00000
     15       0.1154      2.00000
     16       0.5272      2.00000
     17       0.7948      2.00000
     18       1.4340      2.00000
     19       2.1052      2.00000
     20       2.8171      2.00000
     21       4.0306      0.00000
     22       5.2677      0.00000
     23       5.5740      0.00000
     24       5.6800      0.00000
     25       6.5799      0.00000
     26       6.9995      0.00000
     27       7.3333      0.00000
     28       7.3728      0.00000
     29       7.6287      0.00000
     30       7.8105      0.00000
     31       8.1950      0.00000
     32       8.8155      0.00000

 k-point    16 :       0.5000    0.3333    0.0000
  band No.  band energies     occupation 
      1      -9.7975      2.00000
      2      -9.7941      2.00000
      3      -9.7349      2.00000
      4      -9.7308      2.00000
      5      -5.2424      2.00000
      6      -5.2029      2.00000
      7      -4.7618      2.00000
      8      -4.7203      2.00000
      9      -1.4966      2.00000
     10      -1.4925      2.00000
     11      -1.1300      2.00000
     12      -1.1210      2.00000
     13      -0.7843      2.00000
     14      -0.7634      2.00000
     15      -0.0108      2.00000
     16       0.0128      2.00000
     17       0.5257      2.00000
     18       0.5375      2.00000
     19       2.4583      2.00000
     20       2.4880      2.00000
     21       4.4759      0.00000
     22       4.5535      0.00000
     23       6.4693      0.00000
     24       6.4898      0.00000
     25       6.6170      0.00000
     26       6.6305      0.00000
     27       7.3747      0.00000
     28       7.4539      0.00000
     29       7.9775      0.00000
     30       8.0834      0.00000
     31       8.2877      0.00000
     32       8.3301      0.00000

 k-point    17 :       0.0000    0.5000    0.0000
  band No.  band energies     occupation 
      1     -10.4033      2.00000
      2     -10.4033      2.00000
      3     -10.2363      2.00000
      4     -10.2363      2.00000
      5      -5.3030      2.00000
      6      -5.3030      2.00000
      7      -4.6954      2.00000
      8      -4.6954      2.00000
      9      -0.7150      2.00000
     10      -0.7150      2.00000
     11       0.8600      2.00000
     12       0.8600      2.00000
     13       1.0935      2.00000
     14       1.0935      2.00000
     15       1.2097      2.00000
     16       1.2097      2.00000
     17       2.3062      2.00000
     18       2.3062      2.00000
     19       2.6576      2.00000
     20       2.6576      2.00000
     21       4.3442      0.00000
     22       4.3442      0.00000
     23       4.8314      0.00000
     24       4.8314      0.00000
     25       5.0743      0.00000
     26       5.0743      0.00000
     27       5.6824      0.00000
     28       5.6824      0.00000
     29       6.0579      0.00000
     30       6.0579      0.00000
     31       8.3276      0.00000
     32       8.3276      0.00000

 k-point    18 :       0.1667    0.5000    0.0000
  band No.  band energies     occupation 
      1     -10.2666      2.00000
      2     -10.2665      2.00000
      3     -10.1134      2.00000
      4     -10.1130      2.00000
      5      -5.2128      2.00000
      6      -5.2005      2.00000
      7      -4.6225      2.00000
      8      -4.6107      2.00000
      9      -0.7015      2.00000
     10      -0.6603      2.00000
     11      -0.5486      2.00000
     12      -0.5391      2.00000
     13      -0.1918      2.00000
     14      -0.1583      2.00000
     15       1.1145      2.00000
     16       1.1467      2.00000
     17       2.0836      2.00000
     18       2.1469      2.00000
     19       2.6459      2.00000
     20       2.6753      2.00000
     21       4.5451      0.00000
     22       4.5566      0.00000
     23       5.5108      0.00000
     24       5.5278      0.00000
     25       5.5749      0.00000
     26       5.5944      0.00000
     27       6.7420      0.00000
     28       6.7790      0.00000
     29       6.9934      0.00000
     30       6.9971      0.00000
     31       8.2289      0.00000
     32       8.2938      0.00000

[...]
     32       7.5209      0.00000

 k-point    32 :       0.1667    0.3333    0.5000
  band No.  band energies     occupation 
      1     -10.5641      2.00000
      2     -10.5641      2.00000
      3      -9.8843      2.00000
      4      -9.8843      2.00000
      5      -5.1766      2.00000
      6      -5.1766      2.00000
      7      -4.3218      2.00000
      8      -4.3218      2.00000
      9      -0.9491      2.00000
     10      -0.9491      2.00000
     11      -0.5039      2.00000
     12      -0.5039      2.00000
     13       0.2621      2.00000
     14       0.2621      2.00000
     15       0.9150      2.00000
     16       0.9150      2.00000
     17       1.9869      2.00000
     18       1.9869      2.00000
     19       2.3767      2.00000
     20       2.3767      2.00000
     21       4.9617      0.00000
     22       4.9617      0.00000
     23       5.4820      0.00000
     24       5.4820      0.00000
     25       5.9225      0.00000
     26       5.9225      0.00000
     27       6.4973      0.00000
     28       6.4973      0.00000
     29       7.2906      0.00000
     30       7.2906      0.00000
     31       7.6020      0.00000
     32       7.6020      0.00000

 k-point    33 :       0.1667   -0.3333    0.5000
  band No.  band energies     occupation 
      1     -10.5639      2.00000
      2     -10.5639      2.00000
      3      -9.8845      2.00000
      4      -9.8845      2.00000
      5      -5.1763      2.00000
      6      -5.1763      2.00000
      7      -4.3225      2.00000
      8      -4.3225      2.00000
      9      -0.9471      2.00000
     10      -0.9471      2.00000
     11      -0.5025      2.00000
     12      -0.5025      2.00000
     13       0.2564      2.00000
     14       0.2564      2.00000
     15       0.9201      2.00000
     16       0.9201      2.00000
     17       2.0015      2.00000
     18       2.0015      2.00000
     19       2.3564      2.00000
     20       2.3564      2.00000
     21       4.9853      0.00000
     22       4.9853      0.00000
     23       5.4300      0.00000
     24       5.4300      0.00000
     25       5.9286      0.00000
     26       5.9286      0.00000
     27       6.5132      0.00000
     28       6.5132      0.00000
     29       7.3843      0.00000
     30       7.3843      0.00000
     31       7.5433      0.00000
     32       7.5433      0.00000

 k-point    34 :       0.3333    0.3333    0.5000
  band No.  band energies     occupation 
      1     -10.1595      2.00000
      2     -10.1595      2.00000
      3      -9.7035      2.00000
      4      -9.7035      2.00000
      5      -5.1265      2.00000
      6      -5.1265      2.00000
      7      -4.5533      2.00000
      8      -4.5533      2.00000
      9      -1.7294      2.00000
     10      -1.7294      2.00000
     11      -0.9066      2.00000
     12      -0.9066      2.00000
     13      -0.2774      2.00000
     14      -0.2774      2.00000
     15       0.4325      2.00000
     16       0.4325      2.00000
     17       1.1093      2.00000
     18       1.1093      2.00000
     19       1.9066      2.00000
     20       1.9066      2.00000
     21       5.2770      0.00000
     22       5.2770      0.00000
     23       5.9828      0.00000
     24       5.9828      0.00000
     25       6.5829      0.00000
     26       6.5829      0.00000
     27       7.1205      0.00000
     28       7.1205      0.00000
     29       7.4892      0.00000
     30       7.4892      0.00000
     31       8.6782      0.00000
     32       8.6782      0.00000

 k-point    35 :       0.3333   -0.3333    0.5000
  band No.  band energies     occupation 
      1     -10.1591      2.00000
      2     -10.1591      2.00000
      3      -9.7041      2.00000
      4      -9.7041      2.00000
      5      -5.1256      2.00000
      6      -5.1256      2.00000
      7      -4.5545      2.00000
      8      -4.5545      2.00000
      9      -1.7329      2.00000
     10      -1.7329      2.00000
     11      -0.8973      2.00000
     12      -0.8973      2.00000
     13      -0.2817      2.00000
     14      -0.2817      2.00000
     15       0.4311      2.00000
     16       0.4311      2.00000
     17       1.1256      2.00000
     18       1.1256      2.00000
     19       1.8835      2.00000
     20       1.8835      2.00000
     21       5.2898      0.00000
     22       5.2898      0.00000
     23       5.9493      0.00000
     24       5.9493      0.00000
     25       6.6666      0.00000
     26       6.6666      0.00000
     27       7.1017      0.00000
     28       7.1017      0.00000
     29       7.4650      0.00000
     30       7.4650      0.00000
     31       8.6445      0.00000
     32       8.6445      0.00000

 k-point    36 :       0.5000    0.3333    0.5000
  band No.  band energies     occupation 
      1      -9.7690      2.00000
      2      -9.7690      2.00000
      3      -9.7608      2.00000
      4      -9.7608      2.00000
      5      -5.0282      2.00000
      6      -5.0282      2.00000
      7      -4.9690      2.00000
      8      -4.9690      2.00000
      9      -1.3410      2.00000
     10      -1.3410      2.00000
     11      -1.3055      2.00000
     12      -1.3055      2.00000
     13      -0.4401      2.00000
     14      -0.4401      2.00000
     15      -0.3787      2.00000
     16      -0.3787      2.00000
     17       1.3132      2.00000
     18       1.3132      2.00000
     19       1.3609      2.00000
     20       1.3609      2.00000
     21       5.7887      0.00000
     22       5.7887      0.00000
     23       5.9742      0.00000
     24       5.9742      0.00000
     25       6.7340      0.00000
     26       6.7340      0.00000
     27       6.8238      0.00000
     28       6.8238      0.00000
     29       8.2382      0.00000
     30       8.2382      0.00000
     31       8.2743      0.00000
     32       8.2743      0.00000

 k-point    37 :       0.0000    0.5000    0.5000
  band No.  band energies     occupation 
      1     -10.3979      2.00000
      2     -10.3979      2.00000
      3     -10.2427      2.00000
      4     -10.2427      2.00000
      5      -5.0902      2.00000
      6      -5.0902      2.00000
      7      -4.9644      2.00000
      8      -4.9644      2.00000
      9      -0.0562      2.00000
     10      -0.0562      2.00000
     11       0.3461      2.00000
     12       0.3461      2.00000
     13       0.8642      2.00000
     14       0.8642      2.00000
     15       1.0890      2.00000
     16       1.0890      2.00000
     17       2.4500      2.00000
     18       2.4500      2.00000
     19       2.4696      2.00000
     20       2.4696      2.00000
     21       4.4955      0.00000
     22       4.4955      0.00000
     23       4.6488      0.00000
     24       4.6488      0.00000
     25       5.8308      0.00000
     26       5.8308      0.00000
     27       5.8879      0.00000
     28       5.8879      0.00000
     29       6.5627      0.00000
     30       6.5627      0.00000
     31       6.8294      0.00000
     32       6.8294      0.00000

 k-point    38 :       0.1667    0.5000    0.5000
  band No.  band energies     occupation 
      1     -10.2608      2.00000
      2     -10.2608      2.00000
      3     -10.1200      2.00000
      4     -10.1200      2.00000
      5      -5.0046      2.00000
      6      -5.0046      2.00000
      7      -4.8706      2.00000
      8      -4.8706      2.00000
      9      -0.5694      2.00000
     10      -0.5694      2.00000
     11      -0.4111      2.00000
     12      -0.4111      2.00000
     13       0.2798      2.00000
     14       0.2798      2.00000
     15       0.3826      2.00000
     16       0.3826      2.00000
     17       2.0449      2.00000
     18       2.0449      2.00000
     19       2.4250      2.00000
     20       2.4250      2.00000
     21       5.2041      0.00000
     22       5.2041      0.00000
     23       5.4414      0.00000
     24       5.4414      0.00000
     25       6.2464      0.00000
     26       6.2464      0.00000
     27       6.7291      0.00000
     28       6.7291      0.00000
     29       6.9466      0.00000
     30       6.9466      0.00000
     31       7.1780      0.00000
     32       7.1780      0.00000

 k-point    39 :       0.3333    0.5000    0.5000
  band No.  band energies     occupation 
      1      -9.9407      2.00000
      2      -9.9407      2.00000
      3      -9.8497      2.00000
      4      -9.8497      2.00000
      5      -4.9068      2.00000
      6      -4.9068      2.00000
      7      -4.7896      2.00000
      8      -4.7896      2.00000
      9      -1.6678      2.00000
     10      -1.6678      2.00000
     11      -1.4242      2.00000
     12      -1.4242      2.00000
     13      -0.0790      2.00000
     14      -0.0790      2.00000
     15      -0.0129      2.00000
     16      -0.0129      2.00000
     17       1.1113      2.00000
     18       1.1113      2.00000
     19       1.5819      2.00000
     20       1.5819      2.00000
     21       5.9487      0.00000
     22       5.9487      0.00000
     23       6.4653      0.00000
     24       6.4653      0.00000
     25       6.7609      0.00000
     26       6.7609      0.00000
     27       7.2066      0.00000
     28       7.2066      0.00000
     29       8.3797      0.00000
     30       8.3797      0.00000
     31       8.5888      0.00000
     32       8.5888      0.00000

 k-point    40 :       0.5000    0.5000    0.5000
  band No.  band energies     occupation 
      1      -9.7263      2.00000
      2      -9.7263      2.00000
      3      -9.7211      2.00000
      4      -9.7211      2.00000
      5      -4.9356      2.00000
      6      -4.9356      2.00000
      7      -4.8750      2.00000
      8      -4.8750      2.00000
      9      -1.5953      2.00000
     10      -1.5953      2.00000
     11      -1.5549      2.00000
     12      -1.5549      2.00000
     13      -0.8006      2.00000
     14      -0.8006      2.00000
     15      -0.7373      2.00000
     16      -0.7373      2.00000
     17       1.2910      2.00000
     18       1.2910      2.00000
     19       1.3346      2.00000
     20       1.3346      2.00000
     21       5.8264      0.00000
     22       5.8264      0.00000
     23       6.1109      0.00000
     24       6.1109      0.00000
     25       7.5463      0.00000
     26       7.5463      0.00000
     27       7.5623      0.00000
     28       7.5623      0.00000
     29       8.8104      0.00000
     30       8.8104      0.00000
     31       8.9799      0.00000
     32       8.9799      0.00000


--------------------------------------------------------------------------------------------------------


 soft charge-density along one line, spin component            1
         0         1         2         3         4         5         6         7         8         9
 total charge-density along one line
 
 pseudopotential strength for first ion, spin component:            1
 14.604  18.222   0.043   0.041   0.000   0.078   0.075   0.000
 18.222  22.753   0.055   0.052   0.000   0.099   0.094   0.001
  0.043   0.055   3.239  -0.002  -0.000   5.514  -0.004  -0.000
  0.041   0.052  -0.002   3.238  -0.000  -0.004   5.513  -0.000
  0.000   0.000  -0.000  -0.000   3.240  -0.000  -0.000   5.517
  0.078   0.099   5.514  -0.004  -0.000   9.446  -0.006  -0.000
  0.075   0.094  -0.004   5.513  -0.000  -0.006   9.444  -0.000
  0.000   0.001  -0.000  -0.000   5.517  -0.000  -0.000   9.451
 -0.000  -0.000   0.000  -0.000   0.007   0.000  -0.000   0.014
 -0.005  -0.006   0.011   0.014  -0.000   0.019   0.024  -0.000
 -0.002  -0.002  -0.004   0.011  -0.000  -0.007   0.020  -0.000
 -0.000  -0.000  -0.000   0.000   0.011  -0.000   0.000   0.019
  0.002   0.002  -0.013   0.000   0.000  -0.023   0.000   0.000
 total augmentation occupancy for first ion, spin component:            1
  2.751  -0.728   0.357   0.349   0.000  -0.065  -0.065   0.000  -0.000  -0.011   0.000  -0.000   0.009
 -0.728   0.710  -0.451  -0.450  -0.001   0.071   0.071   0.000   0.001   0.003  -0.001   0.001  -0.004
  0.357  -0.451   1.231   0.034   0.000  -0.202   0.005   0.000  -0.000   0.042  -0.096  -0.000  -0.000
  0.349  -0.450   0.034   1.282   0.000   0.005  -0.208  -0.000   0.000  -0.016   0.096   0.000  -0.004
  0.000  -0.001   0.000   0.000   1.238   0.000   0.000  -0.213   0.146   0.000   0.000   0.035  -0.000
 -0.065   0.071  -0.202   0.005   0.000   0.037  -0.003  -0.000   0.000  -0.007   0.017  -0.000   0.000
 -0.065   0.071   0.005  -0.208   0.000  -0.003   0.039  -0.000  -0.000   0.003  -0.017  -0.000   0.001
  0.000   0.000   0.000  -0.000  -0.213  -0.000  -0.000   0.041  -0.026  -0.000  -0.000  -0.006   0.000
 -0.000   0.001  -0.000   0.000   0.146   0.000  -0.000  -0.026   0.031  -0.000  -0.000   0.002   0.000
 -0.011   0.003   0.042  -0.016   0.000  -0.007   0.003  -0.000  -0.000   0.011  -0.006  -0.000   0.001
  0.000  -0.001  -0.096   0.096   0.000   0.017  -0.017  -0.000  -0.000  -0.006   0.032  -0.000  -0.002
 -0.000   0.001  -0.000   0.000   0.035  -0.000  -0.000  -0.006   0.002  -0.000  -0.000   0.009   0.000
  0.009  -0.004  -0.000  -0.004  -0.000   0.000   0.001   0.000   0.000   0.001  -0.002   0.000   0.008


------------------------ aborting loop because EDIFF is reached ----------------------------------------


    CHARGE:  cpu time      0.0054: real time      0.0054
    FORLOC:  cpu time      0.0002: real time      0.0002
    FORNL :  cpu time      0.0259: real time      0.0260
    STRESS:  cpu time      0.2704: real time      0.2713
    FORCOR:  cpu time      0.0067: real time      0.0067
    FORHAR:  cpu time      0.0016: real time      0.0016
    MIXING:  cpu time      0.0007: real time      0.0007
    OFIELD:  cpu time      0.0000: real time      0.0000

  FORCE on cell =-STRESS in cart. coord.  units (eV):
  Direction    XX          YY          ZZ          XY          YZ          ZX
  --------------------------------------------------------------------------------------
  Alpha Z    83.74936    83.74936    83.74936
  Ewald    -410.45772  -466.23940  -502.86738    -0.63596    -0.00000     0.00000
  Hartree    80.60082    57.19390    21.82416    -0.21820    -0.00000    -0.00000
  E(xc)    -141.16569  -141.17801  -141.28011    -0.00628     0.00000    -0.00000
  Local    -231.66896  -158.85433   -87.43461     0.81676     0.00000    -0.00000
  n-local   240.94201   240.45396   241.47907     0.01664    -0.00000     0.00000
  augment   -11.34123   -11.74820   -11.90425    -0.00087    -0.00000     0.00000
  Kinetic   390.25047   396.47700   400.77025    -0.09002    -0.00000    -0.00000
  Fock        0.00000     0.00000     0.00000     0.00000     0.00000     0.00000
  -------------------------------------------------------------------------------------
  Total       0.90905    -0.14571     4.33649    -0.11792    -0.00000    -0.00000
  in kB       7.19866    -1.15389    34.34023    -0.93380    -0.00000    -0.00001
  external pressure =       13.46 kB  Pullay stress =        0.00 kB


 VOLUME and BASIS-vectors are now :
 -----------------------------------------------------------------------------
  energy-cutoff  :      360.00
  volume of cell :      202.32
      direct lattice vectors                 reciprocal lattice vectors
     3.858100176  0.000000000  0.000000000     0.259194929  0.000000000  0.000000000
     0.000000000  4.526575088  0.000000000     0.000000000  0.220917577  0.000000000
     0.000000000  0.000000000 11.585176468     0.000000000  0.000000000  0.086317200

  length of vectors
     3.858100176  4.526575088 11.585176468     0.259194929  0.220917577  0.086317200


 FORCES acting on ions
    electron-ion (+dipol)            ewald-force                    non-local-force                 convergence-correction
 -----------------------------------------------------------------------------------------------
   0.671E-01 0.158E+02 0.293E+02   -.918E-01 -.185E+02 -.319E+02   0.267E-01 0.256E+01 0.266E+01   -.101E-04 -.143E-03 -.726E-03
   0.671E-01 0.158E+02 -.293E+02   -.918E-01 -.185E+02 0.319E+02   0.267E-01 0.256E+01 -.266E+01   -.973E-05 -.144E-03 0.726E-03
   -.671E-01 -.158E+02 -.293E+02   0.918E-01 0.185E+02 0.319E+02   -.266E-01 -.256E+01 -.266E+01   0.976E-05 0.145E-03 0.727E-03
   -.671E-01 -.158E+02 0.293E+02   0.918E-01 0.185E+02 -.319E+02   -.266E-01 -.256E+01 0.266E+01   0.101E-04 0.144E-03 -.726E-03
   0.117E+00 -.187E+02 -.354E+02   -.105E+00 0.203E+02 0.371E+02   -.265E-01 -.145E+01 -.147E+01   0.196E-04 -.791E-04 0.118E-02
   0.117E+00 -.187E+02 0.354E+02   -.105E+00 0.203E+02 -.371E+02   -.265E-01 -.145E+01 0.147E+01   0.215E-04 -.798E-04 -.118E-02
   -.117E+00 0.187E+02 0.354E+02   0.105E+00 -.203E+02 -.371E+02   0.263E-01 0.145E+01 0.147E+01   -.206E-04 0.794E-04 -.118E-02
   -.117E+00 0.187E+02 -.354E+02   0.105E+00 -.203E+02 0.371E+02   0.263E-01 0.145E+01 -.147E+01   -.195E-04 0.791E-04 0.118E-02
 -----------------------------------------------------------------------------------------------
   -.616E-05 0.107E-05 0.334E-05   0.476E-14 0.355E-14 0.142E-13   -.429E-03 0.292E-03 -.195E-05   0.104E-05 0.709E-06 -.181E-05
 
 
 POSITION                                       TOTAL-FORCE (eV/Angst)
 -----------------------------------------------------------------------------------
      0.85270      2.79734      1.52892         0.001984     -0.177517      0.110956
      2.78175      0.53406      4.26367         0.001985     -0.177518     -0.110954
      2.89357      4.09092     10.05626        -0.001835      0.177424     -0.110957
      0.96452      1.82763      7.32150        -0.001835      0.177425      0.110957
      0.85270      2.26874      4.06767        -0.014301      0.135743      0.262717
      2.78175      0.00545      1.72492        -0.014301      0.135743     -0.262717
      2.89357      0.09295      7.51751         0.014152     -0.135650     -0.262695
      0.96452      2.35624      9.86026         0.014151     -0.135650      0.262693
 -----------------------------------------------------------------------------------
    total drift:                               -0.000435      0.000294     -0.000000


--------------------------------------------------------------------------------------------------------



  FREE ENERGIE OF THE ION-ELECTRON SYSTEM (eV)
  ---------------------------------------------------
  free  energy   TOTEN  =       -33.49920323 eV

  energy  without entropy=      -33.49920323  energy(sigma->0) =      -33.49920323
 


--------------------------------------------------------------------------------------------------------


    POTLOK:  cpu time      0.2261: real time      0.2268


--------------------------------------------------------------------------------------------------------


     LOOP+:  cpu time      7.7542: real time      7.7896
    4ORBIT:  cpu time      0.0000: real time      0.0000

 total amount of memory used by VASP MPI-rank0    37119. kBytes
=======================================================================

   base      :      30000. kBytes
   nonl-proj :       5406. kBytes
   fftplans  :        334. kBytes
   grid      :        503. kBytes
   one-center:         16. kBytes
   wavefun   :        860. kBytes
 
  
  
 General timing and accounting informations for this job:
 ========================================================
  
                  Total CPU time used (sec):        9.387
                            User time (sec):        9.132
                          System time (sec):        0.255
                         Elapsed time (sec):        9.719
  
                   Maximum memory used (kb):      174536.
                   Average memory used (kb):          N/A
  
                          Minor page faults:        19019
                          Major page faults:           29
                 Voluntary context switches:         2105
