 running  128 mpi-ranks, with    1 threads/rank, on    2 nodes
 distrk:  each k-point on   64 cores,    2 groups
 distr:  one band on    8 cores,    8 groups
 vasp.6.4.2 20Jul23 (build Oct 12 2023 10:31:02) complex                         
 POSCAR found type information on POSCAR GeSe
 POSCAR found :  2 types and      72 ions
 Reading from existing POTCAR
 -----------------------------------------------------------------------------
|                                                                             |
|           W    W    AA    RRRRR   N    N  II  N    N   GGGG   !!!           |
|           W    W   A  A   R    R  NN   N  II  NN   N  G    G  !!!           |
|           W    W  A    A  R    R  N N  N  II  N N  N  G       !!!           |
|           W WW W  AAAAAA  RRRRR   N  N N  II  N  N N  G  GGG   !            |
|           WW  WW  A    A  R   R   N   NN  II  N   NN  G    G                |
|           W    W  A    A  R    R  N    N  II  N    N   GGGG   !!!           |
|                                                                             |
|     You use a magnetic or noncollinear calculation, but did not specify     |
|     the initial magnetic moment with the MAGMOM tag. Note that a            |
|     default of 1 will be used for all atoms. This ferromagnetic setup       |
|     may break the symmetry of the crystal, in particular it may rule        |
|     out finding an antiferromagnetic solution. Thence, we recommend         |
|     setting the initial magnetic moment manually or verifying carefully     |
|     that this magnetic setup is desired.                                    |
|                                                                             |
 -----------------------------------------------------------------------------

 scaLAPACK will be used
 Reading from existing POTCAR
 -----------------------------------------------------------------------------
|                                                                             |
|               ----> ADVICE to this user running VASP <----                  |
|                                                                             |
|     You have a (more or less) 'large supercell' and for larger cells it     |
|     might be more efficient to use real-space projection operators.         |
|     Therefore, try LREAL= Auto in the INCAR file.                           |
|     Mind: For very accurate calculation, you might also keep the            |
|     reciprocal projection scheme (i.e. LREAL=.FALSE.).                      |
|                                                                             |
 -----------------------------------------------------------------------------

 LDA part: xc-table for Pade appr. of Perdew
 -----------------------------------------------------------------------------
|                                                                             |
|           W    W    AA    RRRRR   N    N  II  N    N   GGGG   !!!           |
|           W    W   A  A   R    R  NN   N  II  NN   N  G    G  !!!           |
|           W    W  A    A  R    R  N N  N  II  N N  N  G       !!!           |
|           W WW W  AAAAAA  RRRRR   N  N N  II  N  N N  G  GGG   !            |
|           WW  WW  A    A  R   R   N   NN  II  N   NN  G    G                |
|           W    W  A    A  R    R  N    N  II  N    N   GGGG   !!!           |
|                                                                             |
|     The number of bands has been changed from the values supplied in        |
|     the INCAR file. This is a result of running the parallel version.       |
|     The orbitals not found in the WAVECAR file will be initialized with     |
|     random numbers, which is usually adequate. For correlated               |
|     calculations, however, you should redo the groundstate calculation.     |
|     I found NBANDS = 220. Now, NBANDS = 224.                                |
|                                                                             |
 -----------------------------------------------------------------------------

 POSCAR, INCAR and KPOINTS ok, starting setup
 FFT: planning ... GRIDC
 FFT: planning ... GRID_SOFT
 FFT: planning ... GRID
 WAVECAR not read
 WARNING: random wavefunctions but no delay for mixing, default for NELMDL
 entering main loop
       N       E                     dE             d eps       ncg     rms          rms(c)
DAV:   1     0.182076959182E+04    0.18208E+04   -0.14203E+05  7168   0.135E+03
DAV:   2    -0.629196740084E+02   -0.18837E+04   -0.18087E+04  8464   0.206E+02
DAV:   3    -0.280617151072E+03   -0.21770E+03   -0.21167E+03  8640   0.693E+01
DAV:   4    -0.288583237412E+03   -0.79661E+01   -0.78748E+01  8712   0.131E+01
DAV:   5    -0.288889443631E+03   -0.30621E+00   -0.30543E+00  9136   0.216E+00    0.293E+01
DAV:   6    -0.288404654628E+03    0.48479E+00   -0.26459E+01  7848   0.765E+00    0.174E+01
DAV:   7    -0.295875187285E+03   -0.74705E+01   -0.89208E+00  8008   0.457E+00    0.909E+00
DAV:   8    -0.299024357945E+03   -0.31492E+01   -0.17351E+00  8200   0.226E+00    0.331E+00
DAV:   9    -0.299386169244E+03   -0.36181E+00   -0.41415E-01  9048   0.101E+00    0.147E+00
DAV:  10    -0.299488352977E+03   -0.10218E+00   -0.92765E-02  8216   0.462E-01    0.729E-01
DAV:  11    -0.299519359857E+03   -0.31007E-01   -0.35372E-02  8872   0.283E-01    0.296E-01
DAV:  12    -0.299522926776E+03   -0.35669E-02   -0.46841E-03  8584   0.121E-01    0.115E-01
DAV:  13    -0.299523064691E+03   -0.13791E-03   -0.65858E-04  9856   0.402E-02    0.513E-02
DAV:  14    -0.299523086763E+03   -0.22072E-04   -0.11286E-04  8272   0.206E-02    0.182E-02
DAV:  15    -0.299523091275E+03   -0.45116E-05   -0.20301E-05  8560   0.987E-03    0.799E-03
DAV:  16    -0.299523091885E+03   -0.61040E-06   -0.16622E-06  4952   0.294E-03
   1 F= -.29952309E+03 E0= -.29952309E+03  d E =-.767546E-13  mag=     0.0004
