 vasp.6.4.2 20Jul23 (build Oct 12 2023 10:31:02) complex                         
 executed on              LinuxNV date 2024.11.01  21:37:14
 running  128 mpi-ranks, with    1 threads/rank, on    2 nodes
 distrk:  each k-point on   64 cores,    2 groups
 distr:  one band on NCORE=   8 cores,    8 groups


--------------------------------------------------------------------------------------------------------


 INCAR:
   ENCUT = 520.000000
   SIGMA = 0.050000
   EDIFF = 1.00e-06
   ALGO = N
   GGA = PE
   PREC = Accurate
   SYSTEM = 01_AOPT
   ICHARG = 0
   ISMEAR = 0
   ISPIN = 2
   ISTART = 1
   ISYM = -1
   KPAR = 2
   LORBIT = 11
   NBANDS = 220
   NELM = 100
   NELMIN = 5
   NPAR = 8
   LASPH = .TRUE.
   LCHARG = .FALSE.
   LWAVE = .FALSE.
   LREAL = .FALSE.

 POTCAR:    PAW_PBE Ge 05Jan2001                  
 POTCAR:    PAW_PBE Se 06Sep2000                  
 -----------------------------------------------------------------------------
|                                                                             |
|           W    W    AA    RRRRR   N    N  II  N    N   GGGG   !!!           |
|           W    W   A  A   R    R  NN   N  II  NN   N  G    G  !!!           |
|           W    W  A    A  R    R  N N  N  II  N N  N  G       !!!           |
|           W WW W  AAAAAA  RRRRR   N  N N  II  N  N N  G  GGG   !            |
|           WW  WW  A    A  R   R   N   NN  II  N   NN  G    G                |
|           W    W  A    A  R    R  N    N  II  N    N   GGGG   !!!           |
|                                                                             |
|     You use a magnetic or noncollinear calculation, but did not specify     |
|     the initial magnetic moment with the MAGMOM tag. Note that a            |
|     default of 1 will be used for all atoms. This ferromagnetic setup       |
|     may break the symmetry of the crystal, in particular it may rule        |
|     out finding an antiferromagnetic solution. Thence, we recommend         |
|     setting the initial magnetic moment manually or verifying carefully     |
|     that this magnetic setup is desired.                                    |
|                                                                             |
 -----------------------------------------------------------------------------

 POTCAR:    PAW_PBE Ge 05Jan2001                  
   VRHFIN =Ge: s2p2                                                                                 
   LEXCH  = PE                                                                                      
   EATOM  =   104.9960 eV,    7.7170 Ry                                                             
                                                                                                    
   TITEL  = PAW_PBE Ge 05Jan2001                                                                    
   LULTRA =        F    use ultrasoft PP ?                                                          
   IUNSCR =        1    unscreen: 0-lin 1-nonlin 2-no                                               
   RPACOR =    2.170    partial core radius                                                         
   POMASS =   72.610; ZVAL   =    4.000    mass and valenz                                          
   RCORE  =    2.300    outmost cutoff radius                                                       
   RWIGS  =    2.300; RWIGS  =    1.217    wigner-seitz radius (au A)                               
   ENMAX  =  173.807; ENMIN  =  130.355 eV                                                          
   ICORE  =        3    local potential                                                             
   LCOR   =        T    correct aug charges                                                         
   LPAW   =        T    paw PP                                                                      
   EAUG   =  385.843                                                                                
   DEXC   =    0.000                                                                                
   RMAX   =    2.342    core radius for proj-oper                                                   
   RAUG   =    1.300    factor for augmentation sphere                                              
   RDEP   =    2.318    radius for radial grids                                                     
   RDEPT  =    2.103    core radius for aug-charge                                                  
                                                                                                    
   Atomic configuration                                                                             
   10 entries                                                                                       
     n  l   j            E        occ.                                                              
     1  0  0.50    -10959.8463   2.0000                                                             
     2  0  0.50     -1371.6056   2.0000                                                             
     2  1  1.50     -1198.4791   6.0000                                                             
     3  0  0.50      -168.4733   2.0000                                                             
     3  1  1.50      -115.6019   6.0000                                                             
     3  2  2.50       -29.3106  10.0000                                                             
     4  0  0.50       -11.7309   2.0000                                                             
     4  1  0.50        -3.8952   2.0000                                                             
     4  2  1.50        -4.0817   0.0000                                                             
     4  3  2.50        -4.0817   0.0000                                                             
   Description                                                                                      
     l       E           TYP  RCUT    TYP  RCUT                                                     
     0    -11.7309493     23  2.300                                                                 
     0     -7.4578696     23  2.300                                                                 
     1     -3.8952261     23  2.300                                                                 
     1      6.1178114     23  2.300                                                                 
     2     -4.0817478     23  2.300                                                                 
     3     -1.3605826      7  2.300                                                                 
  local pseudopotential read in
  partial core-charges read in
  partial kinetic energy density read in
  atomic valenz-charges read in
  non local Contribution for L=            0  read in
    real space projection operators read in
  non local Contribution for L=            0  read in
    real space projection operators read in
  non local Contribution for L=            1  read in
    real space projection operators read in
  non local Contribution for L=            1  read in
    real space projection operators read in
  non local Contribution for L=            2  read in
    real space projection operators read in
    PAW grid and wavefunctions read in
 
   number of l-projection  operators is LMAX  =            5
   number of lm-projection operators is LMMAX =           13
 
 POTCAR:    PAW_PBE Se 06Sep2000                  
   VRHFIN =Se: s2p4                                                                                 
   LEXCH  = PE                                                                                      
   EATOM  =   257.1286 eV,   18.8984 Ry                                                             
                                                                                                    
   TITEL  = PAW_PBE Se 06Sep2000                                                                    
   LULTRA =        F    use ultrasoft PP ?                                                          
   IUNSCR =        1    unscreen: 0-lin 1-nonlin 2-no                                               
   RPACOR =    1.900    partial core radius                                                         
   POMASS =   78.960; ZVAL   =    6.000    mass and valenz                                          
   RCORE  =    2.100    outmost cutoff radius                                                       
   RWIGS  =    2.200; RWIGS  =    1.164    wigner-seitz radius (au A)                               
   ENMAX  =  211.555; ENMIN  =  158.666 eV                                                          
   ICORE  =        3    local potential                                                             
   LCOR   =        T    correct aug charges                                                         
   LPAW   =        T    paw PP                                                                      
   EAUG   =  446.842                                                                                
   DEXC   =    0.000                                                                                
   RMAX   =    2.147    core radius for proj-oper                                                   
   RAUG   =    1.300    factor for augmentation sphere                                              
   RDEP   =    2.177    radius for radial grids                                                     
   RDEPT  =    1.928    core radius for aug-charge                                                  
                                                                                                    
   Atomic configuration                                                                             
   10 entries                                                                                       
     n  l   j            E        occ.                                                              
     1  0  0.50    -12503.4787   2.0000                                                             
     2  0  0.50     -1606.9547   2.0000                                                             
     2  1  1.50     -1413.3140   6.0000                                                             
     3  0  0.50      -213.4885   2.0000                                                             
     3  1  1.50      -152.9538   6.0000                                                             
     3  2  2.50       -53.1221  10.0000                                                             
     4  0  0.50       -17.2865   2.0000                                                             
     4  1  0.50        -6.5110   4.0000                                                             
     4  2  2.50        -6.8029   0.0000                                                             
     4  3  2.50        -6.8029   0.0000                                                             
   Description                                                                                      
     l       E           TYP  RCUT    TYP  RCUT                                                     
     0    -17.2865377     23  2.100                                                                 
     0    -15.3094411     23  2.100                                                                 
     1     -6.5110275     23  2.100                                                                 
     1     -0.0695192     23  2.100                                                                 
     2     -6.8029130     23  2.100                                                                 
     3     -1.3605826      7  2.100                                                                 
  local pseudopotential read in
  partial core-charges read in
  partial kinetic energy density read in
  atomic valenz-charges read in
  non local Contribution for L=            0  read in
    real space projection operators read in
  non local Contribution for L=            0  read in
    real space projection operators read in
  non local Contribution for L=            1  read in
    real space projection operators read in
  non local Contribution for L=            1  read in
    real space projection operators read in
  non local Contribution for L=            2  read in
    real space projection operators read in
    PAW grid and wavefunctions read in
 
   number of l-projection  operators is LMAX  =            5
   number of lm-projection operators is LMMAX =           13
 
 -----------------------------------------------------------------------------
|                                                                             |
|               ----> ADVICE to this user running VASP <----                  |
|                                                                             |
|     You have a (more or less) 'large supercell' and for larger cells it     |
|     might be more efficient to use real-space projection operators.         |
|     Therefore, try LREAL= Auto in the INCAR file.                           |
|     Mind: For very accurate calculation, you might also keep the            |
|     reciprocal projection scheme (i.e. LREAL=.FALSE.).                      |
|                                                                             |
 -----------------------------------------------------------------------------

  PAW_PBE Ge 05Jan2001                  :
 energy of atom  1       EATOM= -104.9960
 kinetic energy error for atom=    0.0002 (will be added to EATOM!!)
  PAW_PBE Se 06Sep2000                  :
 energy of atom  2       EATOM= -257.1286
 kinetic energy error for atom=    0.0007 (will be added to EATOM!!)
 
 
 POSCAR: Ge Se
  positions in cartesian coordinates
  No initial velocities read in
 exchange correlation table for  LEXCH =        8
   RHO(1)=    0.500       N(1)  =     2000
   RHO(2)=  100.500       N(2)  =     4000
 


--------------------------------------------------------------------------------------------------------


 ion  position               nearest neighbor table
   1  0.071  0.039  0.143-  45 2.55  54 2.63  55 2.68
   2  0.243  0.865  0.364-  45 2.65  48 2.66  67 2.72
   3  0.590  0.203  0.359-  68 2.55  56 2.55  49 2.78
   4  0.573  0.535  0.363-  72 2.58  69 2.73  50 2.74
   5  0.589  0.867  0.377-  70 2.53  44 2.59  72 2.69
   6  0.912  0.199  0.391-  55 2.61  46 2.62
   7  0.927  0.525  0.378-  71 2.59  46 2.61  47 2.77
   8  0.940  0.838  0.369-  45 2.62  53 2.64  47 2.73
   9  0.090  0.192  0.631-  57 2.60  51 2.60  38 2.67
  10  0.043  0.477  0.633-  58 2.52  43 2.54
  11  0.082  0.814  0.622-  59 2.58  39 2.60  52 2.81
  12  0.398  0.139  0.627-  40 2.62  60 2.64  51 2.65
  13  0.438  0.511  0.622-  42 2.64  61 2.67  41 2.68
  14  0.390  0.823  0.619-  42 2.62  62 2.63  39 2.70
  15  0.740  0.138  0.636-  37 2.53  63 2.67  40 2.81
  16  0.733  0.488  0.588-  43 2.57  64 2.58  41 2.63
  17  0.267  0.497  0.351-  50 2.60  66 2.61  49 2.70
  18  0.260  0.189  0.361-  54 2.54  48 2.62  49 2.74
  19  0.771  0.844  0.637-  37 2.69  52 2.70  65 2.71
  20  0.898  0.642  0.871-  52 2.50  64 2.57  58 2.63
  21  0.928  0.999  0.864-  37 2.52  59 2.69  57 2.70
  22  0.080  0.370  0.120-  66 2.46  54 2.67  46 2.72
  23  0.076  0.698  0.118-  47 2.50  67 2.63
  24  0.414  0.034  0.119-  48 2.52  68 2.57  70 2.71
  25  0.419  0.354  0.123-  49 2.41  69 2.60  68 2.72
  26  0.757  0.018  0.121-  55 2.55  44 2.57  53 2.79
  27  0.733  0.385  0.124-  69 2.51  56 2.64  71 2.76
  28  0.398  0.699  0.123-  50 2.50  67 2.70  70 2.71
  29  0.260  0.336  0.868-  38 2.57  60 2.66  61 2.74
  30  0.219  0.648  0.871-  39 2.70  61 2.83  58 2.85
  31  0.234  0.984  0.888-  51 2.57  62 2.57  59 2.60
  32  0.571  0.322  0.875-  63 2.62  41 2.63  60 2.64
  33  0.603  0.664  0.861-  64 2.44  42 2.50  65 2.64
  34  0.548  0.973  0.871-  65 2.63  62 2.65  40 2.66
  35  0.882  0.305  0.867-  63 2.50  57 2.54  43 2.64
  36  0.751  0.697  0.132-  53 2.58  71 2.65  72 2.72
  37  0.901  0.016  0.640-  21 2.52  15 2.53  19 2.69
  38  0.243  0.341  0.637-  29 2.57   9 2.67
  39  0.235  0.672  0.630-  11 2.60  14 2.70  30 2.70
  40  0.558  0.004  0.634-  12 2.62  34 2.66  15 2.81
  41  0.580  0.351  0.640-  32 2.63  16 2.63  13 2.68
  42  0.550  0.689  0.645-  33 2.50  14 2.62  13 2.64
  43  0.882  0.353  0.635-  10 2.54  16 2.57  35 2.64
  44  0.734  0.013  0.351-  26 2.57   5 2.59
  45  0.076  0.997  0.368-   1 2.55   8 2.62   2 2.65
  46  0.049  0.356  0.363-   7 2.61   6 2.62  22 2.72
  47  0.085  0.676  0.343-  23 2.50   8 2.73   7 2.77
  48  0.386  0.023  0.344-  24 2.52  18 2.62   2 2.66
  49  0.417  0.342  0.340-  25 2.41  17 2.70  18 2.74   3 2.78
  50  0.394  0.661  0.345-  28 2.50  17 2.60   4 2.74
  51  0.218  0.030  0.662-  31 2.57   9 2.60  12 2.65
  52  0.906  0.676  0.649-  20 2.50  19 2.70  11 2.81
  53  0.896  0.844  0.137-  36 2.58   8 2.64  26 2.79
  54  0.207  0.199  0.140-  18 2.54   1 2.63  22 2.67
  55  0.897  0.163  0.160-  26 2.55   6 2.61   1 2.68
  56  0.733  0.348  0.359-   3 2.55  27 2.64
  57  0.044  0.181  0.859-  35 2.54   9 2.60  21 2.70
  58  0.050  0.496  0.859-  10 2.52  20 2.63  30 2.85
  59  0.080  0.847  0.852-  11 2.58  31 2.60  21 2.69
  60  0.410  0.185  0.860-  12 2.64  32 2.64  29 2.66
  61  0.396  0.508  0.859-  13 2.67  29 2.74  30 2.83
  62  0.381  0.842  0.855-  31 2.57  14 2.63  34 2.65
  63  0.726  0.180  0.871-  35 2.50  32 2.62  15 2.67
  64  0.735  0.526  0.817-  33 2.44  20 2.57  16 2.58
  65  0.714  0.844  0.873-  34 2.63  33 2.64  19 2.71
  66  0.221  0.507  0.122-  22 2.46  17 2.61
  67  0.233  0.839  0.121-  23 2.63  28 2.70   2 2.72
  68  0.555  0.184  0.133-   3 2.55  24 2.57  25 2.72
  69  0.568  0.499  0.120-  27 2.51  25 2.60   4 2.73
  70  0.540  0.861  0.156-   5 2.53  24 2.71  28 2.71
  71  0.891  0.538  0.148-   7 2.59  36 2.65  27 2.76
  72  0.710  0.689  0.373-   4 2.58   5 2.69  36 2.72
 

IMPORTANT INFORMATION: All symmetrisations will be switched off!
NOSYMM: (Re-)initialisation of all symmetry stuff for point group C_1.


----------------------------------------------------------------------------------------

                                     Primitive cell                                     

  volume of cell :    1728.3369

  direct lattice vectors                    reciprocal lattice vectors
    12.464774472  0.000002995  0.000001251     0.080226080 -0.000000019 -0.000000010
     0.000003006 12.511235859  0.000008367    -0.000000019  0.079928155 -0.000000069
     0.000001431  0.000009541 11.082653929    -0.000000009 -0.000000060  0.090231095

  length of vectors
    12.464774472 12.511235859 11.082653929     0.080226080  0.079928155  0.090231095

  position of ions in fractional coordinates (direct lattice)
     0.070968998  0.038540538  0.143174225
     0.242570441  0.865446777  0.364306095
     0.589973192  0.202537096  0.358688488
     0.573372748  0.534743681  0.362858131
     0.588908049  0.867216851  0.377372958
     0.911976725  0.199178926  0.391174140
     0.926769792  0.524810918  0.378062045
     0.939896020  0.837641754  0.369498349
     0.089609605  0.191712588  0.630944382
     0.042985572  0.476624237  0.632611480
     0.082379471  0.814166296  0.622062844
     0.397706117  0.138852236  0.627280239
     0.438293127  0.510872288  0.622326936
     0.389584099  0.822626910  0.618683537
     0.739523139  0.138138529  0.635625515
     0.733086590  0.488491552  0.588052418
     0.266670863  0.496733462  0.351285194
     0.259588216  0.189135750  0.361146406
     0.770507014  0.844205035  0.637234374
     0.898191358  0.641605551  0.871445291
     0.928361001  0.998620634  0.864433258
     0.080314834  0.369744516  0.120481710
     0.076016785  0.698319081  0.118171623
     0.413899006  0.034283268  0.119250625
     0.418517646  0.353903460  0.123300477
     0.757123318  0.018262298  0.120583293
     0.733477154  0.385033051  0.124075182
     0.397519446  0.699227817  0.123419807
     0.260438703  0.336208925  0.868132368
     0.219346359  0.648284714  0.871158595
     0.233902911  0.983615676  0.887573212
     0.570772199  0.321969949  0.874751252
     0.602731873  0.664460193  0.860737158
     0.547560052  0.973274231  0.871453227
     0.882230293  0.305027664  0.866720578
     0.751357842  0.696815727  0.131518892
     0.901232607  0.015741513  0.639509450
     0.242529844  0.341030979  0.636916782
     0.234781752  0.671973414  0.629510812
     0.558333895  0.004113299  0.633885129
     0.580275336  0.351037715  0.640130591
     0.550046570  0.689233318  0.644760350
     0.882204171  0.352523376  0.634998872
     0.734397291  0.013179229  0.351143058
     0.076380663  0.997059376  0.368083946
     0.048647166  0.355786488  0.362801259
     0.085169439  0.676355022  0.342506553
     0.385706210  0.022562608  0.344462798
     0.416574389  0.341650381  0.340404872
     0.394055793  0.660864607  0.344646111
     0.217862190  0.030310020  0.662323277
     0.905986909  0.676127544  0.648986553
     0.895723616  0.844069695  0.137095390
     0.207459508  0.198773695  0.139886996
     0.896740570  0.163275817  0.160270889
     0.733255153  0.347896231  0.358870103
     0.043513100  0.181055845  0.859008391
     0.049814078  0.495653715  0.858683556
     0.080403432  0.846516817  0.851926177
     0.410152195  0.184587426  0.859700130
     0.396477836  0.507640871  0.859023191
     0.381072487  0.842377084  0.854995993
     0.725792576  0.180056641  0.871370149
     0.734910848  0.526446409  0.816753188
     0.713614026  0.844089981  0.873468773
     0.221449290  0.506612085  0.121964803
     0.232802380  0.839024117  0.121345404
     0.554682095  0.184237742  0.133284960
     0.568191845  0.499153008  0.119551015
     0.539656149  0.860922565  0.156140266
     0.891286623  0.538452012  0.148083767
     0.709624692  0.689270452  0.372690269

  ion indices of the primitive-cell ions
   primitive index   ion index
                 1           1
                 2           2
                 3           3
                 4           4
                 5           5
                 6           6
                 7           7
                 8           8
                 9           9
                10          10
                11          11
                12          12
                13          13
                14          14
                15          15
                16          16
                17          17
                18          18
                19          19
                20          20
                21          21
                22          22
                23          23
                24          24
                25          25
                26          26
                27          27
                28          28
                29          29
                30          30
                31          31
                32          32
                33          33
                34          34
                35          35
                36          36
                37          37
                38          38
                39          39
                40          40
                41          41
                42          42
                43          43
                44          44
                45          45
                46          46
                47          47
                48          48
                49          49
                50          50
                51          51
                52          52
                53          53
                54          54
                55          55
                56          56
                57          57
                58          58
                59          59
                60          60
                61          61
                62          62
                63          63
                64          64
                65          65
                66          66
                67          67
                68          68
                69          69
                70          70
                71          71
                72          72

----------------------------------------------------------------------------------------

 
 
 KPOINTS: KPOINTS created by Atomic Simulation Env

Automatic generation of k-mesh.
 Grid dimensions read from file:
 generate k-points for:    2    2    2

 Generating k-lattice:

  Cartesian coordinates                     Fractional coordinates (reciprocal lattice)
     0.040113040 -0.000000010 -0.000000005     0.500000000 -0.000000000 -0.000000000
    -0.000000010  0.039964078 -0.000000034    -0.000000000  0.500000000 -0.000000000
    -0.000000005 -0.000000030  0.045115548     0.000000000  0.000000000  0.500000000

  Length of vectors
     0.040113040  0.039964078  0.045115548

  Shift w.r.t. Gamma in fractional coordinates (k-lattice)
     0.000000000  0.000000000  0.000000000

 
 Subroutine IBZKPT returns following result:
 ===========================================
 
 Found      8 irreducible k-points:
 
 Following reciprocal coordinates:
            Coordinates               Weight
  0.000000  0.000000  0.000000      1.000000
  0.500000  0.000000  0.000000      1.000000
  0.000000  0.500000  0.000000      1.000000
  0.500000  0.500000  0.000000      1.000000
  0.000000  0.000000  0.500000      1.000000
  0.500000  0.000000  0.500000      1.000000
  0.000000  0.500000  0.500000      1.000000
  0.500000  0.500000  0.500000      1.000000
 
 Following cartesian coordinates:
            Coordinates               Weight
  0.000000  0.000000  0.000000      1.000000
  0.040113 -0.000000 -0.000000      1.000000
 -0.000000  0.039964 -0.000000      1.000000
  0.040113  0.039964 -0.000000      1.000000
 -0.000000 -0.000000  0.045116      1.000000
  0.040113 -0.000000  0.045116      1.000000
 -0.000000  0.039964  0.045116      1.000000
  0.040113  0.039964  0.045116      1.000000
 
 -----------------------------------------------------------------------------
|                                                                             |
|           W    W    AA    RRRRR   N    N  II  N    N   GGGG   !!!           |
|           W    W   A  A   R    R  NN   N  II  NN   N  G    G  !!!           |
|           W    W  A    A  R    R  N N  N  II  N N  N  G       !!!           |
|           W WW W  AAAAAA  RRRRR   N  N N  II  N  N N  G  GGG   !            |
|           WW  WW  A    A  R   R   N   NN  II  N   NN  G    G                |
|           W    W  A    A  R    R  N    N  II  N    N   GGGG   !!!           |
|                                                                             |
|     The number of bands has been changed from the values supplied in        |
|     the INCAR file. This is a result of running the parallel version.       |
|     The orbitals not found in the WAVECAR file will be initialized with     |
|     random numbers, which is usually adequate. For correlated               |
|     calculations, however, you should redo the groundstate calculation.     |
|     I found NBANDS = 220. Now, NBANDS = 224.                                |
|                                                                             |
 -----------------------------------------------------------------------------



--------------------------------------------------------------------------------------------------------




 Dimension of arrays:
   k-points           NKPTS =      8   k-points in BZ     NKDIM =      8   number of bands    NBANDS=    224
   number of dos      NEDOS =    301   number of ions     NIONS =     72
   non local maximal  LDIM  =      5   non local SUM 2l+1 LMDIM =     13
   total plane-waves  NPLWV = 774144
   max r-space proj   IRMAX =      1   max aug-charges    IRDMAX=  24541
   dimension x,y,z NGX =    96 NGY =   96 NGZ =   84
   dimension x,y,z NGXF=   192 NGYF=  192 NGZF=  168
   support grid    NGXF=   192 NGYF=  192 NGZF=  168
   ions per type =              36  36
   NGX,Y,Z   is equivalent  to a cutoff of  12.80, 12.76, 12.60 a.u.
   NGXF,Y,Z  is equivalent  to a cutoff of  25.61, 25.51, 25.20 a.u.

 SYSTEM =  01_AOPT                                 
 POSCAR =  Ge Se                                   

 Startparameter for this run:
   NWRITE =      2    write-flag & timer
   PREC   = accura    normal or accurate (medium, high low for compatibility)
   ISTART =      0    job   : 0-new  1-cont  2-samecut
   ICHARG =      2    charge: 1-file 2-atom 10-const
   ISPIN  =      2    spin polarized calculation?
   LNONCOLLINEAR =      F non collinear calculations
   LSORBIT =      F    spin-orbit coupling
   INIWAV =      1    electr: 0-lowe 1-rand  2-diag
   LASPH  =      T    aspherical Exc in radial PAW
 Electronic Relaxation 1
   ENCUT  =  520.0 eV  38.22 Ry    6.18 a.u.  23.18 23.26 20.61*2*pi/ulx,y,z
   ENINI  =  520.0     initial cutoff
   ENAUG  =  446.8 eV  augmentation charge cutoff
   NELM   =    100;   NELMIN=  5; NELMDL=  0     # of ELM steps 
   EDIFF  = 0.1E-05   stopping-criterion for ELM
   LREAL  =      F    real-space projection
   NLSPLINE    = F    spline interpolate recip. space projectors
   LCOMPAT=      F    compatible to vasp.4.4
   GGA_COMPAT  = T    GGA compatible to vasp.4.4-vasp.4.6
   LMAXPAW     = -100 max onsite density
   LMAXMIX     =    2 max onsite mixed and CHGCAR
   VOSKOWN=      0    Vosko Wilk Nusair interpolation
   ROPT   =    0.00000   0.00000
 Ionic relaxation
   EDIFFG = 0.1E-04   stopping-criterion for IOM
   NSW    =      0    number of steps for IOM
   NBLOCK =      1;   KBLOCK =      1    inner block; outer block 
   IBRION =     -1    ionic relax: 0-MD 1-quasi-New 2-CG
   NFREE  =      0    steps in history (QN), initial steepest desc. (CG)
   ISIF   =      2    stress and relaxation
   IWAVPR =     10    prediction:  0-non 1-charg 2-wave 3-comb
   ISYM   =     -1    0-nonsym 1-usesym 2-fastsym
   LCORR  =      T    Harris-Foulkes like correction to forces

   POTIM  = 0.5000    time-step for ionic-motion
   TEIN   =    0.0    initial temperature
   TEBEG  =    0.0;   TEEND  =   0.0 temperature during run
   SMASS  =  -3.00    Nose mass-parameter (am)
   estimated Nose-frequenzy (Omega)   =  0.10E-29 period in steps = 0.13E+47 mass=  -0.355E-26a.u.
   SCALEE = 1.0000    scale energy and forces
   NPACO  =    256;   APACO  = 10.0  distance and # of slots for P.C.
   PSTRESS=    0.0 pullay stress

  Mass of Ions in am
   POMASS =  72.61 78.96
  Ionic Valenz
   ZVAL   =   4.00  6.00
  Atomic Wigner-Seitz radii
   RWIGS  =  -1.00 -1.00
  virtual crystal weights 
   VCA    =   1.00  1.00
   NELECT =     360.0000    total number of electrons
   NUPDOWN=      -1.0000    fix difference up-down

 DOS related values:
   EMIN   =  10.00;   EMAX   =-10.00  energy-range for DOS
   EFERMI =   0.00;   METHOD = LEGACY      
   ISMEAR =     0;   SIGMA  =   0.05  broadening in eV -4-tet -1-fermi 0-gaus

 Electronic relaxation 2 (details)
   IALGO  =     38    algorithm
   LDIAG  =      T    sub-space diagonalisation (order eigenvalues)
   LSUBROT=      F    optimize rotation matrix (better conditioning)
   TURBO    =      0    0=normal 1=particle mesh
   IRESTART =      0    0=no restart 2=restart with 2 vectors
   NREBOOT  =      0    no. of reboots
   NMIN     =      0    reboot dimension
   EREF     =   0.00    reference energy to select bands
   IMIX   =      4    mixing-type and parameters
     AMIX     =   0.40;   BMIX     =  1.00
     AMIX_MAG =   1.60;   BMIX_MAG =  1.00
     AMIN     =   0.10
     WC   =   100.;   INIMIX=   1;  MIXPRE=   1;  MAXMIX= -45

 Intra band minimization:
   WEIMIN = 0.0000     energy-eigenvalue tresh-hold
   EBREAK =  0.11E-08  absolut break condition
   DEPER  =   0.30     relativ break condition  

   TIME   =   0.40     timestep for ELM

  volume/ion in A,a.u.               =      24.00       161.99
  Fermi-wavevector in a.u.,A,eV,Ry     =   0.970434  1.833855 12.813191  0.941743
  Thomas-Fermi vector in A             =   2.100569
 
 Write flags
   LWAVE        =      F    write WAVECAR
   LDOWNSAMPLE  =      F    k-point downsampling of WAVECAR
   LCHARG       =      F    write CHGCAR
   LVTOT        =      F    write LOCPOT, total local potential
   LVHAR        =      F    write LOCPOT, Hartree potential only
   LELF         =      F    write electronic localiz. function (ELF)
   LORBIT       =     11    0 simple, 1 ext, 2 COOP (PROOUT), +10 PAW based schemes


 Dipole corrections
   LMONO  =      F    monopole corrections only (constant potential shift)
   LDIPOL =      F    correct potential (dipole corrections)
   IDIPOL =      0    1-x, 2-y, 3-z, 4-all directions 
   EPSILON=  1.0000000 bulk dielectric constant

 Exchange correlation treatment:
   GGA     =    PE    GGA type
   LEXCH   =     8    internal setting for exchange type
   LIBXC   =     F    Libxc                    
   VOSKOWN =     0    Vosko Wilk Nusair interpolation
   LHFCALC =     F    Hartree Fock is set to
   LHFONE  =     F    Hartree Fock one center treatment
   AEXX    =    0.0000 exact exchange contribution

 Linear response parameters
   LEPSILON=     F    determine dielectric tensor
   LRPA    =     F    only Hartree local field effects (RPA)
   LNABLA  =     F    use nabla operator in PAW spheres
   LVEL    =     F    velocity operator in full k-point grid
   CSHIFT  =0.1000    complex shift for real part using Kramers Kronig
   OMEGAMAX=  -1.0    maximum frequency
   DEG_THRESHOLD= 0.2000000E-02 threshold for treating states as degnerate
   RTIME   =   -0.100 relaxation time in fs
  (WPLASMAI=    0.000 imaginary part of plasma frequency in eV, 0.658/RTIME)
   DFIELD  = 0.0000000 0.0000000 0.0000000 field for delta impulse in time
 
  Optional k-point grid parameters
   LKPOINTS_OPT  =     F    use optional k-point grid
   KPOINTS_OPT_MODE=     1    mode for optional k-point grid
 
 Orbital magnetization related:
   ORBITALMAG=     F  switch on orbital magnetization
   LCHIMAG   =     F  perturbation theory with respect to B field
   DQ        =  0.001000  dq finite difference perturbation B field
   LLRAUG    =     F  two centre corrections for induced B field
   LBONE     =     F  B-component reconstruction in AE one-centre
   LVGVCALC  =     T  calculate vGv susceptibility
   LVGVAPPL  =     F  apply vGv susceptibility instead of pGv for G=0

 Random number generation:
   RANDOM_GENERATOR = DEFAULT
   PCG_SEED         = not used


--------------------------------------------------------------------------------------------------------


 Static calculation
 charge density and potential will be updated during run
 spin polarized calculation
 Variant of blocked Davidson
 Davidson routine will perform the subspace rotation
 perform sub-space diagonalisation
    after iterative eigenvector-optimisation
 modified Broyden-mixing scheme, WC =      100.0
 initial mixing is a Kerker type mixing with AMIX =  0.4000 and BMIX =      1.0000
 Hartree-type preconditioning will be used
 using additional bands            44
 reciprocal scheme for non local part
 use partial core corrections
 calculate Harris-corrections to forces 
   (improved forces if not selfconsistent)
 use gradient corrections 
 use of overlap-Matrix (Vanderbilt PP)
 Gauss-broadening in eV      SIGMA  =   0.05


--------------------------------------------------------------------------------------------------------


  energy-cutoff  :      520.00
  volume of cell :     1728.34
      direct lattice vectors                 reciprocal lattice vectors
    12.464774472  0.000002995  0.000001251     0.080226080 -0.000000019 -0.000000010
     0.000003006 12.511235859  0.000008367    -0.000000019  0.079928155 -0.000000069
     0.000001431  0.000009541 11.082653929    -0.000000009 -0.000000060  0.090231095

  length of vectors
    12.464774472 12.511235859 11.082653929     0.080226080  0.079928155  0.090231095


 
 k-points in units of 2pi/SCALE and weight: KPOINTS created by Atomic Simulation Env
   0.00000000  0.00000000  0.00000000       0.125
   0.04011304 -0.00000001 -0.00000001       0.125
  -0.00000001  0.03996408 -0.00000003       0.125
   0.04011303  0.03996407 -0.00000004       0.125
  -0.00000000 -0.00000003  0.04511555       0.125
   0.04011304 -0.00000004  0.04511554       0.125
  -0.00000001  0.03996405  0.04511551       0.125
   0.04011303  0.03996404  0.04511551       0.125
 
 k-points in reciprocal lattice and weights: KPOINTS created by Atomic Simulation Env
   0.00000000  0.00000000  0.00000000       0.125
   0.50000000  0.00000000  0.00000000       0.125
   0.00000000  0.50000000  0.00000000       0.125
   0.50000000  0.50000000  0.00000000       0.125
   0.00000000  0.00000000  0.50000000       0.125
   0.50000000  0.00000000  0.50000000       0.125
   0.00000000  0.50000000  0.50000000       0.125
   0.50000000  0.50000000  0.50000000       0.125
 
 position of ions in fractional coordinates (direct lattice) 
   0.07096900  0.03854054  0.14317423
   0.24257044  0.86544678  0.36430610
   0.58997319  0.20253710  0.35868849
   0.57337275  0.53474368  0.36285813
   0.58890805  0.86721685  0.37737296
   0.91197672  0.19917893  0.39117414
   0.92676979  0.52481092  0.37806205
   0.93989602  0.83764175  0.36949835
   0.08960961  0.19171259  0.63094438
   0.04298557  0.47662424  0.63261148
   0.08237947  0.81416630  0.62206284
   0.39770612  0.13885224  0.62728024
   0.43829313  0.51087229  0.62232694
   0.38958410  0.82262691  0.61868354
   0.73952314  0.13813853  0.63562552
   0.73308659  0.48849155  0.58805242
   0.26667086  0.49673346  0.35128519
   0.25958822  0.18913575  0.36114641
   0.77050701  0.84420503  0.63723437
   0.89819136  0.64160555  0.87144529
   0.92836100  0.99862063  0.86443326
   0.08031483  0.36974452  0.12048171
   0.07601678  0.69831908  0.11817162
   0.41389901  0.03428327  0.11925062
   0.41851765  0.35390346  0.12330048
   0.75712332  0.01826230  0.12058329
   0.73347715  0.38503305  0.12407518
   0.39751945  0.69922782  0.12341981
   0.26043870  0.33620893  0.86813237
   0.21934636  0.64828471  0.87115859
   0.23390291  0.98361568  0.88757321
   0.57077220  0.32196995  0.87475125
   0.60273187  0.66446019  0.86073716
   0.54756005  0.97327423  0.87145323
   0.88223029  0.30502766  0.86672058
   0.75135784  0.69681573  0.13151889
   0.90123261  0.01574151  0.63950945
   0.24252984  0.34103098  0.63691678
   0.23478175  0.67197341  0.62951081
   0.55833389  0.00411330  0.63388513
   0.58027534  0.35103771  0.64013059
   0.55004657  0.68923332  0.64476035
   0.88220417  0.35252338  0.63499887
   0.73439729  0.01317923  0.35114306
   0.07638066  0.99705938  0.36808395
   0.04864717  0.35578649  0.36280126
   0.08516944  0.67635502  0.34250655
   0.38570621  0.02256261  0.34446280
   0.41657439  0.34165038  0.34040487
   0.39405579  0.66086461  0.34464611
   0.21786219  0.03031002  0.66232328
   0.90598691  0.67612754  0.64898655
   0.89572362  0.84406969  0.13709539
   0.20745951  0.19877370  0.13988700
   0.89674057  0.16327582  0.16027089
   0.73325515  0.34789623  0.35887010
   0.04351310  0.18105584  0.85900839
   0.04981408  0.49565372  0.85868356
   0.08040343  0.84651682  0.85192618
   0.41015219  0.18458743  0.85970013
   0.39647784  0.50764087  0.85902319
   0.38107249  0.84237708  0.85499599
   0.72579258  0.18005664  0.87137015
   0.73491085  0.52644641  0.81675319
   0.71361403  0.84408998  0.87346877
   0.22144929  0.50661209  0.12196480
   0.23280238  0.83902412  0.12134540
   0.55468210  0.18423774  0.13328496
   0.56819185  0.49915301  0.11955102
   0.53965615  0.86092256  0.15614027
   0.89128662  0.53845201  0.14808377
   0.70962469  0.68927045  0.37269027
 
 position of ions in cartesian coordinates  (Angst):
   0.88461287  0.48219134  1.58675080
   3.02358896 10.82781295  4.03748592
   7.35388391  2.53399457  3.97522281
   7.14696412  6.69030950  4.02143628
   7.34060916 10.84995993  4.18230189
  11.36758536  2.49198098  4.33525043
  11.55197857  6.56603955  4.18993636
  11.71559496 10.47993989  4.09503051
   1.11696500  2.39856769  6.99253995
   0.53580780  5.96316442  7.01101815
   1.02684486 10.18623274  6.89411414
   4.95731837  1.73722025  6.95193146
   5.46322740  6.39165094  6.89703889
   4.85608129 10.29208636  6.85666290
   9.21799047  1.72829199  7.04441970
   9.13776132  6.11164082  6.51718645
   3.32399416  6.21475366  3.89317672
   3.23570965  2.36632621  4.00246254
   9.60419961 10.56205669  7.06225606
  11.19575589  8.02728938  9.65793307
  11.57181474 12.49398932  9.58022416
   1.00110758  4.62596224  1.33526030
   0.94753435  8.73683608  1.30966113
   5.15915804  0.42892843  1.32161421
   5.21672931  4.42777209  1.36650000
   9.43737163  0.22848734  1.33638401
   9.14262865  4.81724270  1.37508644
   4.95499253  8.74820650  1.36782536
   3.24631195  4.20639822  9.62121373
   2.73410610  8.11085192  9.65475492
   2.91555126 12.30625688  9.83667527
   7.11454895  4.02825203  9.69456881
   7.51292010  8.31322821  9.53925836
   6.82521674 12.17687341  9.65802336
  10.99680379  3.81628396  9.60556787
   9.36550833  8.71802942  1.45758513
  11.23366215  0.19695458  7.08746318
   3.02308174  4.26672582  7.05873143
   2.92650451  8.40722458  6.97665639
   6.95950700  0.05147017  7.02513025
   7.23300316  4.39192349  7.09434947
   6.85620944  8.62316841  7.14566229
  10.99647800  4.41051180  7.03747679
   9.15409715  0.16489400  3.89159802
   0.95207127 12.47444876  4.07935543
   0.60637754  4.45133227  4.02080384
   1.06162038  8.46204073  3.79588736
   4.80774148  0.28229056  3.81756265
   5.19250732  4.27447300  3.77259277
   4.91181907  8.26823743  3.81959960
   2.71560410  0.37922278  7.34030019
  11.29292545  8.45920008  7.19250016
  11.16499559 10.56035902  1.51938895
   2.58593678  2.48690654  1.55032109
  11.17766968  2.04278647  1.77622929
   9.13986167  4.35261742  3.97723698
   0.54238275  2.26524070  9.52009429
   0.62092397  6.20124888  9.51649690
   1.00221441 10.59097993  9.44161017
   5.11245640  2.30942625  9.52776108
   4.94200957  6.35122405  9.52026149
   4.74998636 10.53918768  9.47563222
   9.04684256  2.25274159  9.65709622
   9.16050073  6.58650518  9.05179825
   8.89504168 10.56061931  9.68036009
   2.76031715  6.33834512  1.35169822
   2.90183185 10.49723048  1.34483643
   6.91398796  2.30504478  1.47715332
   7.08238488  6.24502385  1.32494741
   6.72669500 10.77120837  1.73045641
  11.10968858  6.73670421  1.64116677
   8.84531435  8.62363088  4.13040393
 


--------------------------------------------------------------------------------------------------------


 k-point   1 :   0.0000 0.0000 0.0000  plane waves:   46493
 k-point   2 :   0.5000 0.0000 0.0000  plane waves:   46570
 k-point   3 :   0.0000 0.5000 0.0000  plane waves:   46554
 k-point   4 :   0.5000 0.5000 0.0000  plane waves:   46592
 k-point   5 :   0.0000 0.0000 0.5000  plane waves:   46626
 k-point   6 :   0.5000 0.0000 0.5000  plane waves:   46520
 k-point   7 :   0.0000 0.5000 0.5000  plane waves:   46520
 k-point   8 :   0.5000 0.5000 0.5000  plane waves:   46512

 maximum and minimum number of plane-waves per node :      5864     5784

 maximum number of plane-waves:     46626
 maximum index in each direction: 
   IXMAX=   23   IYMAX=   23   IZMAX=   20
   IXMIN=  -23   IYMIN=  -23   IZMIN=  -21


 parallel 3D FFT for wavefunctions:
    minimum data exchange during FFTs selected (reduces bandwidth)
 parallel 3D FFT for charge:
    minimum data exchange during FFTs selected (reduces bandwidth)


 total amount of memory used by VASP MPI-rank0   111164. kBytes
=======================================================================

   base      :      30000. kBytes
   nonl-proj :      16467. kBytes
   fftplans  :       6180. kBytes
   grid      :      15593. kBytes
   one-center:        146. kBytes
   wavefun   :      42778. kBytes
 
     INWAV:  cpu time      0.0000: real time      0.0001
 Broyden mixing: mesh for mixing (old mesh)
   NGX = 47   NGY = 47   NGZ = 41
  (NGX  =192   NGY  =192   NGZ  =168)
  gives a total of  90569 points

 initial charge density was supplied:
 charge density of overlapping atoms calculated
 number of electron     360.0000000 magnetization      72.0000000
 keeping initial charge density in first step


--------------------------------------------------------------------------------------------------------


 Maximum index for augmentation-charges           777 (set IRDMAX)


--------------------------------------------------------------------------------------------------------


 First call to EWALD:  gamma=   0.148
 Maximum number of real-space cells 3x 3x 3
 Maximum number of reciprocal cells 3x 3x 3

    FEWALD:  cpu time      0.0071: real time      0.0071


--------------------------------------- Ionic step        1  -------------------------------------------




--------------------------------------- Iteration      1(   1)  ---------------------------------------


    POTLOK:  cpu time      0.1381: real time      0.1390
    SETDIJ:  cpu time      0.5931: real time      0.5950
     EDDAV:  cpu time      8.5682: real time      8.6163
       DOS:  cpu time      0.0015: real time      0.0015
    --------------------------------------------
      LOOP:  cpu time      9.3008: real time      9.3517

 eigenvalue-minimisations  :  7168
 total energy-change (2. order) : 0.1815197E+04  (-0.1418869E+05)
 number of electron     360.0000000 magnetization      72.0000000
 augmentation part      360.0000000 magnetization      72.0000000

 Free energy of the ion-electron system (eV)
  ---------------------------------------------------
  alpha Z        PSCENC =       794.11604347
  Ewald energy   TEWEN  =    -12846.00014745
  -Hartree energ DENC   =     -1118.56397281
  -exchange      EXHF   =         0.00000000
  -V(xc)+E(xc)   XCENC  =      -294.22696186
  PAW double counting   =     10738.42099860    -9719.93139476
  entropy T*S    EENTRO =        -0.02512852
  eigenvalues    EBANDS =      1224.95608529
  atomic energy  EATOM  =     13036.45147835
  Solvation  Ediel_sol  =         0.00000000
  ---------------------------------------------------
  free energy    TOTEN  =      1815.19700032 eV

  energy without entropy =     1815.22212884  energy(sigma->0) =     1815.20956458


--------------------------------------------------------------------------------------------------------




--------------------------------------- Iteration      1(   2)  ---------------------------------------


     EDDAV:  cpu time      9.7055: real time      9.7583
       DOS:  cpu time      0.0013: real time      0.0013
    --------------------------------------------
      LOOP:  cpu time      9.7068: real time      9.7596

 eigenvalue-minimisations  :  8504
 total energy-change (2. order) :-0.1879682E+04  (-0.1805840E+04)
 number of electron     360.0000000 magnetization      72.0000000
 augmentation part      360.0000000 magnetization      72.0000000

 Free energy of the ion-electron system (eV)
  ---------------------------------------------------
  alpha Z        PSCENC =       794.11604347
  Ewald energy   TEWEN  =    -12846.00014745
  -Hartree energ DENC   =     -1118.56397281
  -exchange      EXHF   =         0.00000000
  -V(xc)+E(xc)   XCENC  =      -294.22696186
  PAW double counting   =     10738.42099860    -9719.93139476
  entropy T*S    EENTRO =        -0.01322808
  eigenvalues    EBANDS =      -654.73767685
  atomic energy  EATOM  =     13036.45147835
  Solvation  Ediel_sol  =         0.00000000
  ---------------------------------------------------
  free energy    TOTEN  =       -64.48486138 eV

  energy without entropy =      -64.47163330  energy(sigma->0) =      -64.47824734


--------------------------------------------------------------------------------------------------------




--------------------------------------- Iteration      1(   3)  ---------------------------------------


     EDDAV:  cpu time      9.7038: real time      9.7562
       DOS:  cpu time      0.0012: real time      0.0012
    --------------------------------------------
      LOOP:  cpu time      9.7050: real time      9.7574

 eigenvalue-minimisations  :  8592
 total energy-change (2. order) :-0.2170401E+03  (-0.2110589E+03)
 number of electron     360.0000000 magnetization      72.0000000
 augmentation part      360.0000000 magnetization      72.0000000

 Free energy of the ion-electron system (eV)
  ---------------------------------------------------
  alpha Z        PSCENC =       794.11604347
  Ewald energy   TEWEN  =    -12846.00014745
  -Hartree energ DENC   =     -1118.56397281
  -exchange      EXHF   =         0.00000000
  -V(xc)+E(xc)   XCENC  =      -294.22696186
  PAW double counting   =     10738.42099860    -9719.93139476
  entropy T*S    EENTRO =        -0.00068886
  eigenvalues    EBANDS =      -871.79031026
  atomic energy  EATOM  =     13036.45147835
  Solvation  Ediel_sol  =         0.00000000
  ---------------------------------------------------
  free energy    TOTEN  =      -281.52495557 eV

  energy without entropy =     -281.52426671  energy(sigma->0) =     -281.52461114


--------------------------------------------------------------------------------------------------------




--------------------------------------- Iteration      1(   4)  ---------------------------------------


     EDDAV:  cpu time      9.9090: real time      9.9602
       DOS:  cpu time      0.0011: real time      0.0011
    --------------------------------------------
      LOOP:  cpu time      9.9101: real time      9.9614

 eigenvalue-minimisations  :  8816
 total energy-change (2. order) :-0.8006284E+01  (-0.7914994E+01)
 number of electron     360.0000000 magnetization      72.0000000
 augmentation part      360.0000000 magnetization      72.0000000

 Free energy of the ion-electron system (eV)
  ---------------------------------------------------
  alpha Z        PSCENC =       794.11604347
  Ewald energy   TEWEN  =    -12846.00014745
  -Hartree energ DENC   =     -1118.56397281
  -exchange      EXHF   =         0.00000000
  -V(xc)+E(xc)   XCENC  =      -294.22696186
  PAW double counting   =     10738.42099860    -9719.93139476
  entropy T*S    EENTRO =        -0.00002806
  eigenvalues    EBANDS =      -879.79725474
  atomic energy  EATOM  =     13036.45147835
  Solvation  Ediel_sol  =         0.00000000
  ---------------------------------------------------
  free energy    TOTEN  =      -289.53123925 eV

  energy without entropy =     -289.53121119  energy(sigma->0) =     -289.53122522


--------------------------------------------------------------------------------------------------------




--------------------------------------- Iteration      1(   5)  ---------------------------------------


     EDDAV:  cpu time     10.1237: real time     10.1760
       DOS:  cpu time      0.0011: real time      0.0011
    CHARGE:  cpu time      0.4183: real time      0.4201
    MIXING:  cpu time      0.0070: real time      0.0071
    --------------------------------------------
      LOOP:  cpu time     10.5501: real time     10.6043

 eigenvalue-minimisations  :  9040
 total energy-change (2. order) :-0.2850255E+00  (-0.2842340E+00)
 number of electron     359.9999997 magnetization      48.7975424
 augmentation part      -66.8087506 magnetization      49.0092689

 Broyden mixing:
  rms(total) = 0.29083E+01    rms(broyden)= 0.29083E+01
  rms(prec ) = 0.30655E+01
  weight for this iteration     100.00

 Free energy of the ion-electron system (eV)
  ---------------------------------------------------
  alpha Z        PSCENC =       794.11604347
  Ewald energy   TEWEN  =    -12846.00014745
  -Hartree energ DENC   =     -1118.56397281
  -exchange      EXHF   =         0.00000000
  -V(xc)+E(xc)   XCENC  =      -294.22696186
  PAW double counting   =     10738.42099860    -9719.93139476
  entropy T*S    EENTRO =        -0.00002524
  eigenvalues    EBANDS =      -880.08228310
  atomic energy  EATOM  =     13036.45147835
  Solvation  Ediel_sol  =         0.00000000
  ---------------------------------------------------
  free energy    TOTEN  =      -289.81626479 eV

  energy without entropy =     -289.81623955  energy(sigma->0) =     -289.81625217


--------------------------------------------------------------------------------------------------------




--------------------------------------- Iteration      1(   6)  ---------------------------------------


    POTLOK:  cpu time      0.1338: real time      0.1351
    SETDIJ:  cpu time      0.6004: real time      0.6023
     EDDAV:  cpu time      9.1861: real time      9.2267
       DOS:  cpu time      0.0011: real time      0.0011
    CHARGE:  cpu time      0.4189: real time      0.4208
    MIXING:  cpu time      0.0075: real time      0.0075
    --------------------------------------------
      LOOP:  cpu time     10.3477: real time     10.3935

 eigenvalue-minimisations  :  7928
 total energy-change (2. order) : 0.4089778E+00  (-0.2676306E+01)
 number of electron     359.9999997 magnetization      27.9949162
 augmentation part      -66.1973403 magnetization      29.1783220

 Broyden mixing:
  rms(total) = 0.17225E+01    rms(broyden)= 0.17225E+01
  rms(prec ) = 0.17591E+01
  weight for this iteration     100.00

 eigenvalues of (default mixing * dielectric matrix)
  average eigenvalue GAMMA=   1.0068
  1.0068

 Free energy of the ion-electron system (eV)
  ---------------------------------------------------
  alpha Z        PSCENC =       794.11604347
  Ewald energy   TEWEN  =    -12846.00014745
  -Hartree energ DENC   =     -1171.94455764
  -exchange      EXHF   =         0.00000000
  -V(xc)+E(xc)   XCENC  =      -287.68323103
  PAW double counting   =     13002.63741138   -11987.62749840
  entropy T*S    EENTRO =        -0.00000838
  eigenvalues    EBANDS =      -829.35677730
  atomic energy  EATOM  =     13036.45147835
  Solvation  Ediel_sol  =         0.00000000
  ---------------------------------------------------
  free energy    TOTEN  =      -289.40728698 eV

  energy without entropy =     -289.40727860  energy(sigma->0) =     -289.40728279


--------------------------------------------------------------------------------------------------------




--------------------------------------- Iteration      1(   7)  ---------------------------------------


    POTLOK:  cpu time      0.1306: real time      0.1312
    SETDIJ:  cpu time      0.6030: real time      0.6048
     EDDAV:  cpu time      9.2079: real time      9.2493
       DOS:  cpu time      0.0008: real time      0.0008
    CHARGE:  cpu time      0.4180: real time      0.4196
    MIXING:  cpu time      0.0087: real time      0.0087
    --------------------------------------------
      LOOP:  cpu time     10.3690: real time     10.4144

 eigenvalue-minimisations  :  7984
 total energy-change (2. order) :-0.7327181E+01  (-0.8619477E+00)
 number of electron     359.9999997 magnetization       9.2032423
 augmentation part      -66.1887673 magnetization       9.8799319

 Broyden mixing:
  rms(total) = 0.90847E+00    rms(broyden)= 0.90847E+00
  rms(prec ) = 0.92493E+00
  weight for this iteration     100.00

 eigenvalues of (default mixing * dielectric matrix)
  average eigenvalue GAMMA=   1.4552
  0.8631  2.0473

 Free energy of the ion-electron system (eV)
  ---------------------------------------------------
  alpha Z        PSCENC =       794.11604347
  Ewald energy   TEWEN  =    -12846.00014745
  -Hartree energ DENC   =     -1188.38582819
  -exchange      EXHF   =         0.00000000
  -V(xc)+E(xc)   XCENC  =      -290.65586409
  PAW double counting   =     15065.49806151   -14052.07147401
  entropy T*S    EENTRO =        -0.00000000
  eigenvalues    EBANDS =      -815.68673749
  atomic energy  EATOM  =     13036.45147835
  Solvation  Ediel_sol  =         0.00000000
  ---------------------------------------------------
  free energy    TOTEN  =      -296.73446790 eV

  energy without entropy =     -296.73446790  energy(sigma->0) =     -296.73446790


--------------------------------------------------------------------------------------------------------




--------------------------------------- Iteration      1(   8)  ---------------------------------------


    POTLOK:  cpu time      0.1336: real time      0.1342
    SETDIJ:  cpu time      0.5977: real time      0.5993
     EDDAV:  cpu time      9.3824: real time      9.4265
       DOS:  cpu time      0.0007: real time      0.0007
    CHARGE:  cpu time      0.4143: real time      0.4161
    MIXING:  cpu time      0.0074: real time      0.0074
    --------------------------------------------
      LOOP:  cpu time     10.5360: real time     10.5842

 eigenvalue-minimisations  :  8152
 total energy-change (2. order) :-0.3240355E+01  (-0.1746603E+00)
 number of electron     359.9999997 magnetization       4.3687822
 augmentation part      -66.1995229 magnetization       4.6757886

 Broyden mixing:
  rms(total) = 0.32956E+00    rms(broyden)= 0.32956E+00
  rms(prec ) = 0.33463E+00
  weight for this iteration     100.00

 eigenvalues of (default mixing * dielectric matrix)
  average eigenvalue GAMMA=   1.3586
  2.4984  0.9249  0.6525

 Free energy of the ion-electron system (eV)
  ---------------------------------------------------
  alpha Z        PSCENC =       794.11604347
  Ewald energy   TEWEN  =    -12846.00014745
  -Hartree energ DENC   =     -1192.85775341
  -exchange      EXHF   =         0.00000000
  -V(xc)+E(xc)   XCENC  =      -290.38075896
  PAW double counting   =     16827.77933668   -15815.26223379
  entropy T*S    EENTRO =        -0.00000000
  eigenvalues    EBANDS =      -813.82078753
  atomic energy  EATOM  =     13036.45147835
  Solvation  Ediel_sol  =         0.00000000
  ---------------------------------------------------
  free energy    TOTEN  =      -299.97482263 eV

  energy without entropy =     -299.97482263  energy(sigma->0) =     -299.97482263


--------------------------------------------------------------------------------------------------------




--------------------------------------- Iteration      1(   9)  ---------------------------------------


    POTLOK:  cpu time      0.1321: real time      0.1327
    SETDIJ:  cpu time      0.5998: real time      0.6012
     EDDAV:  cpu time     10.1467: real time     10.2112
       DOS:  cpu time      0.0006: real time      0.0006
    CHARGE:  cpu time      0.4182: real time      0.4198
    MIXING:  cpu time      0.0080: real time      0.0080
    --------------------------------------------
      LOOP:  cpu time     11.3054: real time     11.3735

 eigenvalue-minimisations  :  9088
 total energy-change (2. order) :-0.3782654E+00  (-0.4168944E-01)
 number of electron     359.9999997 magnetization       2.2904366
 augmentation part      -66.2361007 magnetization       2.4428267

 Broyden mixing:
  rms(total) = 0.14759E+00    rms(broyden)= 0.14759E+00
  rms(prec ) = 0.14925E+00
  weight for this iteration     100.00

 eigenvalues of (default mixing * dielectric matrix)
  average eigenvalue GAMMA=   1.3284
  2.6326  1.2293  0.8327  0.6190

 Free energy of the ion-electron system (eV)
  ---------------------------------------------------
  alpha Z        PSCENC =       794.11604347
  Ewald energy   TEWEN  =    -12846.00014745
  -Hartree energ DENC   =     -1191.98787839
  -exchange      EXHF   =         0.00000000
  -V(xc)+E(xc)   XCENC  =      -290.41283185
  PAW double counting   =     17112.38827798   -16100.21388479
  entropy T*S    EENTRO =        -0.00000000
  eigenvalues    EBANDS =      -814.69414533
  atomic energy  EATOM  =     13036.45147835
  Solvation  Ediel_sol  =         0.00000000
  ---------------------------------------------------
  free energy    TOTEN  =      -300.35308799 eV

  energy without entropy =     -300.35308799  energy(sigma->0) =     -300.35308799


--------------------------------------------------------------------------------------------------------




--------------------------------------- Iteration      1(  10)  ---------------------------------------


    POTLOK:  cpu time      0.1293: real time      0.1299
    SETDIJ:  cpu time      0.6029: real time      0.6045
     EDDAV:  cpu time      9.4415: real time      9.4857
       DOS:  cpu time      0.0007: real time      0.0007
    CHARGE:  cpu time      0.4166: real time      0.4185
    MIXING:  cpu time      0.0082: real time      0.0082
    --------------------------------------------
      LOOP:  cpu time     10.5992: real time     10.6475

 eigenvalue-minimisations  :  8232
 total energy-change (2. order) :-0.1041858E+00  (-0.9331034E-02)
 number of electron     359.9999997 magnetization       0.7235116
 augmentation part      -66.2369850 magnetization       0.7914188

 Broyden mixing:
  rms(total) = 0.73115E-01    rms(broyden)= 0.73115E-01
  rms(prec ) = 0.74168E-01
  weight for this iteration     100.00

 eigenvalues of (default mixing * dielectric matrix)
  average eigenvalue GAMMA=   1.3800
  2.7064  1.7741  0.9723  0.8218  0.6255

 Free energy of the ion-electron system (eV)
  ---------------------------------------------------
  alpha Z        PSCENC =       794.11604347
  Ewald energy   TEWEN  =    -12846.00014745
  -Hartree energ DENC   =     -1192.26737674
  -exchange      EXHF   =         0.00000000
  -V(xc)+E(xc)   XCENC  =      -290.40337112
  PAW double counting   =     17120.82419282   -16108.66370754
  entropy T*S    EENTRO =        -0.00000000
  eigenvalues    EBANDS =      -814.51438558
  atomic energy  EATOM  =     13036.45147835
  Solvation  Ediel_sol  =         0.00000000
  ---------------------------------------------------
  free energy    TOTEN  =      -300.45727378 eV

  energy without entropy =     -300.45727378  energy(sigma->0) =     -300.45727378


--------------------------------------------------------------------------------------------------------




--------------------------------------- Iteration      1(  11)  ---------------------------------------


    POTLOK:  cpu time      0.1294: real time      0.1300
    SETDIJ:  cpu time      0.6018: real time      0.6033
     EDDAV:  cpu time      9.9924: real time     10.0383
       DOS:  cpu time      0.0008: real time      0.0008
    CHARGE:  cpu time      0.4117: real time      0.4134
    MIXING:  cpu time      0.0079: real time      0.0079
    --------------------------------------------
      LOOP:  cpu time     11.1439: real time     11.1936

 eigenvalue-minimisations  :  8856
 total energy-change (2. order) :-0.3183199E-01  (-0.3701388E-02)
 number of electron     359.9999997 magnetization       0.1850236
 augmentation part      -66.2227671 magnetization       0.2030688

 Broyden mixing:
  rms(total) = 0.28023E-01    rms(broyden)= 0.28023E-01
  rms(prec ) = 0.28543E-01
  weight for this iteration     100.00

 eigenvalues of (default mixing * dielectric matrix)
  average eigenvalue GAMMA=   1.4028
  2.9079  2.1689  1.1634  0.8556  0.6977  0.6235

 Free energy of the ion-electron system (eV)
  ---------------------------------------------------
  alpha Z        PSCENC =       794.11604347
  Ewald energy   TEWEN  =    -12846.00014745
  -Hartree energ DENC   =     -1193.38343958
  -exchange      EXHF   =         0.00000000
  -V(xc)+E(xc)   XCENC  =      -290.36161247
  PAW double counting   =     17043.77025965   -16031.58188801
  entropy T*S    EENTRO =        -0.00000000
  eigenvalues    EBANDS =      -813.49979974
  atomic energy  EATOM  =     13036.45147835
  Solvation  Ediel_sol  =         0.00000000
  ---------------------------------------------------
  free energy    TOTEN  =      -300.48910577 eV

  energy without entropy =     -300.48910577  energy(sigma->0) =     -300.48910577


--------------------------------------------------------------------------------------------------------




--------------------------------------- Iteration      1(  12)  ---------------------------------------


    POTLOK:  cpu time      0.1323: real time      0.1355
    SETDIJ:  cpu time      0.5980: real time      0.5999
     EDDAV:  cpu time      9.9311: real time      9.9823
       DOS:  cpu time      0.0007: real time      0.0007
    CHARGE:  cpu time      0.4134: real time      0.4151
    MIXING:  cpu time      0.0081: real time      0.0081
    --------------------------------------------
      LOOP:  cpu time     11.0836: real time     11.1417

 eigenvalue-minimisations  :  8680
 total energy-change (2. order) :-0.3127228E-02  (-0.4347838E-03)
 number of electron     359.9999997 magnetization       0.0612307
 augmentation part      -66.2226306 magnetization       0.0657091

 Broyden mixing:
  rms(total) = 0.10868E-01    rms(broyden)= 0.10868E-01
  rms(prec ) = 0.11444E-01
  weight for this iteration     100.00

 eigenvalues of (default mixing * dielectric matrix)
  average eigenvalue GAMMA=   1.3654
  3.0042  2.3254  1.2014  0.8821  0.8821  0.6081  0.6542

 Free energy of the ion-electron system (eV)
  ---------------------------------------------------
  alpha Z        PSCENC =       794.11604347
  Ewald energy   TEWEN  =    -12846.00014745
  -Hartree energ DENC   =     -1193.46127383
  -exchange      EXHF   =         0.00000000
  -V(xc)+E(xc)   XCENC  =      -290.36492300
  PAW double counting   =     17009.49406885   -15997.28359822
  entropy T*S    EENTRO =        -0.00000000
  eigenvalues    EBANDS =      -813.44388118
  atomic energy  EATOM  =     13036.45147835
  Solvation  Ediel_sol  =         0.00000000
  ---------------------------------------------------
  free energy    TOTEN  =      -300.49223300 eV

  energy without entropy =     -300.49223300  energy(sigma->0) =     -300.49223300


--------------------------------------------------------------------------------------------------------




--------------------------------------- Iteration      1(  13)  ---------------------------------------


    POTLOK:  cpu time      0.1288: real time      0.1295
    SETDIJ:  cpu time      0.6012: real time      0.6033
     EDDAV:  cpu time     10.8351: real time     10.8916
       DOS:  cpu time      0.0007: real time      0.0007
    CHARGE:  cpu time      0.4045: real time      0.4061
    MIXING:  cpu time      0.0078: real time      0.0079
    --------------------------------------------
      LOOP:  cpu time     11.9781: real time     12.0391

 eigenvalue-minimisations  :  9744
 total energy-change (2. order) :-0.1300237E-03  (-0.5910823E-04)
 number of electron     359.9999997 magnetization       0.0157027
 augmentation part      -66.2238787 magnetization       0.0165265

 Broyden mixing:
  rms(total) = 0.44689E-02    rms(broyden)= 0.44689E-02
  rms(prec ) = 0.46644E-02
  weight for this iteration     100.00

 eigenvalues of (default mixing * dielectric matrix)
  average eigenvalue GAMMA=   1.3530
  3.0550  2.4346  1.1384  1.1384  0.9352  0.8674  0.6479  0.6071

 Free energy of the ion-electron system (eV)
  ---------------------------------------------------
  alpha Z        PSCENC =       794.11604347
  Ewald energy   TEWEN  =    -12846.00014745
  -Hartree energ DENC   =     -1193.36608391
  -exchange      EXHF   =         0.00000000
  -V(xc)+E(xc)   XCENC  =      -290.37509447
  PAW double counting   =     16995.59180920   -15983.37029367
  entropy T*S    EENTRO =        -0.00000000
  eigenvalues    EBANDS =      -813.54007455
  atomic energy  EATOM  =     13036.45147835
  Solvation  Ediel_sol  =         0.00000000
  ---------------------------------------------------
  free energy    TOTEN  =      -300.49236302 eV

  energy without entropy =     -300.49236302  energy(sigma->0) =     -300.49236302


--------------------------------------------------------------------------------------------------------




--------------------------------------- Iteration      1(  14)  ---------------------------------------


    POTLOK:  cpu time      0.1283: real time      0.1291
    SETDIJ:  cpu time      0.6031: real time      0.6051
     EDDAV:  cpu time      9.5565: real time      9.6053
       DOS:  cpu time      0.0007: real time      0.0007
    CHARGE:  cpu time      0.4121: real time      0.4145
    MIXING:  cpu time      0.0085: real time      0.0086
    --------------------------------------------
      LOOP:  cpu time     10.7092: real time     10.7632

 eigenvalue-minimisations  :  8280
 total energy-change (2. order) :-0.1824810E-04  (-0.8775230E-05)
 number of electron     359.9999997 magnetization       0.0048761
 augmentation part      -66.2235672 magnetization       0.0052362

 Broyden mixing:
  rms(total) = 0.16160E-02    rms(broyden)= 0.16160E-02
  rms(prec ) = 0.17195E-02
  weight for this iteration     100.00

 eigenvalues of (default mixing * dielectric matrix)
  average eigenvalue GAMMA=   1.3351
  3.0816  2.4599  1.4867  1.1801  0.8805  0.8805  0.7938  0.6094  0.6435

 Free energy of the ion-electron system (eV)
  ---------------------------------------------------
  alpha Z        PSCENC =       794.11604347
  Ewald energy   TEWEN  =    -12846.00014745
  -Hartree energ DENC   =     -1193.36927929
  -exchange      EXHF   =         0.00000000
  -V(xc)+E(xc)   XCENC  =      -290.37574202
  PAW double counting   =     16991.06808318   -15978.84364854
  entropy T*S    EENTRO =        -0.00000000
  eigenvalues    EBANDS =      -813.53916897
  atomic energy  EATOM  =     13036.45147835
  Solvation  Ediel_sol  =         0.00000000
  ---------------------------------------------------
  free energy    TOTEN  =      -300.49238127 eV

  energy without entropy =     -300.49238127  energy(sigma->0) =     -300.49238127


--------------------------------------------------------------------------------------------------------




--------------------------------------- Iteration      1(  15)  ---------------------------------------


    POTLOK:  cpu time      0.1304: real time      0.1311
    SETDIJ:  cpu time      0.6019: real time      0.6044
     EDDAV:  cpu time      9.8792: real time      9.9354
       DOS:  cpu time      0.0007: real time      0.0007
    CHARGE:  cpu time      0.4171: real time      0.4190
    MIXING:  cpu time      0.0093: real time      0.0093
    --------------------------------------------
      LOOP:  cpu time     11.0385: real time     11.0998

 eigenvalue-minimisations  :  8616
 total energy-change (2. order) :-0.3536783E-05  (-0.1556259E-05)
 number of electron     359.9999997 magnetization       0.0017099
 augmentation part      -66.2236848 magnetization       0.0019157

 Broyden mixing:
  rms(total) = 0.72726E-03    rms(broyden)= 0.72726E-03
  rms(prec ) = 0.77272E-03
  weight for this iteration     100.00

 eigenvalues of (default mixing * dielectric matrix)
  average eigenvalue GAMMA=   1.3026
  3.0920  2.4293  1.6670  1.0934  0.9829  0.9829  0.8290  0.7084  0.6205  0.6205

 Free energy of the ion-electron system (eV)
  ---------------------------------------------------
  alpha Z        PSCENC =       794.11604347
  Ewald energy   TEWEN  =    -12846.00014745
  -Hartree energ DENC   =     -1193.35831742
  -exchange      EXHF   =         0.00000000
  -V(xc)+E(xc)   XCENC  =      -290.37601462
  PAW double counting   =     16990.68871285   -15978.46360927
  entropy T*S    EENTRO =        -0.00000000
  eigenvalues    EBANDS =      -813.55053072
  atomic energy  EATOM  =     13036.45147835
  Solvation  Ediel_sol  =         0.00000000
  ---------------------------------------------------
  free energy    TOTEN  =      -300.49238480 eV

  energy without entropy =     -300.49238480  energy(sigma->0) =     -300.49238480


--------------------------------------------------------------------------------------------------------




--------------------------------------- Iteration      1(  16)  ---------------------------------------


    POTLOK:  cpu time      0.1320: real time      0.1327
    SETDIJ:  cpu time      0.5988: real time      0.6010
     EDDAV:  cpu time      6.6346: real time      6.6716
       DOS:  cpu time      0.0008: real time      0.0008
    --------------------------------------------
      LOOP:  cpu time      7.3662: real time      7.4061

 eigenvalue-minimisations  :  4888
 total energy-change (2. order) :-0.6659475E-06  (-0.1513363E-06)
 number of electron     359.9999997 magnetization       0.0017099
 augmentation part      -66.2236848 magnetization       0.0019157

 Free energy of the ion-electron system (eV)
  ---------------------------------------------------
  alpha Z        PSCENC =       794.11604347
  Ewald energy   TEWEN  =    -12846.00014745
  -Hartree energ DENC   =     -1193.35290227
  -exchange      EXHF   =         0.00000000
  -V(xc)+E(xc)   XCENC  =      -290.37626259
  PAW double counting   =     16990.64212108   -15978.41678677
  entropy T*S    EENTRO =        -0.00000000
  eigenvalues    EBANDS =      -813.55592931
  atomic energy  EATOM  =     13036.45147835
  Solvation  Ediel_sol  =         0.00000000
  ---------------------------------------------------
  free energy    TOTEN  =      -300.49238547 eV

  energy without entropy =     -300.49238547  energy(sigma->0) =     -300.49238547


--------------------------------------------------------------------------------------------------------




 average (electrostatic) potential at core
  the test charge radii are     1.1631  1.0808
  (the norm of the test charge is              1.0000)
       1 -33.4910       2 -33.6839       3 -33.4357       4 -33.6292       5 -33.2311
       6 -33.7169       7 -33.6118       8 -33.6234       9 -33.4809      10 -33.4900
      11 -33.5514      12 -33.4221      13 -33.4479      14 -33.5586      15 -33.6337
      16 -33.5197      17 -33.5149      18 -33.4914      19 -33.6905      20 -33.3834
      21 -33.6017      22 -33.4166      23 -33.5322      24 -33.4665      25 -33.4287
      26 -33.4683      27 -33.5461      28 -33.4778      29 -33.3785      30 -33.7402
      31 -33.3653      32 -33.4770      33 -33.1600      34 -33.5004      35 -33.3152
      36 -33.5235      37 -55.1094      38 -54.6487      39 -54.7804      40 -54.7890
      41 -54.7745      42 -54.8494      43 -55.0238      44 -54.6319      45 -55.0382
      46 -54.8384      47 -54.9655      48 -54.9117      49 -55.1344      50 -54.8662
      51 -54.8262      52 -54.9175      53 -54.9775      54 -54.8739      55 -54.7550
      56 -54.9495      57 -54.8886      58 -54.8716      59 -54.9938      60 -54.7922
      61 -54.6197      62 -54.9157      63 -54.9263      64 -54.9488      65 -54.8142
      66 -54.8619      67 -54.8853      68 -54.8738      69 -54.9723      70 -54.6667
      71 -54.9087      72 -54.7595
 
 
 
 E-fermi :   3.3679     XC(G=0):  -9.3586     alpha+bet : -8.7902

 Fermi energy:         3.3679360765

 spin component 1

 k-point     1 :       0.0000    0.0000    0.0000
  band No.  band energies     occupation 
      1     -10.9290      1.00000
      2     -10.6536      1.00000
      3     -10.4922      1.00000
      4     -10.3766      1.00000
      5     -10.3296      1.00000
      6     -10.1897      1.00000
      7     -10.1210      1.00000
      8     -10.0448      1.00000
      9      -9.9938      1.00000
     10      -9.9663      1.00000
     11      -9.8766      1.00000
     12      -9.8462      1.00000
     13      -9.7940      1.00000
     14      -9.7619      1.00000
     15      -9.7095      1.00000
     16      -9.6814      1.00000
     17      -9.6347      1.00000
     18      -9.6211      1.00000
     19      -9.5591      1.00000
     20      -9.5254      1.00000
     21      -9.4226      1.00000
     22      -9.4108      1.00000
     23      -9.3870      1.00000
     24      -9.3728      1.00000
     25      -9.3571      1.00000
     26      -9.3107      1.00000
     27      -9.2713      1.00000
     28      -9.2217      1.00000
     29      -9.1718      1.00000
     30      -9.1488      1.00000
     31      -9.1333      1.00000
     32      -9.0766      1.00000
     33      -9.0572      1.00000
     34      -9.0255      1.00000
     35      -8.9205      1.00000
     36      -8.8673      1.00000
     37      -5.5399      1.00000
     38      -5.3978      1.00000
     39      -5.2602      1.00000
     40      -5.2320      1.00000
     41      -5.1419      1.00000
     42      -5.1217      1.00000
     43      -5.0638      1.00000
     44      -4.9886      1.00000
     45      -4.7788      1.00000
     46      -4.6918      1.00000
     47      -4.5912      1.00000
     48      -4.5718      1.00000
     49      -4.5483      1.00000
     50      -4.5273      1.00000
     51      -4.4567      1.00000
     52      -4.4186      1.00000
     53      -4.3921      1.00000
     54      -4.3735      1.00000
     55      -4.3594      1.00000
     56      -4.3298      1.00000
     57      -4.2932      1.00000
     58      -4.2796      1.00000
     59      -4.2022      1.00000
     60      -4.1848      1.00000
     61      -4.0804      1.00000
     62      -4.0404      1.00000
     63      -4.0090      1.00000
     64      -3.9940      1.00000
     65      -3.9416      1.00000
     66      -3.8863      1.00000
     67      -3.7285      1.00000
     68      -3.6251      1.00000
     69      -3.5585      1.00000
     70      -3.5194      1.00000
     71      -2.5245      1.00000
     72      -2.4442      1.00000
     73      -1.8483      1.00000
     74      -1.6045      1.00000
     75      -1.5353      1.00000
     76      -1.5283      1.00000
     77      -1.4893      1.00000
     78      -1.4116      1.00000
     79      -1.3077      1.00000
     80      -1.2486      1.00000
     81      -1.2008      1.00000
     82      -1.1802      1.00000
     83      -1.1534      1.00000
     84      -1.0562      1.00000
     85      -0.9540      1.00000
     86      -0.8595      1.00000
     87      -0.8380      1.00000
     88      -0.7272      1.00000
     89      -0.6846      1.00000
     90      -0.6814      1.00000
     91      -0.5963      1.00000
     92      -0.5676      1.00000
     93      -0.4896      1.00000
     94      -0.2448      1.00000
     95      -0.2059      1.00000
     96      -0.1682      1.00000
     97      -0.1285      1.00000
     98      -0.1044      1.00000
     99      -0.0021      1.00000
    100       0.0083      1.00000
    101       0.0316      1.00000
    102       0.0865      1.00000
    103       0.1536      1.00000
    104       0.1700      1.00000
    105       0.1927      1.00000
    106       0.2408      1.00000
    107       0.2996      1.00000
    108       0.3288      1.00000
    109       0.3492      1.00000
    110       0.4114      1.00000
    111       0.4694      1.00000
    112       0.4889      1.00000
    113       0.5310      1.00000
    114       0.5692      1.00000
    115       0.5996      1.00000
    116       0.6305      1.00000
    117       0.6903      1.00000
    118       0.7070      1.00000
    119       0.7273      1.00000
    120       0.7725      1.00000
    121       0.8138      1.00000
    122       0.8255      1.00000
    123       0.9321      1.00000
    124       0.9520      1.00000
    125       0.9790      1.00000
    126       1.0021      1.00000
    127       1.0286      1.00000
    128       1.0813      1.00000
    129       1.1049      1.00000
    130       1.1225      1.00000
    131       1.1443      1.00000
    132       1.1735      1.00000
    133       1.2401      1.00000
    134       1.2491      1.00000
    135       1.3191      1.00000
    136       1.3733      1.00000
    137       1.3960      1.00000
    138       1.4052      1.00000
    139       1.4370      1.00000
    140       1.4558      1.00000
    141       1.4703      1.00000
    142       1.5200      1.00000
    143       1.5490      1.00000
    144       1.6267      1.00000
    145       1.6456      1.00000
    146       1.6661      1.00000
    147       1.7418      1.00000
    148       1.7844      1.00000
[...]
   -.219E+00 -.129E+02 -.302E+02   0.313E+00 0.162E+02 0.331E+02   0.123E+00 -.259E+01 -.267E+01   0.282E-04 0.174E-03 0.109E-03
   0.202E+02 -.210E+01 0.158E+02   -.225E+02 0.169E+01 -.180E+02   0.224E+01 0.350E+00 0.281E+01   -.116E-04 -.483E-04 0.759E-06
   -.973E+01 0.614E+01 0.310E+02   0.110E+02 -.614E+01 -.328E+02   -.135E+01 -.606E+00 0.189E+01   0.492E-04 -.226E-03 -.137E-03
   -.122E+02 -.138E+02 0.326E+02   0.128E+02 0.146E+02 -.342E+02   -.155E+01 -.747E+00 0.181E+01   -.236E-04 -.152E-03 -.246E-03
   0.564E+00 0.240E+02 0.255E+02   -.641E+00 -.256E+02 -.269E+02   -.225E+00 0.169E+01 0.200E+01   -.273E-03 0.359E-04 -.373E-03
   -.848E+01 0.378E+01 0.266E+02   0.857E+01 -.480E+01 -.281E+02   0.688E-01 0.996E+00 0.202E+01   -.387E-03 0.849E-05 -.193E-03
   0.183E+02 0.289E+02 0.219E+02   -.188E+02 -.303E+02 -.235E+02   0.186E+00 0.159E+01 0.166E+01   -.311E-03 0.141E-03 -.247E-03
   -.922E+01 -.151E+02 0.262E+02   0.109E+02 0.154E+02 -.283E+02   -.159E+01 -.491E+00 0.147E+01   0.333E-03 -.320E-04 0.316E-03
   -.355E+01 0.248E+02 0.158E+02   0.356E+01 -.264E+02 -.173E+02   0.580E-01 0.873E+00 0.152E+01   0.178E-03 0.175E-03 0.163E-04
   -.792E+01 0.477E+00 -.289E+02   0.891E+01 -.538E-01 0.302E+02   -.130E+01 -.495E+00 -.129E+01   -.422E-03 -.461E-03 -.446E-04
   0.496E+01 -.182E+02 -.313E+02   -.515E+01 0.194E+02 0.333E+02   0.128E+00 -.112E+01 -.211E+01   0.286E-04 -.389E-04 -.128E-03
   -.204E+02 0.750E+01 -.153E+02   0.219E+02 -.760E+01 0.166E+02   -.143E+01 0.169E+00 -.166E+01   0.244E-03 0.235E-03 0.136E-06
   -.780E+01 0.774E+01 -.366E+02   0.909E+01 -.808E+01 0.382E+02   -.190E+01 0.335E+00 -.108E+01   -.433E-03 -.419E-04 0.328E-03
   -.125E+02 0.566E+01 -.376E+02   0.139E+02 -.588E+01 0.393E+02   -.160E+01 0.399E+00 -.135E+01   0.151E-03 0.324E-03 -.620E-04
   0.426E+01 0.179E+01 -.499E+02   -.382E+01 -.165E+01 0.521E+02   -.112E+01 -.160E+00 -.113E+01   -.151E-03 -.252E-03 0.194E-03
   -.272E+01 -.179E+02 -.299E+02   0.281E+01 0.190E+02 0.317E+02   0.964E-01 -.124E+01 -.151E+01   0.296E-03 -.777E-04 0.169E-04
   -.121E+01 0.919E+01 0.309E+02   0.934E+00 -.107E+02 -.323E+02   0.735E+00 0.126E+01 0.960E+00   0.302E-03 0.152E-03 -.773E-04
   -.207E+01 -.116E+02 0.339E+02   0.185E+01 0.112E+02 -.357E+02   0.580E+00 0.131E+01 0.137E+01   0.627E-04 -.441E-04 -.219E-04
   0.237E+00 -.104E+02 0.234E+02   0.404E+00 0.110E+02 -.251E+02   -.362E+00 -.532E+00 0.197E+01   -.138E-03 -.231E-03 0.815E-04
   -.332E+01 0.559E+01 0.270E+02   0.440E+01 -.577E+01 -.290E+02   -.844E+00 -.115E+00 0.197E+01   0.187E-03 -.271E-03 0.115E-03
   0.214E+01 -.213E+02 0.230E+02   -.201E+01 0.232E+02 -.246E+02   0.312E+00 -.167E+01 0.143E+01   0.149E-03 0.943E-04 -.293E-03
   -.106E+02 0.738E+00 -.864E+01   0.110E+02 -.188E-02 0.978E+01   -.147E+00 -.884E+00 -.167E+01   -.188E-03 0.334E-03 -.487E-04
   -.176E+02 -.164E+01 -.290E+02   0.190E+02 0.174E+01 0.309E+02   -.123E+01 -.308E+00 -.194E+01   0.132E-03 0.311E-03 0.980E-04
   -.101E+02 0.110E+02 -.239E+02   0.105E+02 -.121E+02 0.257E+02   -.274E-01 0.153E+01 -.171E+01   -.467E-03 -.150E-03 -.773E-04
   0.213E+02 0.113E+02 -.187E+02   -.219E+02 -.124E+02 0.203E+02   0.169E+00 0.122E+01 -.171E+01   -.747E-04 0.124E-03 0.527E-04
   0.669E+01 0.147E+02 -.104E+02   -.691E+01 -.158E+02 0.120E+02   0.200E+00 0.122E+01 -.195E+01   -.278E-03 -.162E-03 -.103E-03
   -.496E+01 -.116E+02 -.140E+02   0.578E+01 0.122E+02 0.156E+02   -.133E+01 -.546E+00 -.219E+01   0.384E-03 -.609E-04 0.225E-04
   -.134E+02 0.174E+02 -.150E+02   0.135E+02 -.191E+02 0.161E+02   0.105E+00 0.170E+01 -.156E+01   0.211E-03 0.311E-03 0.115E-03
   0.406E+01 0.250E+02 -.230E+02   -.451E+01 -.267E+02 0.246E+02   0.235E+00 0.895E+00 -.225E+01   0.154E-03 0.250E-03 0.245E-03
   0.302E+01 0.164E+02 -.336E+02   -.308E+01 -.184E+02 0.347E+02   0.424E+00 0.132E+01 -.603E+00   -.195E-03 0.365E-03 0.563E-03
   -.162E+02 -.109E+02 -.209E+02   0.173E+02 0.112E+02 0.226E+02   -.680E+00 -.261E+00 -.236E+01   -.251E-03 -.537E-03 0.210E-03
   -.917E+01 -.956E+01 0.190E+02   0.100E+02 0.103E+02 -.206E+02   -.315E+00 -.360E+00 0.190E+01   -.448E-04 -.313E-03 0.166E-03
   -.481E+00 -.156E+02 0.104E+02   0.457E+00 0.167E+02 -.117E+02   -.647E-02 -.119E+01 0.213E+01   -.101E-04 0.459E-03 -.114E-03
   -.247E+02 0.129E+02 0.211E+02   0.260E+02 -.129E+02 -.230E+02   -.828E+00 -.901E-01 0.174E+01   -.334E-03 -.737E-04 0.109E-03
   -.327E+01 -.334E+02 0.252E+02   0.282E+01 0.352E+02 -.269E+02   0.353E+00 -.119E+01 0.237E+01   0.166E-03 0.229E-03 -.152E-03
   -.189E+02 0.101E+02 0.228E+02   0.200E+02 -.103E+02 -.244E+02   -.109E+01 -.465E-01 0.103E+01   0.149E-03 -.567E-04 0.167E-03
   -.804E+00 0.122E+02 0.230E+02   0.163E+01 -.126E+02 -.244E+02   -.131E+01 -.103E-01 0.154E+01   -.328E-03 -.215E-04 -.895E-04
   -.174E+02 -.107E+02 -.178E+02   0.187E+02 0.107E+02 0.193E+02   -.104E+01 0.849E-01 -.232E+01   0.215E-05 0.103E-03 -.180E-03
 -----------------------------------------------------------------------------------------------
   -.195E+02 0.348E+01 0.381E+00   -.782E-13 -.284E-13 -.149E-12   0.195E+02 -.348E+01 -.381E+00   0.127E-04 0.240E-03 0.489E-03
 
 
 POSITION                                       TOTAL-FORCE (eV/Angst)
 -----------------------------------------------------------------------------------
      0.88461      0.48219      1.58675        -0.162476      0.216594     -0.193893
      3.02359     10.82781      4.03749         0.075681      0.185389     -0.538899
      7.35388      2.53399      3.97522         0.066802     -0.581904      0.294753
      7.14696      6.69031      4.02144        -0.154874      0.306611     -0.438533
      7.34061     10.84996      4.18230        -0.084228     -0.056870      0.262275
     11.36759      2.49198      4.33525        -0.288974      0.378763     -0.332482
     11.55198      6.56604      4.18994         0.123360      0.203498     -0.324086
     11.71559     10.47994      4.09503        -0.085706      0.003103     -0.198064
      1.11696      2.39857      6.99254         0.329143     -0.006945      0.055230
      0.53581      5.96316      7.01102         0.765670      0.207002     -0.079280
      1.02684     10.18623      6.89411        -0.137742     -0.280136      0.130721
      4.95732      1.73722      6.95193        -0.035539      0.425783      0.204491
      5.46323      6.39165      6.89704        -0.206972     -0.220706      0.591871
      4.85608     10.29209      6.85666         0.033892     -0.253012      0.389891
      9.21799      1.72829      7.04442        -0.646342      0.309487      0.274545
      9.13776      6.11164      6.51719        -0.113838     -0.078501      0.092658
      3.32399      6.21475      3.89318        -0.173725      0.303350      0.030592
      3.23571      2.36633      4.00246         0.058356      0.110259      0.163921
      9.60420     10.56206      7.06226        -0.250372     -0.181538      0.340160
     11.19576      8.02729      9.65793         0.189892      0.060375      0.180272
     11.57181     12.49399      9.58022         0.062354      0.065562      0.120380
      1.00111      4.62596      1.33526        -0.588109     -0.540769      0.267619
      0.94753      8.73684      1.30966         0.152030     -0.071591     -0.195103
      5.15916      0.42893      1.32161         0.029255     -0.285475     -0.051853
      5.21673      4.42777      1.36650         0.057668     -0.165228     -0.915338
      9.43737      0.22849      1.33638        -0.035732     -0.100326      0.409825
      9.14263      4.81724      1.37509         0.627471     -0.205617      0.233378
      4.95499      8.74821      1.36783         0.212230      0.463719     -0.208422
      3.24631      4.20640      9.62121         0.375688      0.250925     -0.385826
      2.73411      8.11085      9.65475         0.346561     -0.614757     -0.720706
      2.91555     12.30626      9.83668         0.020025      0.152870      0.118011
      7.11455      4.02825      9.69457        -0.077111      0.037952     -0.404521
      7.51292      8.31323      9.53926        -0.905550      0.554182      0.760436
      6.82522     12.17687      9.65802         0.132623      0.054857     -0.402810
     10.99680      3.81628      9.60557         0.216778      0.773474      0.312603
      9.36551      8.71803      1.45759        -0.094973     -0.058725      0.539447
     11.23366      0.19695      7.08746        -0.054599     -0.609524      0.074398
      3.02308      4.26673      7.05873        -0.927468      0.046380      0.210000
      2.92650      8.40722      6.97666        -0.301977      0.118095      0.604523
      6.95951      0.05147      7.02513         0.161641     -0.016928      0.530163
      7.23300      4.39192      7.09435        -0.293921      0.214263      0.086312
      6.85621      8.62317      7.14566         0.042901     -0.123255     -0.597338
     10.99648      4.41051      7.03748         0.067147     -0.740736      0.007485
      9.15410      0.16489      3.89160        -0.305932     -0.072817     -0.032706
      0.95207     12.47445      4.07936        -0.060852      0.054929     -0.040766
      0.60638      4.45133      4.02080         0.083003      0.070397     -0.373496
      1.06162      8.46204      3.79589        -0.600756     -0.008402      0.445715
      4.80774      0.28229      3.81756        -0.250516      0.176905      0.327307
      5.19251      4.27447      3.77259        -0.682227     -0.020180      1.090560
      4.91182      8.26824      3.81960         0.183775     -0.180355      0.350115
      2.71560      0.37922      7.34030         0.463668     -0.230073     -0.431504
     11.29293      8.45920      7.19250         0.362652      0.825231     -0.422663
     11.16500     10.56036      1.51939         0.278909     -0.003304      0.291053
      2.58594      2.48691      1.55032         0.232250     -0.297637     -0.022807
     11.17767      2.04279      1.77623         0.440085      0.169034     -0.094629
      9.13986      4.35262      3.97724         0.270592     -0.147065     -0.525086
      0.54238      2.26524      9.52009         0.164121     -0.205481     -0.052780
      0.62092      6.20125      9.51650         0.320054      0.440872      0.105495
      1.00221     10.59098      9.44161        -0.415314      0.107592     -0.115666
      5.11246      2.30943      9.52776        -0.025379      0.110627     -0.371063
      4.94201      6.35122      9.52026        -0.507900      0.058738     -0.518242
      4.74999     10.53919      9.47563         0.258095      0.006499     -0.389848
      9.04684      2.25274      9.65710        -0.220165     -0.809882     -0.634554
      9.16050      6.58651      9.05180         0.360777     -0.673026      0.449271
      8.89504     10.56062      9.68036         0.437510      0.047393     -0.662498
      2.76032      6.33835      1.35170         0.536891      0.389390      0.304473
      2.90183     10.49723      1.34484        -0.031305     -0.086157      0.844956
      6.91399      2.30504      1.47715         0.456478     -0.086111     -0.139774
      7.08238      6.24502      1.32495        -0.097959      0.608313      0.662780
      6.72669     10.77121      1.73046         0.041705     -0.249316     -0.619604
     11.10969      6.73670      1.64117        -0.484347     -0.417627      0.086332
      8.84531      8.62363      4.13040         0.265146      0.171563     -0.809177
 -----------------------------------------------------------------------------------
    total drift:                                0.001297     -0.001483      0.000180


--------------------------------------------------------------------------------------------------------



  FREE ENERGIE OF THE ION-ELECTRON SYSTEM (eV)
  ---------------------------------------------------
  free  energy   TOTEN  =      -300.49238547 eV

  energy  without entropy=     -300.49238547  energy(sigma->0) =     -300.49238547
 


--------------------------------------------------------------------------------------------------------


    POTLOK:  cpu time      0.7291: real time      0.7318


--------------------------------------------------------------------------------------------------------


     LOOP+:  cpu time    179.8815: real time    180.8070
    4ORBIT:  cpu time      0.0000: real time      0.0000



 total charge

# of ion       s       p       d       tot
------------------------------------------
    1        1.314   0.778   0.055   2.147
    2        1.326   0.732   0.051   2.110
    3        1.325   0.771   0.056   2.153
    4        1.318   0.748   0.054   2.120
    5        1.318   0.785   0.055   2.159
    6        1.332   0.713   0.049   2.095
    7        1.315   0.759   0.052   2.126
    8        1.323   0.747   0.049   2.119
    9        1.313   0.774   0.055   2.143
   10        1.319   0.775   0.057   2.152
   11        1.313   0.768   0.051   2.131
   12        1.322   0.756   0.051   2.130
   13        1.316   0.756   0.049   2.121
   14        1.322   0.744   0.053   2.119
   15        1.328   0.745   0.050   2.123
   16        1.321   0.775   0.065   2.161
   17        1.333   0.751   0.053   2.136
   18        1.318   0.775   0.052   2.146
   19        1.337   0.713   0.044   2.093
   20        1.306   0.815   0.062   2.182
   21        1.322   0.762   0.052   2.136
   22        1.329   0.767   0.058   2.153
   23        1.323   0.759   0.059   2.141
   24        1.316   0.778   0.060   2.154
   25        1.316   0.811   0.068   2.196
   26        1.328   0.748   0.054   2.130
   27        1.318   0.767   0.052   2.137
   28        1.326   0.754   0.054   2.134
   29        1.322   0.751   0.051   2.124
   30        1.337   0.686   0.043   2.066
   31        1.317   0.790   0.062   2.168
   32        1.321   0.759   0.055   2.135
   33        1.310   0.844   0.067   2.221
   34        1.321   0.754   0.052   2.126
   35        1.315   0.814   0.062   2.191
   36        1.323   0.750   0.051   2.124
   37        1.482   2.302   0.036   3.819
   38        1.481   2.264   0.026   3.771
   39        1.479   2.276   0.027   3.782
   40        1.480   2.273   0.027   3.781
   41        1.477   2.288   0.028   3.793
   42        1.474   2.314   0.032   3.821
   43        1.474   2.321   0.037   3.831
   44        1.476   2.291   0.026   3.793
   45        1.477   2.298   0.033   3.808
   46        1.477   2.292   0.029   3.799
   47        1.478   2.288   0.032   3.798
   48        1.478   2.306   0.033   3.816
   49        1.477   2.322   0.041   3.840
   50        1.475   2.309   0.032   3.816
   51        1.473   2.313   0.031   3.817
   52        1.479   2.290   0.031   3.800
   53        1.476   2.290   0.031   3.797
   54        1.476   2.301   0.031   3.809
   55        1.474   2.307   0.029   3.811
   56        1.477   2.289   0.030   3.797
   57        1.478   2.300   0.031   3.809
   58        1.479   2.287   0.031   3.797
   59        1.478   2.299   0.033   3.809
   60        1.477   2.290   0.030   3.797
   61        1.480   2.256   0.025   3.761
   62        1.476   2.299   0.032   3.806
   63        1.478   2.301   0.033   3.812
   64        1.476   2.343   0.039   3.858
   65        1.481   2.274   0.029   3.784
   66        1.477   2.308   0.033   3.818
   67        1.480   2.279   0.030   3.789
   68        1.475   2.309   0.033   3.818
   69        1.481   2.291   0.033   3.805
   70        1.473   2.303   0.028   3.803
   71        1.477   2.289   0.030   3.797
   72        1.480   2.276   0.028   3.785
--------------------------------------------------
tot        100.749 110.116   3.083 213.947



 magnetization (x)

# of ion       s       p       d       tot
------------------------------------------
    1       -0.000   0.000   0.000   0.000
    2       -0.000   0.000   0.000   0.000
    3       -0.000   0.000  -0.000   0.000
    4       -0.000   0.000  -0.000  -0.000
    5       -0.000   0.000   0.000   0.000
    6       -0.000   0.000   0.000   0.000
    7       -0.000   0.000   0.000   0.000
    8       -0.000   0.000   0.000   0.000
    9       -0.000   0.000   0.000   0.000
   10       -0.000   0.000   0.000   0.000
   11       -0.000   0.000   0.000   0.000
   12       -0.000   0.000  -0.000  -0.000
   13       -0.000  -0.000  -0.000  -0.000
   14       -0.000   0.000  -0.000   0.000
   15       -0.000   0.000   0.000   0.000
   16       -0.000   0.000   0.000   0.000
   17       -0.000   0.000  -0.000   0.000
   18       -0.000   0.000   0.000   0.000
   19       -0.000   0.000   0.000   0.000
   20       -0.000   0.000   0.000   0.000
   21       -0.000   0.000   0.000   0.000
   22       -0.000   0.000  -0.000   0.000
   23       -0.000   0.000   0.000   0.000
   24       -0.000   0.000  -0.000  -0.000
   25       -0.000  -0.000  -0.000  -0.000
   26       -0.000   0.000   0.000   0.000
   27       -0.000   0.000  -0.000  -0.000
   28       -0.000  -0.000  -0.000  -0.000
   29       -0.000   0.000  -0.000  -0.000
   30       -0.000   0.000   0.000  -0.000
   31       -0.000   0.000  -0.000   0.000
   32       -0.000  -0.000  -0.000  -0.000
   33       -0.000  -0.000  -0.000  -0.000
   34       -0.000  -0.000  -0.000  -0.000
   35       -0.000   0.000   0.000   0.000
   36       -0.000   0.000   0.000  -0.000
   37       -0.000  -0.000   0.000  -0.000
   38       -0.000  -0.000   0.000  -0.000
   39       -0.000  -0.000   0.000  -0.000
   40       -0.000  -0.000   0.000  -0.000
   41       -0.000  -0.000   0.000  -0.000
   42       -0.000  -0.000  -0.000  -0.000
   43       -0.000  -0.000   0.000  -0.000
   44       -0.000  -0.000   0.000  -0.000
   45       -0.000  -0.000   0.000  -0.000
   46       -0.000  -0.000   0.000  -0.000
   47       -0.000  -0.000   0.000  -0.000
   48       -0.000  -0.000   0.000  -0.000
   49        0.000  -0.000  -0.000  -0.000
   50       -0.000  -0.000  -0.000  -0.000
   51       -0.000  -0.000   0.000  -0.000
   52       -0.000  -0.000   0.000  -0.000
   53       -0.000  -0.000   0.000  -0.000
   54       -0.000  -0.000   0.000  -0.000
   55       -0.000  -0.000   0.000  -0.000
   56       -0.000  -0.000   0.000  -0.000
   57       -0.000  -0.000   0.000  -0.000
   58       -0.000  -0.000   0.000  -0.000
   59       -0.000  -0.000   0.000  -0.000
   60       -0.000  -0.000  -0.000  -0.000
   61       -0.000  -0.000  -0.000  -0.000
   62       -0.000  -0.000  -0.000  -0.000
   63       -0.000  -0.000   0.000  -0.000
   64       -0.000  -0.000   0.000  -0.000
   65       -0.000  -0.000   0.000  -0.000
   66       -0.000  -0.000  -0.000  -0.000
   67       -0.000  -0.000   0.000  -0.000
   68       -0.000  -0.000  -0.000  -0.000
   69       -0.000  -0.000  -0.000  -0.000
   70       -0.000  -0.000  -0.000  -0.000
   71       -0.000  -0.000   0.000  -0.000
   72       -0.000  -0.000   0.000  -0.000
--------------------------------------------------
tot         -0.000  -0.000   0.000  -0.000
 

 total amount of memory used by VASP MPI-rank0   111164. kBytes
=======================================================================

   base      :      30000. kBytes
   nonl-proj :      16467. kBytes
   fftplans  :       6180. kBytes
   grid      :      15593. kBytes
   one-center:        146. kBytes
   wavefun   :      42778. kBytes
 
  
  
 General timing and accounting informations for this job:
 ========================================================
  
                  Total CPU time used (sec):      191.397
                            User time (sec):      185.913
                          System time (sec):        5.484
                         Elapsed time (sec):      194.520
  
                   Maximum memory used (kb):      318596.
                   Average memory used (kb):          N/A
  
                          Minor page faults:       100240
                          Major page faults:           41
                 Voluntary context switches:        13828
