 vasp.6.4.2 20Jul23 (build Oct 12 2023 10:31:02) complex                         
 executed on              LinuxNV date 2025.05.28  12:26:16
 running  128 mpi-ranks, with    1 threads/rank, on    2 nodes
 distrk:  each k-point on   64 cores,    2 groups
 distr:  one band on NCORE=   4 cores,   16 groups


--------------------------------------------------------------------------------------------------------


 INCAR:
   ENCUT = 360.000000
   SIGMA = 0.050000
   EDIFF = 1.00e-06
   ALGO = Normal
   GGA = PE
   PREC = Normal
   SYSTEM = ./
   ICHARG = 2
   ISMEAR = 0
   ISPIN = 1
   ISTART = 0
   ISYM = 0
   KPAR = 2
   LMAXMIX = 4
   NELM = 100
   NPAR = 16
   LASPH = .TRUE.
   LCHARG = .FALSE.
   LWAVE = .FALSE.

 POTCAR:    PAW_PBE Ge 05Jan2001                  
 POTCAR:    PAW_PBE Se 06Sep2000                  
 POTCAR:    PAW_PBE Ge 05Jan2001                  
   VRHFIN =Ge: s2p2                                                                                 
   LEXCH  = PE                                                                                      
   EATOM  =   104.9960 eV,    7.7170 Ry                                                             
                                                                                                    
   TITEL  = PAW_PBE Ge 05Jan2001                                                                    
   LULTRA =        F    use ultrasoft PP ?                                                          
   IUNSCR =        1    unscreen: 0-lin 1-nonlin 2-no                                               
   RPACOR =    2.170    partial core radius                                                         
   POMASS =   72.610; ZVAL   =    4.000    mass and valenz                                          
   RCORE  =    2.300    outmost cutoff radius                                                       
   RWIGS  =    2.300; RWIGS  =    1.217    wigner-seitz radius (au A)                               
   ENMAX  =  173.807; ENMIN  =  130.355 eV                                                          
   ICORE  =        3    local potential                                                             
   LCOR   =        T    correct aug charges                                                         
   LPAW   =        T    paw PP                                                                      
   EAUG   =  385.843                                                                                
   DEXC   =    0.000                                                                                
   RMAX   =    2.342    core radius for proj-oper                                                   
   RAUG   =    1.300    factor for augmentation sphere                                              
   RDEP   =    2.318    radius for radial grids                                                     
   RDEPT  =    2.103    core radius for aug-charge                                                  
                                                                                                    
   Atomic configuration                                                                             
   10 entries                                                                                       
     n  l   j            E        occ.                                                              
     1  0  0.50    -10959.8463   2.0000                                                             
     2  0  0.50     -1371.6056   2.0000                                                             
     2  1  1.50     -1198.4791   6.0000                                                             
     3  0  0.50      -168.4733   2.0000                                                             
     3  1  1.50      -115.6019   6.0000                                                             
     3  2  2.50       -29.3106  10.0000                                                             
     4  0  0.50       -11.7309   2.0000                                                             
     4  1  0.50        -3.8952   2.0000                                                             
     4  2  1.50        -4.0817   0.0000                                                             
     4  3  2.50        -4.0817   0.0000                                                             
   Description                                                                                      
     l       E           TYP  RCUT    TYP  RCUT                                                     
     0    -11.7309493     23  2.300                                                                 
     0     -7.4578696     23  2.300                                                                 
     1     -3.8952261     23  2.300                                                                 
     1      6.1178114     23  2.300                                                                 
     2     -4.0817478     23  2.300                                                                 
     3     -1.3605826      7  2.300                                                                 
  local pseudopotential read in
  partial core-charges read in
  partial kinetic energy density read in
  atomic valenz-charges read in
  non local Contribution for L=            0  read in
    real space projection operators read in
  non local Contribution for L=            0  read in
    real space projection operators read in
  non local Contribution for L=            1  read in
    real space projection operators read in
  non local Contribution for L=            1  read in
    real space projection operators read in
  non local Contribution for L=            2  read in
    real space projection operators read in
    PAW grid and wavefunctions read in
 
   number of l-projection  operators is LMAX  =            5
   number of lm-projection operators is LMMAX =           13
 
 POTCAR:    PAW_PBE Se 06Sep2000                  
   VRHFIN =Se: s2p4                                                                                 
   LEXCH  = PE                                                                                      
   EATOM  =   257.1286 eV,   18.8984 Ry                                                             
                                                                                                    
   TITEL  = PAW_PBE Se 06Sep2000                                                                    
   LULTRA =        F    use ultrasoft PP ?                                                          
   IUNSCR =        1    unscreen: 0-lin 1-nonlin 2-no                                               
   RPACOR =    1.900    partial core radius                                                         
   POMASS =   78.960; ZVAL   =    6.000    mass and valenz                                          
   RCORE  =    2.100    outmost cutoff radius                                                       
   RWIGS  =    2.200; RWIGS  =    1.164    wigner-seitz radius (au A)                               
   ENMAX  =  211.555; ENMIN  =  158.666 eV                                                          
   ICORE  =        3    local potential                                                             
   LCOR   =        T    correct aug charges                                                         
   LPAW   =        T    paw PP                                                                      
   EAUG   =  446.842                                                                                
   DEXC   =    0.000                                                                                
   RMAX   =    2.147    core radius for proj-oper                                                   
   RAUG   =    1.300    factor for augmentation sphere                                              
   RDEP   =    2.177    radius for radial grids                                                     
   RDEPT  =    1.928    core radius for aug-charge                                                  
                                                                                                    
   Atomic configuration                                                                             
   10 entries                                                                                       
     n  l   j            E        occ.                                                              
     1  0  0.50    -12503.4787   2.0000                                                             
     2  0  0.50     -1606.9547   2.0000                                                             
     2  1  1.50     -1413.3140   6.0000                                                             
     3  0  0.50      -213.4885   2.0000                                                             
     3  1  1.50      -152.9538   6.0000                                                             
     3  2  2.50       -53.1221  10.0000                                                             
     4  0  0.50       -17.2865   2.0000                                                             
     4  1  0.50        -6.5110   4.0000                                                             
     4  2  2.50        -6.8029   0.0000                                                             
     4  3  2.50        -6.8029   0.0000                                                             
   Description                                                                                      
     l       E           TYP  RCUT    TYP  RCUT                                                     
     0    -17.2865377     23  2.100                                                                 
     0    -15.3094411     23  2.100                                                                 
     1     -6.5110275     23  2.100                                                                 
     1     -0.0695192     23  2.100                                                                 
     2     -6.8029130     23  2.100                                                                 
     3     -1.3605826      7  2.100                                                                 
  local pseudopotential read in
  partial core-charges read in
  partial kinetic energy density read in
  atomic valenz-charges read in
  non local Contribution for L=            0  read in
    real space projection operators read in
  non local Contribution for L=            0  read in
    real space projection operators read in
  non local Contribution for L=            1  read in
    real space projection operators read in
  non local Contribution for L=            1  read in
    real space projection operators read in
  non local Contribution for L=            2  read in
    real space projection operators read in
    PAW grid and wavefunctions read in
 
   number of l-projection  operators is LMAX  =            5
   number of lm-projection operators is LMMAX =           13
 
  PAW_PBE Ge 05Jan2001                  :
 energy of atom  1       EATOM= -104.9960
 kinetic energy error for atom=    0.0005 (will be added to EATOM!!)
  PAW_PBE Se 06Sep2000                  :
 energy of atom  2       EATOM= -257.1286
 kinetic energy error for atom=    0.0030 (will be added to EATOM!!)
 
 
 POSCAR: Ge Se
  positions in cartesian coordinates
  No initial velocities read in
 exchange correlation table for  LEXCH =        8
   RHO(1)=    0.500       N(1)  =     2000
   RHO(2)=  100.500       N(2)  =     4000
 


--------------------------------------------------------------------------------------------------------


 ion  position               nearest neighbor table
   1  0.000  0.250  0.141-   5 2.48
   2  0.500  0.750  0.359-   6 2.48
   3  0.000  0.750  0.859-   7 2.48
   4  0.500  0.250  0.641-   8 2.48
   5  0.000  0.250  0.364-   1 2.48
   6  0.500  0.750  0.136-   2 2.48
   7  0.000  0.750  0.636-   3 2.48
   8  0.500  0.250  0.864-   4 2.48
 

IMPORTANT INFORMATION: All symmetrisations will be switched off!
NOSYMM: (Re-)initialisation of all symmetry stuff for point group C_1.


----------------------------------------------------------------------------------------

                                     Primitive cell                                     

  volume of cell :     206.0197

  direct lattice vectors                    reciprocal lattice vectors
     4.300000000  0.000000000  0.000000000     0.232558140  0.000000000  0.000000000
     0.000000000  4.300000000  0.000000000     0.000000000  0.232558140  0.000000000
     0.000000000  0.000000000 11.142221000     0.000000000  0.000000000  0.089748713

  length of vectors
     4.300000000  4.300000000 11.142221000     0.232558140  0.232558140  0.089748713

  position of ions in fractional coordinates (direct lattice)
     0.000000000  0.250000000  0.140990969
     0.500000000  0.750000000  0.359009031
     0.000000000  0.750000000  0.859009031
     0.500000000  0.250000000  0.640990969
     0.000000000  0.250000000  0.363679309
     0.500000000  0.750000000  0.136320691
     0.000000000  0.750000000  0.636320691
     0.500000000  0.250000000  0.863679309

  ion indices of the primitive-cell ions
   primitive index   ion index
                 1           1
                 2           2
                 3           3
                 4           4
                 5           5
                 6           6
                 7           7
                 8           8

----------------------------------------------------------------------------------------

 
 
 KPOINTS: KPOINTS created by Atomic Simulation Env

Automatic generation of k-mesh.
 Grid dimensions read from file:
 generate k-points for:    6    6    2

 Generating k-lattice:

  Cartesian coordinates                     Fractional coordinates (reciprocal lattice)
     0.038759690  0.000000000  0.000000000     0.166666667  0.000000000  0.000000000
     0.000000000  0.038759690  0.000000000     0.000000000  0.166666667  0.000000000
     0.000000000  0.000000000  0.044874357     0.000000000  0.000000000  0.500000000

  Length of vectors
     0.038759690  0.038759690  0.044874357

  Shift w.r.t. Gamma in fractional coordinates (k-lattice)
     0.000000000  0.000000000  0.000000000

 
 Subroutine IBZKPT returns following result:
 ===========================================
 
 Found     40 irreducible k-points:
 
 Following reciprocal coordinates:
            Coordinates               Weight
  0.000000  0.000000  0.000000      1.000000
  0.166667  0.000000  0.000000      2.000000
  0.000000  0.166667  0.000000      2.000000
  0.333333  0.000000  0.000000      2.000000
  0.000000  0.333333  0.000000      2.000000
  0.500000  0.000000  0.000000      1.000000
  0.000000  0.500000  0.000000      1.000000
  0.166667  0.166667  0.000000      2.000000
 -0.166667  0.166667  0.000000      2.000000
  0.333333  0.166667  0.000000      2.000000
 -0.166667  0.333333  0.000000      2.000000
 -0.333333  0.166667  0.000000      2.000000
  0.166667  0.333333  0.000000      2.000000
  0.500000  0.166667  0.000000      2.000000
 -0.166667  0.500000  0.000000      2.000000
  0.333333  0.333333  0.000000      2.000000
 -0.333333  0.333333  0.000000      2.000000
  0.500000  0.333333  0.000000      2.000000
 -0.333333  0.500000  0.000000      2.000000
  0.500000  0.500000  0.000000      1.000000
  0.000000  0.000000  0.500000      1.000000
  0.166667  0.000000  0.500000      2.000000
  0.000000  0.166667  0.500000      2.000000
  0.333333  0.000000  0.500000      2.000000
  0.000000  0.333333  0.500000      2.000000
  0.500000  0.000000  0.500000      1.000000
  0.000000  0.500000  0.500000      1.000000
  0.166667  0.166667  0.500000      2.000000
 -0.166667  0.166667  0.500000      2.000000
  0.333333  0.166667  0.500000      2.000000
 -0.166667  0.333333  0.500000      2.000000
 -0.333333  0.166667  0.500000      2.000000
  0.166667  0.333333  0.500000      2.000000
  0.500000  0.166667  0.500000      2.000000
 -0.166667  0.500000  0.500000      2.000000
  0.333333  0.333333  0.500000      2.000000
 -0.333333  0.333333  0.500000      2.000000
  0.500000  0.333333  0.500000      2.000000
 -0.333333  0.500000  0.500000      2.000000
  0.500000  0.500000  0.500000      1.000000
 
 Following cartesian coordinates:
            Coordinates               Weight
  0.000000  0.000000  0.000000      1.000000
  0.038760  0.000000  0.000000      2.000000
  0.000000  0.038760  0.000000      2.000000
  0.077519  0.000000  0.000000      2.000000
  0.000000  0.077519  0.000000      2.000000
  0.116279  0.000000  0.000000      1.000000
  0.000000  0.116279  0.000000      1.000000
  0.038760  0.038760  0.000000      2.000000
 -0.038760  0.038760  0.000000      2.000000
  0.077519  0.038760  0.000000      2.000000
 -0.038760  0.077519  0.000000      2.000000
 -0.077519  0.038760  0.000000      2.000000
  0.038760  0.077519  0.000000      2.000000
  0.116279  0.038760  0.000000      2.000000
 -0.038760  0.116279  0.000000      2.000000
  0.077519  0.077519  0.000000      2.000000
 -0.077519  0.077519  0.000000      2.000000
  0.116279  0.077519  0.000000      2.000000
 -0.077519  0.116279  0.000000      2.000000
  0.116279  0.116279  0.000000      1.000000
  0.000000  0.000000  0.044874      1.000000
  0.038760  0.000000  0.044874      2.000000
  0.000000  0.038760  0.044874      2.000000
  0.077519  0.000000  0.044874      2.000000
  0.000000  0.077519  0.044874      2.000000
  0.116279  0.000000  0.044874      1.000000
  0.000000  0.116279  0.044874      1.000000
  0.038760  0.038760  0.044874      2.000000
 -0.038760  0.038760  0.044874      2.000000
  0.077519  0.038760  0.044874      2.000000
 -0.038760  0.077519  0.044874      2.000000
 -0.077519  0.038760  0.044874      2.000000
  0.038760  0.077519  0.044874      2.000000
  0.116279  0.038760  0.044874      2.000000
 -0.038760  0.116279  0.044874      2.000000
  0.077519  0.077519  0.044874      2.000000
 -0.077519  0.077519  0.044874      2.000000
  0.116279  0.077519  0.044874      2.000000
 -0.077519  0.116279  0.044874      2.000000
  0.116279  0.116279  0.044874      1.000000
 


--------------------------------------------------------------------------------------------------------




 Dimension of arrays:
   k-points           NKPTS =     40   k-points in BZ     NKDIM =     40   number of bands    NBANDS=     32
   number of dos      NEDOS =    301   number of ions     NIONS =      8
   non local maximal  LDIM  =      5   non local SUM 2l+1 LMDIM =     13
   total plane-waves  NPLWV =  21600
   max r-space proj   IRMAX =      1   max aug-charges    IRDMAX=   5897
   dimension x,y,z NGX =    20 NGY =   20 NGZ =   54
   dimension x,y,z NGXF=    40 NGYF=   40 NGZF=  108
   support grid    NGXF=    40 NGYF=   40 NGZF=  108
   ions per type =               4   4
   NGX,Y,Z   is equivalent  to a cutoff of   7.73,  7.73,  8.06 a.u.
   NGXF,Y,Z  is equivalent  to a cutoff of  15.46, 15.46, 16.11 a.u.

 SYSTEM =  ./                                      
 POSCAR =  Ge Se                                   

 Startparameter for this run:
   NWRITE =      2    write-flag & timer
   PREC   = normal    normal or accurate (medium, high low for compatibility)
   ISTART =      0    job   : 0-new  1-cont  2-samecut
   ICHARG =      2    charge: 1-file 2-atom 10-const
   ISPIN  =      1    spin polarized calculation?
   LNONCOLLINEAR =      F non collinear calculations
   LSORBIT =      F    spin-orbit coupling
   INIWAV =      1    electr: 0-lowe 1-rand  2-diag
   LASPH  =      T    aspherical Exc in radial PAW
 Electronic Relaxation 1
   ENCUT  =  360.0 eV  26.46 Ry    5.14 a.u.   6.65  6.65 17.24*2*pi/ulx,y,z
   ENINI  =  360.0     initial cutoff
   ENAUG  =  446.8 eV  augmentation charge cutoff
   NELM   =    100;   NELMIN=  2; NELMDL= -5     # of ELM steps 
   EDIFF  = 0.1E-05   stopping-criterion for ELM
   LREAL  =      F    real-space projection
   NLSPLINE    = F    spline interpolate recip. space projectors
   LCOMPAT=      F    compatible to vasp.4.4
   GGA_COMPAT  = T    GGA compatible to vasp.4.4-vasp.4.6
   LMAXPAW     = -100 max onsite density
   LMAXMIX     =    4 max onsite mixed and CHGCAR
   VOSKOWN=      0    Vosko Wilk Nusair interpolation
   ROPT   =    0.00000   0.00000
 Ionic relaxation
   EDIFFG = 0.1E-04   stopping-criterion for IOM
   NSW    =      0    number of steps for IOM
   NBLOCK =      1;   KBLOCK =      1    inner block; outer block 
   IBRION =     -1    ionic relax: 0-MD 1-quasi-New 2-CG
   NFREE  =      0    steps in history (QN), initial steepest desc. (CG)
   ISIF   =      2    stress and relaxation
   IWAVPR =     10    prediction:  0-non 1-charg 2-wave 3-comb
   ISYM   =      0    0-nonsym 1-usesym 2-fastsym
   LCORR  =      T    Harris-Foulkes like correction to forces

   POTIM  = 0.5000    time-step for ionic-motion
   TEIN   =    0.0    initial temperature
   TEBEG  =    0.0;   TEEND  =   0.0 temperature during run
   SMASS  =  -3.00    Nose mass-parameter (am)
   estimated Nose-frequenzy (Omega)   =  0.10E-29 period in steps = 0.13E+47 mass=  -0.423E-27a.u.
   SCALEE = 1.0000    scale energy and forces
   NPACO  =    256;   APACO  = 10.0  distance and # of slots for P.C.
   PSTRESS=    0.0 pullay stress

  Mass of Ions in am
   POMASS =  72.61 78.96
  Ionic Valenz
   ZVAL   =   4.00  6.00
  Atomic Wigner-Seitz radii
   RWIGS  =  -1.00 -1.00
  virtual crystal weights 
   VCA    =   1.00  1.00
   NELECT =      40.0000    total number of electrons
   NUPDOWN=      -1.0000    fix difference up-down

 DOS related values:
   EMIN   =  10.00;   EMAX   =-10.00  energy-range for DOS
   EFERMI =   0.00;   METHOD = LEGACY      
   ISMEAR =     0;   SIGMA  =   0.05  broadening in eV -4-tet -1-fermi 0-gaus

 Electronic relaxation 2 (details)
   IALGO  =     38    algorithm
   LDIAG  =      T    sub-space diagonalisation (order eigenvalues)
   LSUBROT=      F    optimize rotation matrix (better conditioning)
   TURBO    =      0    0=normal 1=particle mesh
   IRESTART =      0    0=no restart 2=restart with 2 vectors
   NREBOOT  =      0    no. of reboots
   NMIN     =      0    reboot dimension
   EREF     =   0.00    reference energy to select bands
   IMIX   =      4    mixing-type and parameters
     AMIX     =   0.40;   BMIX     =  1.00
     AMIX_MAG =   1.60;   BMIX_MAG =  1.00
     AMIN     =   0.10
     WC   =   100.;   INIMIX=   1;  MIXPRE=   1;  MAXMIX= -45

 Intra band minimization:
   WEIMIN = 0.0000     energy-eigenvalue tresh-hold
   EBREAK =  0.78E-08  absolut break condition
   DEPER  =   0.30     relativ break condition  

   TIME   =   0.40     timestep for ELM

  volume/ion in A,a.u.               =      25.75       173.79
  Fermi-wavevector in a.u.,A,eV,Ry     =   0.947964  1.791393 12.226687  0.898636
  Thomas-Fermi vector in A             =   2.076108
 
 Write flags
   LWAVE        =      F    write WAVECAR
   LDOWNSAMPLE  =      F    k-point downsampling of WAVECAR
   LCHARG       =      F    write CHGCAR
   LVTOT        =      F    write LOCPOT, total local potential
   LVHAR        =      F    write LOCPOT, Hartree potential only
   LELF         =      F    write electronic localiz. function (ELF)
   LORBIT       =      0    0 simple, 1 ext, 2 COOP (PROOUT), +10 PAW based schemes


 Dipole corrections
   LMONO  =      F    monopole corrections only (constant potential shift)
   LDIPOL =      F    correct potential (dipole corrections)
   IDIPOL =      0    1-x, 2-y, 3-z, 4-all directions 
   EPSILON=  1.0000000 bulk dielectric constant

 Exchange correlation treatment:
   GGA     =    PE    GGA type
   LEXCH   =     8    internal setting for exchange type
   LIBXC   =     F    Libxc                    
   VOSKOWN =     0    Vosko Wilk Nusair interpolation
   LHFCALC =     F    Hartree Fock is set to
   LHFONE  =     F    Hartree Fock one center treatment
   AEXX    =    0.0000 exact exchange contribution

 Linear response parameters
   LEPSILON=     F    determine dielectric tensor
   LRPA    =     F    only Hartree local field effects (RPA)
   LNABLA  =     F    use nabla operator in PAW spheres
   LVEL    =     F    velocity operator in full k-point grid
   CSHIFT  =0.1000    complex shift for real part using Kramers Kronig
   OMEGAMAX=  -1.0    maximum frequency
   DEG_THRESHOLD= 0.2000000E-02 threshold for treating states as degnerate
   RTIME   =   -0.100 relaxation time in fs
  (WPLASMAI=    0.000 imaginary part of plasma frequency in eV, 0.658/RTIME)
   DFIELD  = 0.0000000 0.0000000 0.0000000 field for delta impulse in time
 
  Optional k-point grid parameters
   LKPOINTS_OPT  =     F    use optional k-point grid
   KPOINTS_OPT_MODE=     1    mode for optional k-point grid
 
 Orbital magnetization related:
   ORBITALMAG=     F  switch on orbital magnetization
   LCHIMAG   =     F  perturbation theory with respect to B field
   DQ        =  0.001000  dq finite difference perturbation B field
   LLRAUG    =     F  two centre corrections for induced B field
   LBONE     =     F  B-component reconstruction in AE one-centre
   LVGVCALC  =     T  calculate vGv susceptibility
   LVGVAPPL  =     F  apply vGv susceptibility instead of pGv for G=0

 Random number generation:
   RANDOM_GENERATOR = DEFAULT
   PCG_SEED         = not used


--------------------------------------------------------------------------------------------------------


 Static calculation
 charge density and potential will be updated during run
 non-spin polarized calculation
 Variant of blocked Davidson
 Davidson routine will perform the subspace rotation
 perform sub-space diagonalisation
    after iterative eigenvector-optimisation
 modified Broyden-mixing scheme, WC =      100.0
 initial mixing is a Kerker type mixing with AMIX =  0.4000 and BMIX =      1.0000
 Hartree-type preconditioning will be used
 using additional bands            12
 reciprocal scheme for non local part
 use partial core corrections
 calculate Harris-corrections to forces 
   (improved forces if not selfconsistent)
 use gradient corrections 
 use of overlap-Matrix (Vanderbilt PP)
 Gauss-broadening in eV      SIGMA  =   0.05


--------------------------------------------------------------------------------------------------------


  energy-cutoff  :      360.00
  volume of cell :      206.02
      direct lattice vectors                 reciprocal lattice vectors
     4.300000000  0.000000000  0.000000000     0.232558140  0.000000000  0.000000000
     0.000000000  4.300000000  0.000000000     0.000000000  0.232558140  0.000000000
     0.000000000  0.000000000 11.142221000     0.000000000  0.000000000  0.089748713

  length of vectors
     4.300000000  4.300000000 11.142221000     0.232558140  0.232558140  0.089748713


 
 k-points in units of 2pi/SCALE and weight: KPOINTS created by Atomic Simulation Env
   0.00000000  0.00000000  0.00000000       0.014
   0.03875969  0.00000000  0.00000000       0.028
   0.00000000  0.03875969  0.00000000       0.028
   0.07751938  0.00000000  0.00000000       0.028
   0.00000000  0.07751938  0.00000000       0.028
   0.11627907  0.00000000  0.00000000       0.014
   0.00000000  0.11627907  0.00000000       0.014
   0.03875969  0.03875969  0.00000000       0.028
  -0.03875969  0.03875969  0.00000000       0.028
   0.07751938  0.03875969  0.00000000       0.028
  -0.03875969  0.07751938  0.00000000       0.028
  -0.07751938  0.03875969  0.00000000       0.028
   0.03875969  0.07751938  0.00000000       0.028
   0.11627907  0.03875969  0.00000000       0.028
  -0.03875969  0.11627907  0.00000000       0.028
   0.07751938  0.07751938  0.00000000       0.028
  -0.07751938  0.07751938  0.00000000       0.028
   0.11627907  0.07751938  0.00000000       0.028
  -0.07751938  0.11627907  0.00000000       0.028
   0.11627907  0.11627907  0.00000000       0.014
   0.00000000  0.00000000  0.04487436       0.014
   0.03875969  0.00000000  0.04487436       0.028
   0.00000000  0.03875969  0.04487436       0.028
   0.07751938  0.00000000  0.04487436       0.028
   0.00000000  0.07751938  0.04487436       0.028
   0.11627907  0.00000000  0.04487436       0.014
   0.00000000  0.11627907  0.04487436       0.014
   0.03875969  0.03875969  0.04487436       0.028
  -0.03875969  0.03875969  0.04487436       0.028
   0.07751938  0.03875969  0.04487436       0.028
  -0.03875969  0.07751938  0.04487436       0.028
  -0.07751938  0.03875969  0.04487436       0.028
   0.03875969  0.07751938  0.04487436       0.028
   0.11627907  0.03875969  0.04487436       0.028
  -0.03875969  0.11627907  0.04487436       0.028
   0.07751938  0.07751938  0.04487436       0.028
  -0.07751938  0.07751938  0.04487436       0.028
   0.11627907  0.07751938  0.04487436       0.028
  -0.07751938  0.11627907  0.04487436       0.028
   0.11627907  0.11627907  0.04487436       0.014
 
 k-points in reciprocal lattice and weights: KPOINTS created by Atomic Simulation Env
   0.00000000  0.00000000  0.00000000       0.014
   0.16666667  0.00000000  0.00000000       0.028
   0.00000000  0.16666667  0.00000000       0.028
   0.33333333  0.00000000  0.00000000       0.028
   0.00000000  0.33333333  0.00000000       0.028
   0.50000000  0.00000000  0.00000000       0.014
   0.00000000  0.50000000  0.00000000       0.014
   0.16666667  0.16666667  0.00000000       0.028
  -0.16666667  0.16666667  0.00000000       0.028
   0.33333333  0.16666667  0.00000000       0.028
  -0.16666667  0.33333333  0.00000000       0.028
  -0.33333333  0.16666667  0.00000000       0.028
   0.16666667  0.33333333  0.00000000       0.028
   0.50000000  0.16666667  0.00000000       0.028
  -0.16666667  0.50000000  0.00000000       0.028
   0.33333333  0.33333333  0.00000000       0.028
  -0.33333333  0.33333333  0.00000000       0.028
   0.50000000  0.33333333  0.00000000       0.028
  -0.33333333  0.50000000  0.00000000       0.028
   0.50000000  0.50000000  0.00000000       0.014
   0.00000000  0.00000000  0.50000000       0.014
   0.16666667  0.00000000  0.50000000       0.028
   0.00000000  0.16666667  0.50000000       0.028
   0.33333333  0.00000000  0.50000000       0.028
   0.00000000  0.33333333  0.50000000       0.028
   0.50000000  0.00000000  0.50000000       0.014
   0.00000000  0.50000000  0.50000000       0.014
   0.16666667  0.16666667  0.50000000       0.028
  -0.16666667  0.16666667  0.50000000       0.028
   0.33333333  0.16666667  0.50000000       0.028
  -0.16666667  0.33333333  0.50000000       0.028
  -0.33333333  0.16666667  0.50000000       0.028
   0.16666667  0.33333333  0.50000000       0.028
   0.50000000  0.16666667  0.50000000       0.028
  -0.16666667  0.50000000  0.50000000       0.028
   0.33333333  0.33333333  0.50000000       0.028
  -0.33333333  0.33333333  0.50000000       0.028
   0.50000000  0.33333333  0.50000000       0.028
  -0.33333333  0.50000000  0.50000000       0.028
   0.50000000  0.50000000  0.50000000       0.014
 
 position of ions in fractional coordinates (direct lattice) 
   0.00000000  0.25000000  0.14099097
   0.50000000  0.75000000  0.35900903
   0.00000000  0.75000000  0.85900903
   0.50000000  0.25000000  0.64099097
   0.00000000  0.25000000  0.36367931
   0.50000000  0.75000000  0.13632069
   0.00000000  0.75000000  0.63632069
   0.50000000  0.25000000  0.86367931
 
 position of ions in cartesian coordinates  (Angst):
   0.00000000  1.07500000  1.57095253
   2.15000000  3.22500000  4.00015797
   0.00000000  3.22500000  9.57126847
   2.15000000  1.07500000  7.14206303
   0.00000000  1.07500000  4.05219524
   2.15000000  3.22500000  1.51891526
   0.00000000  3.22500000  7.09002576
   2.15000000  1.07500000  9.62330574
 


--------------------------------------------------------------------------------------------------------


 k-point   1 :   0.0000 0.0000 0.0000  plane waves:    3227
 k-point   2 :   0.1667 0.0000 0.0000  plane waves:    3205
 k-point   3 :   0.0000 0.1667 0.0000  plane waves:    3205
 k-point   4 :   0.3333 0.0000 0.0000  plane waves:    3187
 k-point   5 :   0.0000 0.3333 0.0000  plane waves:    3187
 k-point   6 :   0.5000 0.0000 0.0000  plane waves:    3186
 k-point   7 :   0.0000 0.5000 0.0000  plane waves:    3186
 k-point   8 :   0.1667 0.1667 0.0000  plane waves:    3223
 k-point   9 :  -0.1667 0.1667 0.0000  plane waves:    3223
 k-point  10 :   0.3333 0.1667 0.0000  plane waves:    3195
 k-point  11 :  -0.1667 0.3333 0.0000  plane waves:    3195
 k-point  12 :  -0.3333 0.1667 0.0000  plane waves:    3195
 k-point  13 :   0.1667 0.3333 0.0000  plane waves:    3195
 k-point  14 :   0.5000 0.1667 0.0000  plane waves:    3182
 k-point  15 :  -0.1667 0.5000 0.0000  plane waves:    3182
 k-point  16 :   0.3333 0.3333 0.0000  plane waves:    3178
 k-point  17 :  -0.3333 0.3333 0.0000  plane waves:    3178
 k-point  18 :   0.5000 0.3333 0.0000  plane waves:    3188
 k-point  19 :  -0.3333 0.5000 0.0000  plane waves:    3188
 k-point  20 :   0.5000 0.5000 0.0000  plane waves:    3188
 k-point  21 :   0.0000 0.0000 0.5000  plane waves:    3178
 k-point  22 :   0.1667 0.0000 0.5000  plane waves:    3222
 k-point  23 :   0.0000 0.1667 0.5000  plane waves:    3222
 k-point  24 :   0.3333 0.0000 0.5000  plane waves:    3196
 k-point  25 :   0.0000 0.3333 0.5000  plane waves:    3196
 k-point  26 :   0.5000 0.0000 0.5000  plane waves:    3184
 k-point  27 :   0.0000 0.5000 0.5000  plane waves:    3184
 k-point  28 :   0.1667 0.1667 0.5000  plane waves:    3194
 k-point  29 :  -0.1667 0.1667 0.5000  plane waves:    3194
 k-point  30 :   0.3333 0.1667 0.5000  plane waves:    3192
 k-point  31 :  -0.1667 0.3333 0.5000  plane waves:    3192
 k-point  32 :  -0.3333 0.1667 0.5000  plane waves:    3192
 k-point  33 :   0.1667 0.3333 0.5000  plane waves:    3192
 k-point  34 :   0.5000 0.1667 0.5000  plane waves:    3200
 k-point  35 :  -0.1667 0.5000 0.5000  plane waves:    3200
 k-point  36 :   0.3333 0.3333 0.5000  plane waves:    3208
 k-point  37 :  -0.3333 0.3333 0.5000  plane waves:    3208
 k-point  38 :   0.5000 0.3333 0.5000  plane waves:    3188
 k-point  39 :  -0.3333 0.5000 0.5000  plane waves:    3188
 k-point  40 :   0.5000 0.5000 0.5000  plane waves:    3192

 maximum and minimum number of plane-waves per node :       827      778

 maximum number of plane-waves:      3227
 maximum index in each direction: 
   IXMAX=    6   IYMAX=    6   IZMAX=   17
   IXMIN=   -7   IYMIN=   -7   IZMIN=  -17


 parallel 3D FFT for wavefunctions:
    minimum data exchange during FFTs selected (reduces bandwidth)
 parallel 3D FFT for charge:
    minimum data exchange during FFTs selected (reduces bandwidth)


 total amount of memory used by VASP MPI-rank0    38776. kBytes
=======================================================================

   base      :      30000. kBytes
   nonl-proj :       6893. kBytes
   fftplans  :        320. kBytes
   grid      :        462. kBytes
   one-center:         16. kBytes
   wavefun   :       1085. kBytes
 
     INWAV:  cpu time      0.0000: real time      0.0001
 Broyden mixing: mesh for mixing (old mesh)
   NGX = 13   NGY = 13   NGZ = 35
  (NGX  = 40   NGY  = 40   NGZ  =108)
  gives a total of   5915 points

 initial charge density was supplied:
 charge density of overlapping atoms calculated
 number of electron      40.0000000 magnetization 
 keeping initial charge density in first step


--------------------------------------------------------------------------------------------------------


 Maximum index for augmentation-charges           383 (set IRDMAX)


--------------------------------------------------------------------------------------------------------


 First call to EWALD:  gamma=   0.300
 Maximum number of real-space cells 4x 4x 2
 Maximum number of reciprocal cells 2x 2x 5

    FEWALD:  cpu time      0.0008: real time      0.0008


--------------------------------------- Ionic step        1  -------------------------------------------




--------------------------------------- Iteration      1(   1)  ---------------------------------------


    POTLOK:  cpu time      0.0067: real time      0.0072
    SETDIJ:  cpu time      0.1396: real time      0.1401
     EDDAV:  cpu time      0.2717: real time      0.2744
       DOS:  cpu time      0.0015: real time      0.0015
    --------------------------------------------
      LOOP:  cpu time      0.4196: real time      0.4232

 eigenvalue-minimisations  :  2560
 total energy-change (2. order) : 0.1296836E+03  (-0.1273254E+04)
 number of electron      40.0000000 magnetization 
 augmentation part       40.0000000 magnetization 

 Free energy of the ion-electron system (eV)
  ---------------------------------------------------
  alpha Z        PSCENC =        82.24673763
  Ewald energy   TEWEN  =     -1401.16283699
  -Hartree energ DENC   =      -127.76666873
  -exchange      EXHF   =         0.00000000
  -V(xc)+E(xc)   XCENC  =       -34.58230337
  PAW double counting   =      1193.78262552    -1080.73714043
  entropy T*S    EENTRO =        -0.00426408
  eigenvalues    EBANDS =        49.42287053
  atomic energy  EATOM  =      1448.48460880
  Solvation  Ediel_sol  =         0.00000000
  ---------------------------------------------------
  free energy    TOTEN  =       129.68362888 eV

  energy without entropy =      129.68789296  energy(sigma->0) =      129.68576092


--------------------------------------------------------------------------------------------------------




--------------------------------------- Iteration      1(   2)  ---------------------------------------


     EDDAV:  cpu time      0.3367: real time      0.3400
       DOS:  cpu time      0.0006: real time      0.0006
    --------------------------------------------
      LOOP:  cpu time      0.3372: real time      0.3405

 eigenvalue-minimisations  :  3776
 total energy-change (2. order) :-0.1547005E+03  (-0.1498093E+03)
 number of electron      40.0000000 magnetization 
 augmentation part       40.0000000 magnetization 

 Free energy of the ion-electron system (eV)
  ---------------------------------------------------
  alpha Z        PSCENC =        82.24673763
  Ewald energy   TEWEN  =     -1401.16283699
  -Hartree energ DENC   =      -127.76666873
  -exchange      EXHF   =         0.00000000
  -V(xc)+E(xc)   XCENC  =       -34.58230337
  PAW double counting   =      1193.78262552    -1080.73714043
  entropy T*S    EENTRO =        -0.00000000
  eigenvalues    EBANDS =      -105.28189713
  atomic energy  EATOM  =      1448.48460880
  Solvation  Ediel_sol  =         0.00000000
  ---------------------------------------------------
  free energy    TOTEN  =       -25.01687470 eV

  energy without entropy =      -25.01687470  energy(sigma->0) =      -25.01687470


--------------------------------------------------------------------------------------------------------




--------------------------------------- Iteration      1(   3)  ---------------------------------------


     EDDAV:  cpu time      0.3009: real time      0.3038
       DOS:  cpu time      0.0005: real time      0.0005
    --------------------------------------------
      LOOP:  cpu time      0.3014: real time      0.3044

 eigenvalue-minimisations  :  3200
 total energy-change (2. order) :-0.8709547E+01  (-0.8692391E+01)
 number of electron      40.0000000 magnetization 
 augmentation part       40.0000000 magnetization 

 Free energy of the ion-electron system (eV)
  ---------------------------------------------------
  alpha Z        PSCENC =        82.24673763
  Ewald energy   TEWEN  =     -1401.16283699
  -Hartree energ DENC   =      -127.76666873
  -exchange      EXHF   =         0.00000000
  -V(xc)+E(xc)   XCENC  =       -34.58230337
  PAW double counting   =      1193.78262552    -1080.73714043
  entropy T*S    EENTRO =        -0.00000000
  eigenvalues    EBANDS =      -113.99144367
  atomic energy  EATOM  =      1448.48460880
  Solvation  Ediel_sol  =         0.00000000
  ---------------------------------------------------
  free energy    TOTEN  =       -33.72642124 eV

  energy without entropy =      -33.72642124  energy(sigma->0) =      -33.72642124


--------------------------------------------------------------------------------------------------------




--------------------------------------- Iteration      1(   4)  ---------------------------------------


     EDDAV:  cpu time      0.2957: real time      0.2988
       DOS:  cpu time      0.0005: real time      0.0005
    --------------------------------------------
      LOOP:  cpu time      0.2962: real time      0.2993

 eigenvalue-minimisations  :  3216
 total energy-change (2. order) :-0.5677083E-01  (-0.5676575E-01)
 number of electron      40.0000000 magnetization 
 augmentation part       40.0000000 magnetization 

 Free energy of the ion-electron system (eV)
  ---------------------------------------------------
  alpha Z        PSCENC =        82.24673763
  Ewald energy   TEWEN  =     -1401.16283699
  -Hartree energ DENC   =      -127.76666873
  -exchange      EXHF   =         0.00000000
  -V(xc)+E(xc)   XCENC  =       -34.58230337
  PAW double counting   =      1193.78262552    -1080.73714043
  entropy T*S    EENTRO =        -0.00000000
  eigenvalues    EBANDS =      -114.04821450
  atomic energy  EATOM  =      1448.48460880
  Solvation  Ediel_sol  =         0.00000000
  ---------------------------------------------------
  free energy    TOTEN  =       -33.78319207 eV

  energy without entropy =      -33.78319207  energy(sigma->0) =      -33.78319207


--------------------------------------------------------------------------------------------------------




--------------------------------------- Iteration      1(   5)  ---------------------------------------


     EDDAV:  cpu time      0.3002: real time      0.3034
       DOS:  cpu time      0.0006: real time      0.0006
    CHARGE:  cpu time      0.0047: real time      0.0047
    MIXING:  cpu time      0.0007: real time      0.0007
    --------------------------------------------
      LOOP:  cpu time      0.3062: real time      0.3094

 eigenvalue-minimisations  :  3136
 total energy-change (2. order) :-0.3435168E-03  (-0.3434980E-03)
 number of electron      39.9999981 magnetization 
 augmentation part       -7.4265850 magnetization 

 Broyden mixing:
  rms(total) = 0.60463E+00    rms(broyden)= 0.60461E+00
  rms(prec ) = 0.73826E+00
  weight for this iteration     100.00

 Free energy of the ion-electron system (eV)
  ---------------------------------------------------
  alpha Z        PSCENC =        82.24673763
  Ewald energy   TEWEN  =     -1401.16283699
  -Hartree energ DENC   =      -127.76666873
  -exchange      EXHF   =         0.00000000
  -V(xc)+E(xc)   XCENC  =       -34.58230337
  PAW double counting   =      1193.78262552    -1080.73714043
  entropy T*S    EENTRO =        -0.00000000
  eigenvalues    EBANDS =      -114.04855801
  atomic energy  EATOM  =      1448.48460880
  Solvation  Ediel_sol  =         0.00000000
  ---------------------------------------------------
  free energy    TOTEN  =       -33.78353558 eV

  energy without entropy =      -33.78353558  energy(sigma->0) =      -33.78353558


--------------------------------------------------------------------------------------------------------




--------------------------------------- Iteration      1(   6)  ---------------------------------------


    POTLOK:  cpu time      0.0053: real time      0.0055
    SETDIJ:  cpu time      0.1384: real time      0.1391
     EDDAV:  cpu time      0.3025: real time      0.3053
       DOS:  cpu time      0.0009: real time      0.0009
    CHARGE:  cpu time      0.0050: real time      0.0050
    MIXING:  cpu time      0.0010: real time      0.0010
    --------------------------------------------
      LOOP:  cpu time      0.4531: real time      0.4568

 eigenvalue-minimisations  :  2928
 total energy-change (2. order) : 0.6841145E+00  (-0.1387559E+00)
 number of electron      39.9999983 magnetization 
 augmentation part       -7.3562381 magnetization 

 Broyden mixing:
  rms(total) = 0.36847E+00    rms(broyden)= 0.36847E+00
  rms(prec ) = 0.39055E+00
  weight for this iteration     100.00

 eigenvalues of (default mixing * dielectric matrix)
  average eigenvalue GAMMA=   1.7879
  1.7879

 Free energy of the ion-electron system (eV)
  ---------------------------------------------------
  alpha Z        PSCENC =        82.24673763
  Ewald energy   TEWEN  =     -1401.16283699
  -Hartree energ DENC   =      -134.78293914
  -exchange      EXHF   =         0.00000000
  -V(xc)+E(xc)   XCENC  =       -33.96536231
  PAW double counting   =      1408.16848268    -1295.38338697
  entropy T*S    EENTRO =        -0.00000000
  eigenvalues    EBANDS =      -106.70472480
  atomic energy  EATOM  =      1448.48460880
  Solvation  Ediel_sol  =         0.00000000
  ---------------------------------------------------
  free energy    TOTEN  =       -33.09942109 eV

  energy without entropy =      -33.09942109  energy(sigma->0) =      -33.09942109


--------------------------------------------------------------------------------------------------------




--------------------------------------- Iteration      1(   7)  ---------------------------------------


    POTLOK:  cpu time      0.0060: real time      0.0062
    SETDIJ:  cpu time      0.1392: real time      0.1399
     EDDAV:  cpu time      0.3026: real time      0.3056
       DOS:  cpu time      0.0006: real time      0.0006
    CHARGE:  cpu time      0.0044: real time      0.0044
    MIXING:  cpu time      0.0005: real time      0.0005
    --------------------------------------------
      LOOP:  cpu time      0.4533: real time      0.4572

 eigenvalue-minimisations  :  3248
 total energy-change (2. order) : 0.9015955E-03  (-0.3343227E-01)
 number of electron      39.9999984 magnetization 
 augmentation part       -7.3530811 magnetization 

 Broyden mixing:
  rms(total) = 0.15974E+00    rms(broyden)= 0.15974E+00
  rms(prec ) = 0.16913E+00
  weight for this iteration     100.00

 eigenvalues of (default mixing * dielectric matrix)
  average eigenvalue GAMMA=   1.7358
  1.2095  2.2621

 Free energy of the ion-electron system (eV)
  ---------------------------------------------------
  alpha Z        PSCENC =        82.24673763
  Ewald energy   TEWEN  =     -1401.16283699
  -Hartree energ DENC   =      -136.43306723
  -exchange      EXHF   =         0.00000000
  -V(xc)+E(xc)   XCENC  =       -33.67901083
  PAW double counting   =      1617.41616629    -1504.74060757
  entropy T*S    EENTRO =        -0.00000000
  eigenvalues    EBANDS =      -105.23050959
  atomic energy  EATOM  =      1448.48460880
  Solvation  Ediel_sol  =         0.00000000
  ---------------------------------------------------
  free energy    TOTEN  =       -33.09851950 eV

  energy without entropy =      -33.09851950  energy(sigma->0) =      -33.09851950


--------------------------------------------------------------------------------------------------------




--------------------------------------- Iteration      1(   8)  ---------------------------------------


    POTLOK:  cpu time      0.0052: real time      0.0054
    SETDIJ:  cpu time      0.1381: real time      0.1387
     EDDAV:  cpu time      0.2719: real time      0.2745
       DOS:  cpu time      0.0006: real time      0.0006
    CHARGE:  cpu time      0.0043: real time      0.0043
    MIXING:  cpu time      0.0005: real time      0.0005
    --------------------------------------------
      LOOP:  cpu time      0.4205: real time      0.4240

 eigenvalue-minimisations  :  2912
 total energy-change (2. order) :-0.4533327E-03  (-0.3165833E-02)
 number of electron      39.9999984 magnetization 
 augmentation part       -7.3695257 magnetization 

 Broyden mixing:
  rms(total) = 0.20203E-01    rms(broyden)= 0.20203E-01
  rms(prec ) = 0.26913E-01
  weight for this iteration     100.00

 eigenvalues of (default mixing * dielectric matrix)
  average eigenvalue GAMMA=   1.5965
  2.4468  1.1713  1.1713

 Free energy of the ion-electron system (eV)
  ---------------------------------------------------
  alpha Z        PSCENC =        82.24673763
  Ewald energy   TEWEN  =     -1401.16283699
  -Hartree energ DENC   =      -135.90527625
  -exchange      EXHF   =         0.00000000
  -V(xc)+E(xc)   XCENC  =       -33.58517647
  PAW double counting   =      1758.44601008    -1645.80163216
  entropy T*S    EENTRO =        -0.00000000
  eigenvalues    EBANDS =      -105.82140747
  atomic energy  EATOM  =      1448.48460880
  Solvation  Ediel_sol  =         0.00000000
  ---------------------------------------------------
  free energy    TOTEN  =       -33.09897283 eV

  energy without entropy =      -33.09897283  energy(sigma->0) =      -33.09897283


--------------------------------------------------------------------------------------------------------




--------------------------------------- Iteration      1(   9)  ---------------------------------------


    POTLOK:  cpu time      0.0051: real time      0.0053
    SETDIJ:  cpu time      0.1382: real time      0.1388
     EDDAV:  cpu time      0.3039: real time      0.3067
       DOS:  cpu time      0.0005: real time      0.0005
    CHARGE:  cpu time      0.0042: real time      0.0043
    MIXING:  cpu time      0.0005: real time      0.0005
    --------------------------------------------
      LOOP:  cpu time      0.4524: real time      0.4561

 eigenvalue-minimisations  :  3232
 total energy-change (2. order) : 0.1967171E-03  (-0.4735377E-03)
 number of electron      39.9999984 magnetization 
 augmentation part       -7.3675941 magnetization 

 Broyden mixing:
  rms(total) = 0.79800E-02    rms(broyden)= 0.79800E-02
  rms(prec ) = 0.91192E-02
  weight for this iteration     100.00

 eigenvalues of (default mixing * dielectric matrix)
  average eigenvalue GAMMA=   1.8438
  2.5507  2.5507  1.1369  1.1369

 Free energy of the ion-electron system (eV)
  ---------------------------------------------------
  alpha Z        PSCENC =        82.24673763
  Ewald energy   TEWEN  =     -1401.16283699
  -Hartree energ DENC   =      -136.37123702
  -exchange      EXHF   =         0.00000000
  -V(xc)+E(xc)   XCENC  =       -33.53985064
  PAW double counting   =      1773.45191125    -1660.81981062
  entropy T*S    EENTRO =        -0.00000000
  eigenvalues    EBANDS =      -105.38829852
  atomic energy  EATOM  =      1448.48460880
  Solvation  Ediel_sol  =         0.00000000
  ---------------------------------------------------
  free energy    TOTEN  =       -33.09877611 eV

  energy without entropy =      -33.09877611  energy(sigma->0) =      -33.09877611


--------------------------------------------------------------------------------------------------------




--------------------------------------- Iteration      1(  10)  ---------------------------------------


    POTLOK:  cpu time      0.0051: real time      0.0053
    SETDIJ:  cpu time      0.1378: real time      0.1387
     EDDAV:  cpu time      0.1935: real time      0.1945
       DOS:  cpu time      0.0003: real time      0.0003
    CHARGE:  cpu time      0.0036: real time      0.0036
    MIXING:  cpu time      0.0003: real time      0.0003
    --------------------------------------------
      LOOP:  cpu time      0.3407: real time      0.3428

 eigenvalue-minimisations  :  2928
 total energy-change (2. order) :-0.1372445E-03  (-0.5661244E-04)
 number of electron      39.9999984 magnetization 
 augmentation part       -7.3679419 magnetization 

 Broyden mixing:
  rms(total) = 0.23532E-02    rms(broyden)= 0.23531E-02
  rms(prec ) = 0.27397E-02
  weight for this iteration     100.00

 eigenvalues of (default mixing * dielectric matrix)
  average eigenvalue GAMMA=   1.7345
  2.9480  2.5658  1.1321  1.1321  0.8946

 Free energy of the ion-electron system (eV)
  ---------------------------------------------------
  alpha Z        PSCENC =        82.24673763
  Ewald energy   TEWEN  =     -1401.16283699
  -Hartree energ DENC   =      -136.42053642
  -exchange      EXHF   =         0.00000000
  -V(xc)+E(xc)   XCENC  =       -33.53908269
  PAW double counting   =      1765.41566051    -1652.77857097
  entropy T*S    EENTRO =        -0.00000000
  eigenvalues    EBANDS =      -105.34489323
  atomic energy  EATOM  =      1448.48460880
  Solvation  Ediel_sol  =         0.00000000
  ---------------------------------------------------
  free energy    TOTEN  =       -33.09891336 eV

  energy without entropy =      -33.09891336  energy(sigma->0) =      -33.09891336


--------------------------------------------------------------------------------------------------------




--------------------------------------- Iteration      1(  11)  ---------------------------------------


    POTLOK:  cpu time      0.0037: real time      0.0038
    SETDIJ:  cpu time      0.1377: real time      0.1381
     EDDAV:  cpu time      0.2103: real time      0.2113
       DOS:  cpu time      0.0003: real time      0.0003
    CHARGE:  cpu time      0.0035: real time      0.0035
    MIXING:  cpu time      0.0003: real time      0.0003
    --------------------------------------------
      LOOP:  cpu time      0.3558: real time      0.3573

 eigenvalue-minimisations  :  3312
 total energy-change (2. order) :-0.1774724E-04  (-0.3316293E-05)
 number of electron      39.9999984 magnetization 
 augmentation part       -7.3680153 magnetization 

 Broyden mixing:
  rms(total) = 0.10597E-02    rms(broyden)= 0.10597E-02
  rms(prec ) = 0.12284E-02
  weight for this iteration     100.00

 eigenvalues of (default mixing * dielectric matrix)
  average eigenvalue GAMMA=   1.6993
  2.7325  2.7325  1.1074  1.1074  1.2579  1.2579

 Free energy of the ion-electron system (eV)
  ---------------------------------------------------
  alpha Z        PSCENC =        82.24673763
  Ewald energy   TEWEN  =     -1401.16283699
  -Hartree energ DENC   =      -136.44898663
  -exchange      EXHF   =         0.00000000
  -V(xc)+E(xc)   XCENC  =       -33.53561761
  PAW double counting   =      1766.03136114    -1653.39410000
  entropy T*S    EENTRO =        -0.00000000
  eigenvalues    EBANDS =      -105.32009744
  atomic energy  EATOM  =      1448.48460880
  Solvation  Ediel_sol  =         0.00000000
  ---------------------------------------------------
  free energy    TOTEN  =       -33.09893111 eV

  energy without entropy =      -33.09893111  energy(sigma->0) =      -33.09893111


--------------------------------------------------------------------------------------------------------




--------------------------------------- Iteration      1(  12)  ---------------------------------------


    POTLOK:  cpu time      0.0035: real time      0.0037
    SETDIJ:  cpu time      0.1181: real time      0.1185
     EDDAV:  cpu time      0.1878: real time      0.1886
       DOS:  cpu time      0.0004: real time      0.0004
    --------------------------------------------
      LOOP:  cpu time      0.3098: real time      0.3111

 eigenvalue-minimisations  :  2960
 total energy-change (2. order) : 0.5768391E-06  (-0.4410042E-06)
 number of electron      39.9999984 magnetization 
 augmentation part       -7.3680153 magnetization 

 Free energy of the ion-electron system (eV)
  ---------------------------------------------------
  alpha Z        PSCENC =        82.24673763
  Ewald energy   TEWEN  =     -1401.16283699
  -Hartree energ DENC   =      -136.45398072
  -exchange      EXHF   =         0.00000000
  -V(xc)+E(xc)   XCENC  =       -33.53528585
  PAW double counting   =      1765.73225369    -1653.09485486
  entropy T*S    EENTRO =        -0.00000000
  eigenvalues    EBANDS =      -105.31557222
  atomic energy  EATOM  =      1448.48460880
  Solvation  Ediel_sol  =         0.00000000
  ---------------------------------------------------
  free energy    TOTEN  =       -33.09893053 eV

  energy without entropy =      -33.09893053  energy(sigma->0) =      -33.09893053


--------------------------------------------------------------------------------------------------------




 average (electrostatic) potential at core
  the test charge radii are     1.1631  1.0808
  (the norm of the test charge is              1.0000)
       1 -34.2814       2 -34.2814       3 -34.2814       4 -34.2814       5 -55.2714
       6 -55.2714       7 -55.2714       8 -55.2714
 
 
 
 E-fermi :   2.5858     XC(G=0):  -9.0903     alpha+bet : -8.1936

 Fermi energy:         2.5857851692

 k-point     1 :       0.0000    0.0000    0.0000
  band No.  band energies     occupation 
      1     -10.9297      2.00000
      2     -10.6158      2.00000
      3      -9.6943      2.00000
      4      -9.2634      2.00000
      5      -5.1347      2.00000
      6      -4.4807      2.00000
      7      -3.4772      2.00000
      8      -3.4769      2.00000
      9      -1.8213      2.00000
     10      -0.6158      2.00000
     11      -0.6135      2.00000
     12      -0.1807      2.00000
     13      -0.1654      2.00000
     14       0.8574      2.00000
     15       0.8706      2.00000
     16       0.9325      2.00000
     17       1.5833      2.00000
     18       1.6338      2.00000
     19       1.7469      2.00000
     20       1.8724      2.00000
     21       3.8853      0.00000
     22       5.7208      0.00000
     23       5.9628      0.00000
     24       6.0620      0.00000
     25       6.2676      0.00000
     26       6.7231      0.00000
     27       6.7726      0.00000
     28       7.0872      0.00000
     29       7.0914      0.00000
     30       7.1753      0.00000
     31       7.2020      0.00000
     32       7.7216      0.00000

 k-point     2 :       0.1667    0.0000    0.0000
  band No.  band energies     occupation 
      1     -10.8025      2.00000
      2     -10.4952      2.00000
      3      -9.6822      2.00000
      4      -9.2872      2.00000
      5      -5.3648      2.00000
      6      -4.6490      2.00000
      7      -3.9143      2.00000
      8      -3.7108      2.00000
      9      -1.7305      2.00000
     10      -0.4295      2.00000
     11      -0.4203      2.00000
     12       0.0168      2.00000
     13       0.0283      2.00000
     14       0.8569      2.00000
     15       0.9956      2.00000
     16       1.3836      2.00000
     17       1.6238      2.00000
     18       1.7398      2.00000
     19       1.8244      2.00000
     20       1.8351      2.00000
     21       3.9294      0.00000
     22       4.9184      0.00000
     23       5.0141      0.00000
     24       5.0631      0.00000
     25       5.5096      0.00000
     26       6.2555      0.00000
     27       6.2721      0.00000
     28       6.7767      0.00000
     29       7.0072      0.00000
     30       7.1808      0.00000
     31       7.4749      0.00000
     32       7.5731      0.00000

 k-point     3 :       0.0000    0.1667    0.0000
  band No.  band energies     occupation 
      1     -10.7973      2.00000
      2     -10.5015      2.00000
      3      -9.6650      2.00000
      4      -9.3106      2.00000
      5      -5.3132      2.00000
      6      -4.6979      2.00000
      7      -3.9188      2.00000
      8      -3.7029      2.00000
      9      -1.7171      2.00000
     10      -0.4155      2.00000
     11      -0.3981      2.00000
     12       0.0087      2.00000
     13       0.0092      2.00000
     14       0.7626      2.00000
     15       1.0205      2.00000
     16       1.5637      2.00000
     17       1.6645      2.00000
     18       1.6693      2.00000
     19       1.7440      2.00000
     20       1.7722      2.00000
     21       4.0016      0.00000
     22       4.7162      0.00000
     23       5.1914      0.00000
     24       5.2841      0.00000
     25       5.3331      0.00000
     26       6.1116      0.00000
     27       6.2865      0.00000
     28       6.9270      0.00000
     29       7.0057      0.00000
     30       7.1971      0.00000
     31       7.5112      0.00000
     32       7.5387      0.00000

 k-point     4 :       0.3333    0.0000    0.0000
  band No.  band energies     occupation 
      1     -10.4587      2.00000
      2     -10.1687      2.00000
      3      -9.7435      2.00000
      4      -9.4244      2.00000
      5      -5.6711      2.00000
      6      -4.8703      2.00000
      7      -4.8001      2.00000
      8      -4.2537      2.00000
      9      -1.3183      2.00000
     10      -0.2312      2.00000
     11       0.1362      2.00000
     12       0.5810      2.00000
     13       0.5885      2.00000
     14       0.9318      2.00000
     15       1.2299      2.00000
     16       1.4534      2.00000
     17       1.6530      2.00000
     18       1.8374      2.00000
     19       2.1940      2.00000
     20       2.3385      2.00000
     21       3.6507      0.00000
     22       3.7118      0.00000
     23       3.7888      0.00000
     24       4.2000      0.00000
     25       4.5229      0.00000
     26       4.8593      0.00000
     27       4.9476      0.00000
     28       5.6679      0.00000
     29       5.6971      0.00000
     30       6.3836      0.00000
     31       8.1110      0.00000
     32       8.3055      0.00000

 k-point     5 :       0.0000    0.3333    0.0000
  band No.  band energies     occupation 
      1     -10.4318      2.00000
      2     -10.2009      2.00000
      3      -9.6643      2.00000
      4      -9.5199      2.00000
      5      -5.5701      2.00000
      6      -4.9561      2.00000
      7      -4.7732      2.00000
      8      -4.2660      2.00000
      9      -1.3209      2.00000
     10      -0.1934      2.00000
     11       0.1547      2.00000
     12       0.5389      2.00000
     13       0.5573      2.00000
     14       0.9860      2.00000
     15       1.3330      2.00000
     16       1.4527      2.00000
     17       1.6355      2.00000
     18       1.6657      2.00000
     19       2.1654      2.00000
     20       2.3364      2.00000
     21       3.4038      0.00000
     22       3.9005      0.00000
     23       4.1102      0.00000
     24       4.2599      0.00000
     25       4.2976      0.00000
     26       4.7599      0.00000
     27       4.9026      0.00000
     28       5.6759      0.00000
     29       5.8442      0.00000
     30       6.4544      0.00000
     31       8.0443      0.00000
     32       8.0522      0.00000

 k-point     6 :       0.5000    0.0000    0.0000
  band No.  band energies     occupation 
      1     -10.0318      2.00000
      2     -10.0318      2.00000
      3      -9.7514      2.00000
      4      -9.7514      2.00000
      5      -5.5032      2.00000
      6      -5.5032      2.00000
      7      -4.7428      2.00000
      8      -4.7428      2.00000
      9      -0.6747      2.00000
     10      -0.6747      2.00000
     11       0.8891      2.00000
     12       0.8891      2.00000
     13       1.1411      2.00000
     14       1.1411      2.00000
     15       1.3502      2.00000
     16       1.3502      2.00000
     17       1.6860      2.00000
     18       1.6860      2.00000
     19       2.0272      2.00000
     20       2.0272      2.00000
     21       3.7802      0.00000
     22       3.7802      0.00000
     23       3.8539      0.00000
     24       3.8539      0.00000
     25       3.8750      0.00000
     26       3.8750      0.00000
     27       4.6467      0.00000
     28       4.6467      0.00000
     29       5.4377      0.00000
     30       5.4377      0.00000
     31       8.3260      0.00000
     32       8.3260      0.00000

 k-point     7 :       0.0000    0.5000    0.0000
  band No.  band energies     occupation 
      1      -9.9420      2.00000
      2      -9.9420      2.00000
      3      -9.8546      2.00000
      4      -9.8546      2.00000
      5      -5.4276      2.00000
      6      -5.4276      2.00000
      7      -4.7993      2.00000
      8      -4.7993      2.00000
      9      -0.6809      2.00000
     10      -0.6809      2.00000
     11       0.9814      2.00000
     12       0.9814      2.00000
     13       1.1971      2.00000
     14       1.1971      2.00000
     15       1.2296      2.00000
     16       1.2296      2.00000
     17       1.6678      2.00000
     18       1.6678      2.00000
     19       2.0124      2.00000
     20       2.0124      2.00000
     21       3.6479      0.00000
     22       3.6479      0.00000
     23       3.9064      0.00000
     24       3.9064      0.00000
     25       3.9127      0.00000
     26       3.9127      0.00000
     27       4.5728      0.00000
     28       4.5728      0.00000
     29       5.6235      0.00000
     30       5.6235      0.00000
     31       8.1725      0.00000
     32       8.1725      0.00000

 k-point     8 :       0.1667    0.1667    0.0000
  band No.  band energies     occupation 
      1     -10.6770      2.00000
      2     -10.3892      2.00000
      3      -9.6550      2.00000
      4      -9.3286      2.00000
      5      -5.4155      2.00000
      6      -4.7304      2.00000
      7      -4.0173      2.00000
      8      -4.0153      2.00000
      9      -1.5947      2.00000
     10      -0.9711      2.00000
     11      -0.9686      2.00000
     12       0.7634      2.00000
     13       0.7856      2.00000
     14       0.7909      2.00000
     15       0.8008      2.00000
     16       0.9443      2.00000
     17       1.7049      2.00000
     18       1.7256      2.00000
     19       1.9358      2.00000
     20       2.1136      2.00000
     21       3.9812      0.00000
     22       4.0174      0.00000
     23       4.1394      0.00000
     24       4.6464      0.00000
     25       5.5630      0.00000
     26       5.8773      0.00000
     27       6.1524      0.00000
     28       7.0540      0.00000
     29       7.4135      0.00000
     30       7.4291      0.00000
     31       7.4486      0.00000
     32       8.0650      0.00000

 k-point     9 :      -0.1667    0.1667    0.0000
  band No.  band energies     occupation 
      1     -10.6770      2.00000
      2     -10.3892      2.00000
      3      -9.6550      2.00000
      4      -9.3286      2.00000
      5      -5.4155      2.00000
      6      -4.7304      2.00000
      7      -4.0173      2.00000
      8      -4.0153      2.00000
      9      -1.5947      2.00000
     10      -0.9711      2.00000
     11      -0.9686      2.00000
     12       0.7634      2.00000
     13       0.7856      2.00000
     14       0.7909      2.00000
     15       0.8008      2.00000
     16       0.9443      2.00000
     17       1.7049      2.00000
     18       1.7256      2.00000
     19       1.9358      2.00000
     20       2.1136      2.00000
     21       3.9812      0.00000
     22       4.0174      0.00000
     23       4.1394      0.00000
     24       4.6464      0.00000
     25       5.5630      0.00000
     26       5.8773      0.00000
     27       6.1524      0.00000
     28       7.0540      0.00000
     29       7.4135      0.00000
     30       7.4291      0.00000
     31       7.4486      0.00000
     32       8.0650      0.00000

 k-point    10 :       0.3333    0.1667    0.0000
  band No.  band energies     occupation 
      1     -10.3559      2.00000
      2     -10.0892      2.00000
      3      -9.7102      2.00000
      4      -9.4396      2.00000
      5      -5.5526      2.00000
      6      -4.7771      2.00000
      7      -4.7267      2.00000
      8      -4.3130      2.00000
      9      -1.2151      2.00000
     10      -1.0431      2.00000
     11      -1.0400      2.00000
     12       0.5259      2.00000
     13       0.7003      2.00000
     14       0.7371      2.00000
     15       0.8739      2.00000
     16       1.1506      2.00000
     17       1.2981      2.00000
     18       1.4688      2.00000
     19       1.9759      2.00000
     20       2.1923      2.00000
     21       3.5819      0.00000
     22       3.7900      0.00000
     23       4.5299      0.00000
     24       4.6333      0.00000
     25       4.9129      0.00000
     26       5.3203      0.00000
     27       5.5413      0.00000
     28       6.6651      0.00000
     29       6.6743      0.00000
     30       7.2284      0.00000
     31       7.7713      0.00000
     32       8.2421      0.00000

 k-point    11 :      -0.1667    0.3333    0.0000
  band No.  band energies     occupation 
      1     -10.3345      2.00000
      2     -10.1146      2.00000
      3      -9.6495      2.00000
      4      -9.5111      2.00000
      5      -5.4795      2.00000
      6      -4.8411      2.00000
      7      -4.6969      2.00000
      8      -4.3317      2.00000
      9      -1.2188      2.00000
     10      -1.0466      2.00000
     11      -1.0276      2.00000
     12       0.5958      2.00000
     13       0.6251      2.00000
     14       0.6320      2.00000
     15       0.9094      2.00000
     16       1.2940      2.00000
     17       1.3554      2.00000
     18       1.4183      2.00000
     19       1.9676      2.00000
     20       2.0804      2.00000
     21       3.6286      0.00000
     22       3.7437      0.00000
     23       4.4611      0.00000
     24       4.5874      0.00000
     25       5.0098      0.00000
     26       5.3700      0.00000
     27       5.6306      0.00000
     28       6.6299      0.00000
     29       6.6881      0.00000
     30       7.2573      0.00000
     31       7.7010      0.00000
     32       8.0110      0.00000

 k-point    12 :      -0.3333    0.1667    0.0000
  band No.  band energies     occupation 
      1     -10.3559      2.00000
      2     -10.0892      2.00000
      3      -9.7102      2.00000
      4      -9.4396      2.00000
      5      -5.5526      2.00000
      6      -4.7771      2.00000
      7      -4.7267      2.00000
      8      -4.3130      2.00000
      9      -1.2151      2.00000
     10      -1.0431      2.00000
     11      -1.0400      2.00000
     12       0.5259      2.00000
     13       0.7003      2.00000
     14       0.7371      2.00000
     15       0.8739      2.00000
     16       1.1506      2.00000
     17       1.2981      2.00000
     18       1.4688      2.00000
     19       1.9759      2.00000
     20       2.1923      2.00000
     21       3.5819      0.00000
     22       3.7900      0.00000
     23       4.5299      0.00000
     24       4.6333      0.00000
     25       4.9129      0.00000
     26       5.3203      0.00000
     27       5.5413      0.00000
     28       6.6651      0.00000
     29       6.6743      0.00000
     30       7.2284      0.00000
     31       7.7713      0.00000
     32       8.2421      0.00000

 k-point    13 :       0.1667    0.3333    0.0000
  band No.  band energies     occupation 
      1     -10.3345      2.00000
      2     -10.1146      2.00000
      3      -9.6495      2.00000
      4      -9.5111      2.00000
      5      -5.4795      2.00000
      6      -4.8411      2.00000
      7      -4.6969      2.00000
      8      -4.3317      2.00000
      9      -1.2188      2.00000
     10      -1.0466      2.00000
     11      -1.0276      2.00000
     12       0.5958      2.00000
     13       0.6251      2.00000
     14       0.6320      2.00000
     15       0.9094      2.00000
     16       1.2940      2.00000
     17       1.3554      2.00000
     18       1.4183      2.00000
     19       1.9676      2.00000
     20       2.0804      2.00000
     21       3.6286      0.00000
     22       3.7437      0.00000
     23       4.4611      0.00000
     24       4.5874      0.00000
     25       5.0098      0.00000
     26       5.3700      0.00000
     27       5.6306      0.00000
     28       6.6299      0.00000
     29       6.6881      0.00000
     30       7.2573      0.00000
     31       7.7010      0.00000
     32       8.0110      0.00000

 k-point    14 :       0.5000    0.1667    0.0000
  band No.  band energies     occupation 
      1      -9.9665      2.00000
      2      -9.9665      2.00000
      3      -9.7177      2.00000
      4      -9.7177      2.00000
      5      -5.3498      2.00000
      6      -5.3498      2.00000
      7      -4.6475      2.00000
      8      -4.6475      2.00000
      9      -0.8440      2.00000
     10      -0.8440      2.00000
     11      -0.3950      2.00000
     12      -0.3950      2.00000
     13       0.3860      2.00000
     14       0.3860      2.00000
     15       0.8553      2.00000
     16       0.8553      2.00000
     17       1.6551      2.00000
     18       1.6551      2.00000
     19       1.8713      2.00000
     20       1.8713      2.00000
     21       4.1102      0.00000
     22       4.1102      0.00000
     23       4.1661      0.00000
     24       4.1661      0.00000
     25       5.6042      0.00000
     26       5.6042      0.00000
     27       5.6273      0.00000
     28       5.6273      0.00000
     29       6.1560      0.00000
     30       6.1560      0.00000
     31       8.1159      0.00000
     32       8.1159      0.00000

 k-point    15 :      -0.1667    0.5000    0.0000
  band No.  band energies     occupation 
      1      -9.8859      2.00000
      2      -9.8859      2.00000
      3      -9.8089      2.00000
      4      -9.8089      2.00000
      5      -5.2786      2.00000
      6      -5.2786      2.00000
      7      -4.7036      2.00000
      8      -4.7036      2.00000
      9      -0.8375      2.00000
     10      -0.8375      2.00000
     11      -0.4261      2.00000
     12      -0.4261      2.00000
     13       0.3303      2.00000
     14       0.3303      2.00000
     15       1.2040      2.00000
     16       1.2040      2.00000
     17       1.3293      2.00000
     18       1.3293      2.00000
     19       1.9081      2.00000
     20       1.9081      2.00000
     21       3.9389      0.00000
     22       3.9389      0.00000
     23       4.3452      0.00000
     24       4.3452      0.00000
     25       5.5754      0.00000
     26       5.5754      0.00000
     27       5.6468      0.00000
     28       5.6468      0.00000
     29       6.2368      0.00000
     30       6.2368      0.00000
     31       7.9593      0.00000
     32       7.9593      0.00000

 k-point    16 :       0.3333    0.3333    0.0000
  band No.  band energies     occupation 
      1     -10.0860      2.00000
      2      -9.8970      2.00000
      3      -9.6639      2.00000
      4      -9.5311      2.00000
      5      -5.2527      2.00000
      6      -4.5916      2.00000
      7      -4.5780      2.00000
      8      -4.5377      2.00000
      9      -1.7650      2.00000
     10      -1.7637      2.00000
     11      -1.1488      2.00000
     12      -0.6715      2.00000
     13       0.1262      2.00000
     14       0.1500      2.00000
     15       0.2858      2.00000
     16       0.5416      2.00000
     17       0.8588      2.00000
     18       1.2100      2.00000
     19       1.3424      2.00000
     20       1.6586      2.00000
     21       4.3793      0.00000
     22       4.6640      0.00000
     23       5.4989      0.00000
     24       6.1783      0.00000
     25       6.2021      0.00000
     26       6.2917      0.00000
     27       6.3346      0.00000
     28       7.2076      0.00000
     29       7.2137      0.00000
     30       7.6412      0.00000
     31       7.9093      0.00000
     32       7.9738      0.00000

 k-point    17 :      -0.3333    0.3333    0.0000
  band No.  band energies     occupation 
      1     -10.0860      2.00000
      2      -9.8970      2.00000
      3      -9.6639      2.00000
      4      -9.5311      2.00000
      5      -5.2527      2.00000
      6      -4.5916      2.00000
      7      -4.5780      2.00000
      8      -4.5377      2.00000
      9      -1.7650      2.00000
     10      -1.7637      2.00000
     11      -1.1488      2.00000
     12      -0.6715      2.00000
     13       0.1262      2.00000
     14       0.1500      2.00000
     15       0.2858      2.00000
     16       0.5416      2.00000
     17       0.8588      2.00000
     18       1.2100      2.00000
     19       1.3424      2.00000
     20       1.6586      2.00000
     21       4.3793      0.00000
     22       4.6640      0.00000
     23       5.4989      0.00000
     24       6.1783      0.00000
     25       6.2021      0.00000
     26       6.2917      0.00000
     27       6.3346      0.00000
     28       7.2076      0.00000
     29       7.2137      0.00000
     30       7.6412      0.00000
     31       7.9093      0.00000
     32       7.9738      0.00000

 k-point    18 :       0.5000    0.3333    0.0000
  band No.  band energies     occupation 
      1      -9.8140      2.00000
      2      -9.8140      2.00000
      3      -9.6627      2.00000
      4      -9.6627      2.00000
      5      -4.9414      2.00000
      6      -4.9414      2.00000
      7      -4.4596      2.00000
      8      -4.4596      2.00000
      9      -1.6299      2.00000
     10      -1.6299      2.00000
     11      -1.6174      2.00000
     12      -1.6174      2.00000
     13       0.0417      2.00000
     14       0.0417      2.00000
     15       0.2592      2.00000
     16       0.2592      2.00000
     17       0.6712      2.00000
     18       0.6712      2.00000
     19       1.2158      2.00000
     20       1.2158      2.00000
     21       5.4906      0.00000
     22       5.4906      0.00000
     23       5.9194      0.00000
     24       5.9194      0.00000
     25       6.5406      0.00000
     26       6.5406      0.00000
     27       7.3165      0.00000
     28       7.3165      0.00000
     29       7.5833      0.00000
     30       7.5833      0.00000
     31       7.6301      0.00000
     32       7.6301      0.00000

 k-point    19 :      -0.3333    0.5000    0.0000
  band No.  band energies     occupation 
      1      -9.7633      2.00000
      2      -9.7633      2.00000
      3      -9.7173      2.00000
      4      -9.7173      2.00000
      5      -4.8896      2.00000
      6      -4.8896      2.00000
      7      -4.5067      2.00000
      8      -4.5067      2.00000
      9      -1.6362      2.00000
     10      -1.6362      2.00000
     11      -1.6185      2.00000
     12      -1.6185      2.00000
     13      -0.0216      2.00000
     14      -0.0216      2.00000
     15       0.5059      2.00000
     16       0.5059      2.00000
     17       0.5154      2.00000
     18       0.5154      2.00000
     19       1.1880      2.00000
     20       1.1880      2.00000
     21       5.4643      0.00000
     22       5.4643      0.00000
     23       6.0529      0.00000
     24       6.0529      0.00000
     25       6.4966      0.00000
     26       6.4966      0.00000
     27       7.3535      0.00000
     28       7.3535      0.00000
     29       7.4627      0.00000
     30       7.4627      0.00000
     31       7.5545      0.00000
     32       7.5545      0.00000

 k-point    20 :       0.5000    0.5000    0.0000
  band No.  band energies     occupation 
      1      -9.6838      2.00000
      2      -9.6838      2.00000
      3      -9.6838      2.00000
      4      -9.6838      2.00000
      5      -4.5126      2.00000
      6      -4.5126      2.00000
      7      -4.5126      2.00000
      8      -4.5126      2.00000
      9      -2.0860      2.00000
     10      -2.0860      2.00000
     11      -2.0860      2.00000
     12      -2.0859      2.00000
     13      -0.1411      2.00000
     14      -0.1411      2.00000
     15      -0.1411      2.00000
     16      -0.1411      2.00000
     17       0.7728      2.00000
     18       0.7728      2.00000
     19       0.7728      2.00000
     20       0.7728      2.00000
     21       6.3427      0.00000
     22       6.3427      0.00000
     23       6.3427      0.00000
[...]
     32       7.0085      0.00000

 k-point    32 :      -0.3333    0.1667    0.5000
  band No.  band energies     occupation 
      1     -10.2497      2.00000
      2     -10.2497      2.00000
      3      -9.5482      2.00000
      4      -9.5482      2.00000
      5      -5.2432      2.00000
      6      -5.2432      2.00000
      7      -4.4914      2.00000
      8      -4.4914      2.00000
      9      -0.9546      2.00000
     10      -0.9546      2.00000
     11      -0.2365      2.00000
     12      -0.2365      2.00000
     13       0.2561      2.00000
     14       0.2561      2.00000
     15       1.0944      2.00000
     16       1.0944      2.00000
     17       1.3913      2.00000
     18       1.3913      2.00000
     19       2.1208      2.00000
     20       2.1208      2.00000
     21       3.9339      0.00000
     22       3.9339      0.00000
     23       4.5917      0.00000
     24       4.5917      0.00000
     25       5.5130      0.00000
     26       5.5130      0.00000
     27       5.9698      0.00000
     28       5.9698      0.00000
     29       6.9332      0.00000
     30       6.9332      0.00000
     31       7.0345      0.00000
     32       7.0345      0.00000

 k-point    33 :       0.1667    0.3333    0.5000
  band No.  band energies     occupation 
      1     -10.2400      2.00000
      2     -10.2400      2.00000
      3      -9.5644      2.00000
      4      -9.5644      2.00000
      5      -5.2012      2.00000
      6      -5.2012      2.00000
      7      -4.5245      2.00000
      8      -4.5245      2.00000
      9      -0.9509      2.00000
     10      -0.9509      2.00000
     11      -0.2579      2.00000
     12      -0.2579      2.00000
     13       0.3184      2.00000
     14       0.3184      2.00000
     15       0.9552      2.00000
     16       0.9552      2.00000
     17       1.5164      2.00000
     18       1.5164      2.00000
     19       2.0871      2.00000
     20       2.0871      2.00000
     21       3.9307      0.00000
     22       3.9307      0.00000
     23       4.5380      0.00000
     24       4.5380      0.00000
     25       5.4968      0.00000
     26       5.4968      0.00000
     27       6.2842      0.00000
     28       6.2842      0.00000
     29       6.6638      0.00000
     30       6.6638      0.00000
     31       7.0085      0.00000
     32       7.0085      0.00000

 k-point    34 :       0.5000    0.1667    0.5000
  band No.  band energies     occupation 
      1      -9.9613      2.00000
      2      -9.9613      2.00000
      3      -9.7245      2.00000
      4      -9.7245      2.00000
      5      -5.2322      2.00000
      6      -5.2322      2.00000
      7      -4.8107      2.00000
      8      -4.8107      2.00000
      9      -0.4986      2.00000
     10      -0.4986      2.00000
     11      -0.2686      2.00000
     12      -0.2686      2.00000
     13       0.0992      2.00000
     14       0.0992      2.00000
     15       0.6045      2.00000
     16       0.6045      2.00000
     17       1.4495      2.00000
     18       1.4495      2.00000
     19       2.0173      2.00000
     20       2.0173      2.00000
     21       4.2851      0.00000
     22       4.2851      0.00000
     23       4.3243      0.00000
     24       4.3243      0.00000
     25       5.7468      0.00000
     26       5.7468      0.00000
     27       5.7830      0.00000
     28       5.7830      0.00000
     29       6.1128      0.00000
     30       6.1128      0.00000
     31       7.0644      0.00000
     32       7.0644      0.00000

 k-point    35 :      -0.1667    0.5000    0.5000
  band No.  band energies     occupation 
      1      -9.8482      2.00000
      2      -9.8482      2.00000
      3      -9.8482      2.00000
      4      -9.8482      2.00000
      5      -5.0155      2.00000
      6      -5.0155      2.00000
      7      -5.0155      2.00000
      8      -5.0155      2.00000
      9      -0.3711      2.00000
     10      -0.3711      2.00000
     11      -0.3711      2.00000
     12      -0.3711      2.00000
     13       0.2822      2.00000
     14       0.2822      2.00000
     15       0.2822      2.00000
     16       0.2822      2.00000
     17       1.7937      2.00000
     18       1.7937      2.00000
     19       1.7937      2.00000
     20       1.7937      2.00000
     21       4.2547      0.00000
     22       4.2547      0.00000
     23       4.2547      0.00000
     24       4.2547      0.00000
     25       5.8525      0.00000
     26       5.8525      0.00000
     27       5.8525      0.00000
     28       5.8525      0.00000
     29       6.4974      0.00000
     30       6.4974      0.00000
     31       6.4974      0.00000
     32       6.4974      0.00000

 k-point    36 :       0.3333    0.3333    0.5000
  band No.  band energies     occupation 
      1     -10.0085      2.00000
      2     -10.0085      2.00000
      3      -9.5808      2.00000
      4      -9.5808      2.00000
      5      -4.9768      2.00000
      6      -4.9768      2.00000
      7      -4.5399      2.00000
      8      -4.5399      2.00000
      9      -1.6654      2.00000
     10      -1.6654      2.00000
     11      -0.6308      2.00000
     12      -0.6308      2.00000
     13      -0.2748      2.00000
     14      -0.2748      2.00000
     15       0.1229      2.00000
     16       0.1229      2.00000
     17       1.1524      2.00000
     18       1.1524      2.00000
     19       1.7879      2.00000
     20       1.7879      2.00000
     21       4.7317      0.00000
     22       4.7317      0.00000
     23       5.9488      0.00000
     24       5.9488      0.00000
     25       6.1332      0.00000
     26       6.1332      0.00000
     27       6.5439      0.00000
     28       6.5439      0.00000
     29       6.6337      0.00000
     30       6.6337      0.00000
     31       7.8843      0.00000
     32       7.8843      0.00000

 k-point    37 :      -0.3333    0.3333    0.5000
  band No.  band energies     occupation 
      1     -10.0085      2.00000
      2     -10.0085      2.00000
      3      -9.5808      2.00000
      4      -9.5808      2.00000
      5      -4.9768      2.00000
      6      -4.9768      2.00000
      7      -4.5399      2.00000
      8      -4.5399      2.00000
      9      -1.6654      2.00000
     10      -1.6654      2.00000
     11      -0.6308      2.00000
     12      -0.6308      2.00000
     13      -0.2748      2.00000
     14      -0.2748      2.00000
     15       0.1229      2.00000
     16       0.1229      2.00000
     17       1.1524      2.00000
     18       1.1524      2.00000
     19       1.7879      2.00000
     20       1.7879      2.00000
     21       4.7317      0.00000
     22       4.7317      0.00000
     23       5.9488      0.00000
     24       5.9488      0.00000
     25       6.1332      0.00000
     26       6.1332      0.00000
     27       6.5439      0.00000
     28       6.5439      0.00000
     29       6.6337      0.00000
     30       6.6337      0.00000
     31       7.8843      0.00000
     32       7.8843      0.00000

 k-point    38 :       0.5000    0.3333    0.5000
  band No.  band energies     occupation 
      1      -9.8108      2.00000
      2      -9.8108      2.00000
      3      -9.6664      2.00000
      4      -9.6664      2.00000
      5      -4.8717      2.00000
      6      -4.8717      2.00000
      7      -4.5556      2.00000
      8      -4.5556      2.00000
      9      -1.5943      2.00000
     10      -1.5943      2.00000
     11      -1.4277      2.00000
     12      -1.4277      2.00000
     13      -0.3449      2.00000
     14      -0.3449      2.00000
     15      -0.0227      2.00000
     16      -0.0227      2.00000
     17       0.9952      2.00000
     18       0.9952      2.00000
     19       1.4833      2.00000
     20       1.4833      2.00000
     21       5.7550      0.00000
     22       5.7550      0.00000
     23       6.0715      0.00000
     24       6.0715      0.00000
     25       6.0862      0.00000
     26       6.0862      0.00000
     27       6.4819      0.00000
     28       6.4819      0.00000
     29       7.4589      0.00000
     30       7.4589      0.00000
     31       7.5321      0.00000
     32       7.5321      0.00000

 k-point    39 :      -0.3333    0.5000    0.5000
  band No.  band energies     occupation 
      1      -9.7406      2.00000
      2      -9.7406      2.00000
      3      -9.7406      2.00000
      4      -9.7406      2.00000
      5      -4.7131      2.00000
      6      -4.7131      2.00000
      7      -4.7131      2.00000
      8      -4.7131      2.00000
      9      -1.5078      2.00000
     10      -1.5078      2.00000
     11      -1.5078      2.00000
     12      -1.5078      2.00000
     13      -0.2138      2.00000
     14      -0.2138      2.00000
     15      -0.2138      2.00000
     16      -0.2138      2.00000
     17       1.2650      2.00000
     18       1.2650      2.00000
     19       1.2650      2.00000
     20       1.2650      2.00000
     21       5.9797      0.00000
     22       5.9797      0.00000
     23       5.9797      0.00000
     24       5.9797      0.00000
     25       6.1872      0.00000
     26       6.1872      0.00000
     27       6.1872      0.00000
     28       6.1872      0.00000
     29       7.5074      0.00000
     30       7.5074      0.00000
     31       7.5074      0.00000
     32       7.5074      0.00000

 k-point    40 :       0.5000    0.5000    0.5000
  band No.  band energies     occupation 
      1      -9.6838      2.00000
      2      -9.6838      2.00000
      3      -9.6838      2.00000
      4      -9.6838      2.00000
      5      -4.5203      2.00000
      6      -4.5203      2.00000
      7      -4.5203      2.00000
      8      -4.5203      2.00000
      9      -1.9684      2.00000
     10      -1.9684      2.00000
     11      -1.9684      2.00000
     12      -1.9684      2.00000
     13      -0.5655      2.00000
     14      -0.5655      2.00000
     15      -0.5655      2.00000
     16      -0.5655      2.00000
     17       1.2164      2.00000
     18       1.2164      2.00000
     19       1.2164      2.00000
     20       1.2164      2.00000
     21       5.9284      0.00000
     22       5.9284      0.00000
     23       5.9284      0.00000
     24       5.9284      0.00000
     25       6.9548      0.00000
     26       6.9548      0.00000
     27       6.9548      0.00000
     28       6.9548      0.00000
     29       8.1839      0.00000
     30       8.1839      0.00000
     31       8.1839      0.00000
     32       8.1839      0.00000


--------------------------------------------------------------------------------------------------------


 soft charge-density along one line, spin component            1
         0         1         2         3         4         5         6         7         8         9
 total charge-density along one line
 
 pseudopotential strength for first ion, spin component:            1
 14.729  18.382  -0.000   0.047   0.000  -0.000   0.084   0.000
 18.382  22.957  -0.000   0.059   0.000  -0.000   0.107   0.000
 -0.000  -0.000   3.260  -0.000  -0.000   5.551  -0.000  -0.000
  0.047   0.059  -0.000   3.249  -0.000  -0.000   5.534  -0.000
  0.000   0.000  -0.000  -0.000   3.260  -0.000  -0.000   5.551
 -0.000  -0.000   5.551  -0.000  -0.000   9.511  -0.000  -0.000
  0.084   0.107  -0.000   5.534  -0.000  -0.000   9.482  -0.000
  0.000   0.000  -0.000  -0.000   5.551  -0.000  -0.000   9.511
 -0.000  -0.000   0.000   0.000  -0.000   0.000   0.000  -0.000
 -0.000  -0.000   0.013   0.000   0.000   0.023  -0.000   0.000
 -0.013  -0.015   0.000   0.011  -0.000   0.000   0.020  -0.000
 -0.000  -0.000   0.000   0.000   0.013   0.000   0.000   0.024
 -0.000  -0.000   0.000   0.000   0.000   0.000   0.000   0.000
 total augmentation occupancy for first ion, spin component:            1
  2.417  -0.509   0.000   0.462   0.000  -0.000  -0.092  -0.000   0.000  -0.000   0.043  -0.000  -0.000
 -0.509   0.589   0.000  -0.545  -0.000  -0.000   0.087  -0.000  -0.000  -0.000  -0.030   0.000  -0.001
  0.000   0.000   0.828  -0.000   0.000  -0.122   0.000  -0.000  -0.000   0.023  -0.000   0.000   0.000
  0.462  -0.545  -0.000   1.492   0.000   0.000  -0.234   0.000  -0.000  -0.000   0.172  -0.000   0.001
  0.000  -0.000   0.000   0.000   0.822  -0.000  -0.000  -0.121  -0.000   0.000   0.000   0.024  -0.000
 -0.000  -0.000  -0.122   0.000  -0.000   0.020  -0.000   0.000   0.000  -0.004   0.000  -0.000  -0.000
 -0.092   0.087   0.000  -0.234  -0.000  -0.000   0.043  -0.000   0.000   0.000  -0.028   0.000  -0.000
 -0.000  -0.000  -0.000   0.000  -0.121   0.000  -0.000   0.020   0.000   0.000   0.000  -0.004   0.000
  0.000  -0.000  -0.000  -0.000  -0.000   0.000   0.000   0.000   0.020  -0.000   0.000  -0.000   0.000
 -0.000  -0.000   0.023  -0.000   0.000  -0.004   0.000   0.000  -0.000   0.010  -0.000   0.000   0.000
  0.043  -0.030  -0.000   0.172   0.000   0.000  -0.028   0.000   0.000  -0.000   0.033  -0.000   0.000
 -0.000   0.000   0.000  -0.000   0.024  -0.000   0.000  -0.004  -0.000   0.000  -0.000   0.010   0.000
 -0.000  -0.001   0.000   0.001  -0.000  -0.000  -0.000   0.000   0.000   0.000   0.000   0.000   0.004


------------------------ aborting loop because EDIFF is reached ----------------------------------------


    CHARGE:  cpu time      0.0037: real time      0.0037
    FORLOC:  cpu time      0.0002: real time      0.0002
    FORNL :  cpu time      0.0241: real time      0.0242
    STRESS:  cpu time      0.1956: real time      0.1963
    FORCOR:  cpu time      0.0033: real time      0.0033
    FORHAR:  cpu time      0.0008: real time      0.0008
    MIXING:  cpu time      0.0011: real time      0.0011
    OFIELD:  cpu time      0.0000: real time      0.0000

  FORCE on cell =-STRESS in cart. coord.  units (eV):
  Direction    XX          YY          ZZ          XY          YZ          ZX
  --------------------------------------------------------------------------------------
  Alpha Z    82.24674    82.24674    82.24674
  Ewald    -488.24974  -480.21003  -432.70489     0.00000     0.00000    -0.00000
  Hartree    44.14617    51.61485    40.68903     0.00000    -0.00000    -0.00000
  E(xc)    -138.80049  -138.83206  -140.43475     0.00000     0.00000     0.00000
  Local    -116.98725  -132.83710  -169.56575    -0.00000     0.00000    -0.00000
  n-local   232.87065   232.95979   244.57509    -0.00000    -0.00000     0.00000
  augment   -11.63676   -11.67900   -12.18318     0.00000     0.00000    -0.00000
  Kinetic   388.88399   389.75766   389.50509    -0.00000    -0.00000     0.00000
  Fock        0.00000     0.00000     0.00000     0.00000     0.00000     0.00000
  -------------------------------------------------------------------------------------
  Total      -7.52669    -6.97915     2.12739    -0.00000    -0.00000     0.00000
  in kB     -58.53371   -54.27555    16.54429    -0.00000    -0.00000     0.00000
  external pressure =      -32.09 kB  Pullay stress =        0.00 kB


 VOLUME and BASIS-vectors are now :
 -----------------------------------------------------------------------------
  energy-cutoff  :      360.00
  volume of cell :      206.02
      direct lattice vectors                 reciprocal lattice vectors
     4.300000000  0.000000000  0.000000000     0.232558140  0.000000000  0.000000000
     0.000000000  4.300000000  0.000000000     0.000000000  0.232558140  0.000000000
     0.000000000  0.000000000 11.142221000     0.000000000  0.000000000  0.089748713

  length of vectors
     4.300000000  4.300000000 11.142221000     0.232558140  0.232558140  0.089748713


 FORCES acting on ions
    electron-ion (+dipol)            ewald-force                    non-local-force                 convergence-correction
 -----------------------------------------------------------------------------------------------
   0.194E-07 0.126E-06 0.290E+02   0.251E-14 0.691E-14 -.315E+02   0.348E-07 -.282E-07 0.256E+01   -.612E-07 -.135E-06 0.483E-03
   -.349E-06 -.180E-06 -.290E+02   -.315E-14 -.577E-14 0.315E+02   0.155E-06 0.843E-07 -.256E+01   0.149E-06 0.815E-07 -.477E-03
   0.284E-06 -.487E-06 -.290E+02   -.344E-14 -.594E-14 0.315E+02   -.117E-06 0.231E-06 -.256E+01   -.112E-06 0.274E-06 -.481E-03
   0.148E-06 0.295E-06 0.290E+02   0.252E-14 0.657E-14 -.315E+02   -.160E-06 -.132E-06 0.256E+01   0.170E-07 -.175E-06 0.480E-03
   -.982E-08 -.180E-08 -.325E+02   0.103E-14 0.562E-14 0.347E+02   0.108E-06 0.208E-06 -.214E+01   -.708E-07 -.276E-06 0.107E-02
   -.560E-06 -.462E-06 0.325E+02   -.118E-14 -.599E-14 -.347E+02   0.215E-06 0.168E-06 0.214E+01   0.354E-06 0.131E-06 -.106E-02
   0.867E-06 -.211E-06 0.325E+02   -.132E-14 -.591E-14 -.347E+02   -.211E-06 -.142E-07 0.214E+01   -.465E-06 0.119E-06 -.107E-02
   0.182E-08 0.184E-06 -.325E+02   0.115E-14 0.560E-14 0.347E+02   -.293E-07 0.242E-06 -.214E+01   0.111E-06 -.334E-06 0.106E-02
 -----------------------------------------------------------------------------------------------
   0.401E-06 -.738E-06 0.258E-07   -.187E-14 0.109E-14 -.711E-14   -.397E-08 0.759E-06 -.140E-05   -.786E-07 -.316E-06 0.127E-05
 
 
 POSITION                                       TOTAL-FORCE (eV/Angst)
 -----------------------------------------------------------------------------------
      0.00000      1.07500      1.57095        -0.000000     -0.000000      0.005263
      2.15000      3.22500      4.00016        -0.000000      0.000000     -0.005263
      0.00000      3.22500      9.57127         0.000000      0.000000     -0.005263
      2.15000      1.07500      7.14206        -0.000000      0.000000      0.005263
      0.00000      1.07500      4.05220        -0.000000     -0.000000      0.010840
      2.15000      3.22500      1.51892        -0.000000     -0.000000     -0.010840
      0.00000      3.22500      7.09003         0.000000     -0.000000     -0.010840
      2.15000      1.07500      9.62331         0.000000      0.000000      0.010840
 -----------------------------------------------------------------------------------
    total drift:                                0.000000     -0.000000     -0.000000


--------------------------------------------------------------------------------------------------------



  FREE ENERGIE OF THE ION-ELECTRON SYSTEM (eV)
  ---------------------------------------------------
  free  energy   TOTEN  =       -33.09893053 eV

  energy  without entropy=      -33.09893053  energy(sigma->0) =      -33.09893053
 


--------------------------------------------------------------------------------------------------------


    POTLOK:  cpu time      0.1136: real time      0.1142


--------------------------------------------------------------------------------------------------------


     LOOP+:  cpu time      4.8998: real time      4.9386
    4ORBIT:  cpu time      0.0000: real time      0.0000

 total amount of memory used by VASP MPI-rank0    38776. kBytes
=======================================================================

   base      :      30000. kBytes
   nonl-proj :       6893. kBytes
   fftplans  :        320. kBytes
   grid      :        462. kBytes
   one-center:         16. kBytes
   wavefun   :       1085. kBytes
 
  
  
 General timing and accounting informations for this job:
 ========================================================
  
                  Total CPU time used (sec):        5.739
                            User time (sec):        5.458
                          System time (sec):        0.281
                         Elapsed time (sec):        7.209
  
                   Maximum memory used (kb):      190240.
                   Average memory used (kb):          N/A
  
                          Minor page faults:        21849
                          Major page faults:           39
                 Voluntary context switches:         6171
