 vasp.6.4.2 20Jul23 (build Oct 12 2023 10:31:02) complex                         
 executed on              LinuxNV date 2024.11.01  17:25:34
 running  128 mpi-ranks, with    1 threads/rank, on    2 nodes
 distrk:  each k-point on   64 cores,    2 groups
 distr:  one band on NCORE=   8 cores,    8 groups


--------------------------------------------------------------------------------------------------------


 INCAR:
   ENCUT = 520.000000
   SIGMA = 0.050000
   EDIFF = 1.00e-06
   ALGO = N
   GGA = PE
   PREC = Accurate
   SYSTEM = 01_AOPT
   ICHARG = 0
   ISMEAR = 0
   ISPIN = 2
   ISTART = 1
   ISYM = -1
   KPAR = 2
   LORBIT = 11
   NBANDS = 220
   NELM = 100
   NELMIN = 5
   NPAR = 8
   LASPH = .TRUE.
   LCHARG = .FALSE.
   LWAVE = .FALSE.
   LREAL = .FALSE.

 POTCAR:    PAW_PBE Ge 05Jan2001                  
 POTCAR:    PAW_PBE Se 06Sep2000                  
 -----------------------------------------------------------------------------
|                                                                             |
|           W    W    AA    RRRRR   N    N  II  N    N   GGGG   !!!           |
|           W    W   A  A   R    R  NN   N  II  NN   N  G    G  !!!           |
|           W    W  A    A  R    R  N N  N  II  N N  N  G       !!!           |
|           W WW W  AAAAAA  RRRRR   N  N N  II  N  N N  G  GGG   !            |
|           WW  WW  A    A  R   R   N   NN  II  N   NN  G    G                |
|           W    W  A    A  R    R  N    N  II  N    N   GGGG   !!!           |
|                                                                             |
|     You use a magnetic or noncollinear calculation, but did not specify     |
|     the initial magnetic moment with the MAGMOM tag. Note that a            |
|     default of 1 will be used for all atoms. This ferromagnetic setup       |
|     may break the symmetry of the crystal, in particular it may rule        |
|     out finding an antiferromagnetic solution. Thence, we recommend         |
|     setting the initial magnetic moment manually or verifying carefully     |
|     that this magnetic setup is desired.                                    |
|                                                                             |
 -----------------------------------------------------------------------------

 POTCAR:    PAW_PBE Ge 05Jan2001                  
   VRHFIN =Ge: s2p2                                                                                 
   LEXCH  = PE                                                                                      
   EATOM  =   104.9960 eV,    7.7170 Ry                                                             
                                                                                                    
   TITEL  = PAW_PBE Ge 05Jan2001                                                                    
   LULTRA =        F    use ultrasoft PP ?                                                          
   IUNSCR =        1    unscreen: 0-lin 1-nonlin 2-no                                               
   RPACOR =    2.170    partial core radius                                                         
   POMASS =   72.610; ZVAL   =    4.000    mass and valenz                                          
   RCORE  =    2.300    outmost cutoff radius                                                       
   RWIGS  =    2.300; RWIGS  =    1.217    wigner-seitz radius (au A)                               
   ENMAX  =  173.807; ENMIN  =  130.355 eV                                                          
   ICORE  =        3    local potential                                                             
   LCOR   =        T    correct aug charges                                                         
   LPAW   =        T    paw PP                                                                      
   EAUG   =  385.843                                                                                
   DEXC   =    0.000                                                                                
   RMAX   =    2.342    core radius for proj-oper                                                   
   RAUG   =    1.300    factor for augmentation sphere                                              
   RDEP   =    2.318    radius for radial grids                                                     
   RDEPT  =    2.103    core radius for aug-charge                                                  
                                                                                                    
   Atomic configuration                                                                             
   10 entries                                                                                       
     n  l   j            E        occ.                                                              
     1  0  0.50    -10959.8463   2.0000                                                             
     2  0  0.50     -1371.6056   2.0000                                                             
     2  1  1.50     -1198.4791   6.0000                                                             
     3  0  0.50      -168.4733   2.0000                                                             
     3  1  1.50      -115.6019   6.0000                                                             
     3  2  2.50       -29.3106  10.0000                                                             
     4  0  0.50       -11.7309   2.0000                                                             
     4  1  0.50        -3.8952   2.0000                                                             
     4  2  1.50        -4.0817   0.0000                                                             
     4  3  2.50        -4.0817   0.0000                                                             
   Description                                                                                      
     l       E           TYP  RCUT    TYP  RCUT                                                     
     0    -11.7309493     23  2.300                                                                 
     0     -7.4578696     23  2.300                                                                 
     1     -3.8952261     23  2.300                                                                 
     1      6.1178114     23  2.300                                                                 
     2     -4.0817478     23  2.300                                                                 
     3     -1.3605826      7  2.300                                                                 
  local pseudopotential read in
  partial core-charges read in
  partial kinetic energy density read in
  atomic valenz-charges read in
  non local Contribution for L=            0  read in
    real space projection operators read in
  non local Contribution for L=            0  read in
    real space projection operators read in
  non local Contribution for L=            1  read in
    real space projection operators read in
  non local Contribution for L=            1  read in
    real space projection operators read in
  non local Contribution for L=            2  read in
    real space projection operators read in
    PAW grid and wavefunctions read in
 
   number of l-projection  operators is LMAX  =            5
   number of lm-projection operators is LMMAX =           13
 
 POTCAR:    PAW_PBE Se 06Sep2000                  
   VRHFIN =Se: s2p4                                                                                 
   LEXCH  = PE                                                                                      
   EATOM  =   257.1286 eV,   18.8984 Ry                                                             
                                                                                                    
   TITEL  = PAW_PBE Se 06Sep2000                                                                    
   LULTRA =        F    use ultrasoft PP ?                                                          
   IUNSCR =        1    unscreen: 0-lin 1-nonlin 2-no                                               
   RPACOR =    1.900    partial core radius                                                         
   POMASS =   78.960; ZVAL   =    6.000    mass and valenz                                          
   RCORE  =    2.100    outmost cutoff radius                                                       
   RWIGS  =    2.200; RWIGS  =    1.164    wigner-seitz radius (au A)                               
   ENMAX  =  211.555; ENMIN  =  158.666 eV                                                          
   ICORE  =        3    local potential                                                             
   LCOR   =        T    correct aug charges                                                         
   LPAW   =        T    paw PP                                                                      
   EAUG   =  446.842                                                                                
   DEXC   =    0.000                                                                                
   RMAX   =    2.147    core radius for proj-oper                                                   
   RAUG   =    1.300    factor for augmentation sphere                                              
   RDEP   =    2.177    radius for radial grids                                                     
   RDEPT  =    1.928    core radius for aug-charge                                                  
                                                                                                    
   Atomic configuration                                                                             
   10 entries                                                                                       
     n  l   j            E        occ.                                                              
     1  0  0.50    -12503.4787   2.0000                                                             
     2  0  0.50     -1606.9547   2.0000                                                             
     2  1  1.50     -1413.3140   6.0000                                                             
     3  0  0.50      -213.4885   2.0000                                                             
     3  1  1.50      -152.9538   6.0000                                                             
     3  2  2.50       -53.1221  10.0000                                                             
     4  0  0.50       -17.2865   2.0000                                                             
     4  1  0.50        -6.5110   4.0000                                                             
     4  2  2.50        -6.8029   0.0000                                                             
     4  3  2.50        -6.8029   0.0000                                                             
   Description                                                                                      
     l       E           TYP  RCUT    TYP  RCUT                                                     
     0    -17.2865377     23  2.100                                                                 
     0    -15.3094411     23  2.100                                                                 
     1     -6.5110275     23  2.100                                                                 
     1     -0.0695192     23  2.100                                                                 
     2     -6.8029130     23  2.100                                                                 
     3     -1.3605826      7  2.100                                                                 
  local pseudopotential read in
  partial core-charges read in
  partial kinetic energy density read in
  atomic valenz-charges read in
  non local Contribution for L=            0  read in
    real space projection operators read in
  non local Contribution for L=            0  read in
    real space projection operators read in
  non local Contribution for L=            1  read in
    real space projection operators read in
  non local Contribution for L=            1  read in
    real space projection operators read in
  non local Contribution for L=            2  read in
    real space projection operators read in
    PAW grid and wavefunctions read in
 
   number of l-projection  operators is LMAX  =            5
   number of lm-projection operators is LMMAX =           13
 
 -----------------------------------------------------------------------------
|                                                                             |
|               ----> ADVICE to this user running VASP <----                  |
|                                                                             |
|     You have a (more or less) 'large supercell' and for larger cells it     |
|     might be more efficient to use real-space projection operators.         |
|     Therefore, try LREAL= Auto in the INCAR file.                           |
|     Mind: For very accurate calculation, you might also keep the            |
|     reciprocal projection scheme (i.e. LREAL=.FALSE.).                      |
|                                                                             |
 -----------------------------------------------------------------------------

  PAW_PBE Ge 05Jan2001                  :
 energy of atom  1       EATOM= -104.9960
 kinetic energy error for atom=    0.0002 (will be added to EATOM!!)
  PAW_PBE Se 06Sep2000                  :
 energy of atom  2       EATOM= -257.1286
 kinetic energy error for atom=    0.0007 (will be added to EATOM!!)
 
 
 POSCAR: Ge Se
  positions in cartesian coordinates
  No initial velocities read in
 exchange correlation table for  LEXCH =        8
   RHO(1)=    0.500       N(1)  =     2000
   RHO(2)=  100.500       N(2)  =     4000
 


--------------------------------------------------------------------------------------------------------


 ion  position               nearest neighbor table
   1  0.067  0.040  0.106-  54 2.62  55 2.72  45 2.85
   2  0.225  0.875  0.370-  45 2.47  67 2.60  48 2.66
   3  0.571  0.216  0.365-  49 2.59  68 2.61  56 2.68
   4  0.546  0.552  0.363-  69 2.58  50 2.59  72 2.65
   5  0.599  0.858  0.353-  70 2.48  44 2.58  72 2.69
   6  0.891  0.217  0.371-  55 2.55  56 2.57  46 2.59
   7  0.913  0.514  0.352-  71 2.50  46 2.74  47 2.85
   8  0.907  0.875  0.372-  53 2.51  45 2.53  44 2.67
   9  0.065  0.135  0.605-  37 2.52  51 2.67  57 2.73
  10  0.067  0.485  0.634-  43 2.49  38 2.54  58 2.57
  11  0.054  0.835  0.636-  59 2.59  37 2.69  52 2.82
  12  0.400  0.169  0.623-  60 2.59  40 2.59
  13  0.381  0.500  0.638-  61 2.52  38 2.62  39 2.71
  14  0.427  0.814  0.625-  62 2.52  39 2.69  42 2.69
  15  0.715  0.169  0.632-  63 2.56  40 2.65  41 2.82
  16  0.751  0.475  0.614-  43 2.60  64 2.61  41 2.65
  17  0.226  0.541  0.366-  47 2.54  66 2.59  50 2.84
  18  0.246  0.189  0.368-  54 2.64  48 2.74  49 2.79
  19  0.739  0.816  0.631-  52 2.57  42 2.72  65 2.79
  20  0.895  0.667  0.852-  52 2.49  64 2.64  58 2.71
  21  0.882  0.005  0.865-  37 2.55  65 2.61  63 2.81
  22  0.072  0.354  0.128-  46 2.45  54 2.62  66 2.84
  23  0.075  0.695  0.142-  47 2.57  53 2.69  67 2.71
  24  0.416  0.041  0.138-  48 2.54  68 2.60  70 2.77
  25  0.395  0.375  0.128-  49 2.52  66 2.60  69 2.67
  26  0.743  0.028  0.136-  55 2.50  44 2.56  68 2.68
  27  0.733  0.376  0.109-  71 2.60  69 2.72  56 2.73
  28  0.403  0.706  0.128-  50 2.64  67 2.66  70 2.81
  29  0.218  0.321  0.870-  38 2.49  57 2.59  60 2.63
  30  0.211  0.667  0.867-  58 2.50  59 2.62  39 2.67
  31  0.227  0.976  0.869-  51 2.49  59 2.58  62 2.68
  32  0.529  0.330  0.875-  60 2.64  41 2.65  61 2.70
  33  0.593  0.637  0.874-  64 2.46  42 2.54  61 2.61
  34  0.552  0.986  0.876-  62 2.55  40 2.58  65 2.70
  35  0.904  0.306  0.867-  63 2.59  57 2.62  43 2.62
  36  0.754  0.714  0.142-  72 2.52  53 2.65
  37  0.917  0.002  0.638-   9 2.52  21 2.55  11 2.69
  38  0.227  0.360  0.650-  29 2.49  10 2.54  13 2.62
  39  0.259  0.679  0.633-  30 2.67  14 2.69  13 2.71
  40  0.554  0.031  0.649-  34 2.58  12 2.59  15 2.65
  41  0.581  0.350  0.644-  32 2.65  16 2.65  15 2.82
  42  0.582  0.665  0.648-  33 2.54  14 2.69  19 2.72
  43  0.917  0.352  0.638-  10 2.49  16 2.60  35 2.62
  44  0.741  0.008  0.366-  26 2.56   5 2.58   8 2.67
  45  0.069  0.996  0.358-   2 2.47   8 2.53   1 2.85
  46  0.053  0.346  0.348-  22 2.45   6 2.59   7 2.74
  47  0.074  0.675  0.373-  17 2.54  23 2.57   7 2.85
  48  0.384  0.018  0.362-  24 2.54   2 2.66  18 2.74
  49  0.407  0.343  0.351-  25 2.52   3 2.59  18 2.79
  50  0.394  0.694  0.365-   4 2.59  28 2.64  17 2.84
  51  0.232  0.006  0.648-  31 2.49   9 2.67
  52  0.892  0.679  0.628-  20 2.49  19 2.57  11 2.82
  53  0.921  0.845  0.149-   8 2.51  36 2.65  23 2.69
  54  0.208  0.194  0.134-  22 2.62   1 2.62  18 2.64
  55  0.891  0.163  0.150-  26 2.50   6 2.55   1 2.72
  56  0.737  0.353  0.353-   6 2.57   3 2.68  27 2.73
  57  0.069  0.178  0.847-  29 2.59  35 2.62   9 2.73
  58  0.064  0.531  0.860-  30 2.50  10 2.57  20 2.71
  59  0.080  0.830  0.868-  31 2.58  11 2.59  30 2.62
  60  0.378  0.184  0.854-  12 2.59  29 2.63  32 2.64
  61  0.422  0.517  0.859-  13 2.52  33 2.61  32 2.70
  62  0.400  0.851  0.846-  14 2.52  34 2.55  31 2.68
  63  0.740  0.179  0.861-  15 2.56  35 2.59  21 2.81
  64  0.747  0.516  0.844-  33 2.46  16 2.61  20 2.64
  65  0.730  0.863  0.876-  21 2.61  34 2.70  19 2.79
  66  0.237  0.510  0.135-  17 2.59  25 2.60  22 2.84
  67  0.237  0.839  0.140-   2 2.60  28 2.66  23 2.71
  68  0.581  0.169  0.136-  24 2.60   3 2.61  26 2.68
  69  0.562  0.509  0.136-   4 2.58  25 2.67  27 2.72
  70  0.557  0.870  0.135-   5 2.48  24 2.77  28 2.81
  71  0.887  0.515  0.129-   7 2.50  27 2.60
  72  0.717  0.679  0.362-  36 2.52   4 2.65   5 2.69
 

IMPORTANT INFORMATION: All symmetrisations will be switched off!
NOSYMM: (Re-)initialisation of all symmetry stuff for point group C_1.


----------------------------------------------------------------------------------------

                                     Primitive cell                                     

  volume of cell :    1731.1702

  direct lattice vectors                    reciprocal lattice vectors
    12.458831124  0.000000504  0.000001532     0.080264351 -0.000000003 -0.000000013
     0.000000507 12.524063458  0.000005555    -0.000000003  0.079846290 -0.000000046
     0.000001757  0.000006335 11.094742350    -0.000000011 -0.000000040  0.090132783

  length of vectors
    12.458831124 12.524063458 11.094742350     0.080264351  0.079846290  0.090132783

  position of ions in fractional coordinates (direct lattice)
     0.067051858  0.040487530  0.105936287
     0.224944055  0.875498363  0.369784985
     0.571476338  0.216463904  0.365038195
     0.546111507  0.552183048  0.362505329
     0.599145435  0.858497129  0.353177829
     0.890990802  0.217386192  0.371381393
     0.912641748  0.514089370  0.352224018
     0.907496807  0.874686862  0.371961529
     0.065221649  0.135188142  0.605147497
     0.066533768  0.484504302  0.633902625
     0.054021354  0.835391819  0.635945290
     0.400343984  0.168713418  0.622588792
     0.381447239  0.500424311  0.637623870
     0.427023965  0.813548405  0.624712830
     0.714772868  0.169014776  0.631608751
     0.750974454  0.474632732  0.613720511
     0.226290415  0.540801491  0.365600778
     0.246340583  0.188739712  0.368127305
     0.738536752  0.815758929  0.630778155
     0.895197612  0.667212276  0.852264032
     0.882345233  0.005491970  0.864884421
     0.072252955  0.353625250  0.127814111
     0.075406956  0.694669292  0.141947848
     0.415989002  0.041289547  0.137718307
     0.395470673  0.375203944  0.127688388
     0.742519789  0.028188072  0.136244208
     0.732634980  0.375600631  0.108649309
     0.403496378  0.706420095  0.128278198
     0.218392651  0.320606516  0.869936610
     0.211217192  0.666550168  0.867262456
     0.226852004  0.975917692  0.869335803
     0.529318800  0.330489083  0.874560522
     0.592836507  0.636535561  0.874446807
     0.552025468  0.985658993  0.875549310
     0.903562122  0.305671146  0.867209105
     0.754318683  0.713985153  0.142265102
     0.917340708  0.001545497  0.638403489
     0.226507186  0.359567370  0.650047837
     0.259189729  0.678945820  0.633119586
     0.554178990  0.031444776  0.649255563
     0.581103066  0.350192274  0.644145532
     0.581840257  0.665011341  0.648382058
     0.917476106  0.351907774  0.637523476
     0.740985457  0.008309606  0.365610776
     0.068819682  0.996312428  0.357656256
     0.052793751  0.345665041  0.347602813
     0.073650685  0.674712838  0.372727418
     0.383766484  0.017880610  0.362386943
     0.407058133  0.343089250  0.351481728
     0.394244985  0.693534911  0.365344319
     0.231665775  0.005770985  0.647704152
     0.891602974  0.678805543  0.628017146
     0.921248252  0.845127031  0.149012883
     0.208290598  0.193841939  0.134129050
     0.890527576  0.162902654  0.149927589
     0.736601642  0.353052215  0.353421574
     0.068839570  0.178262200  0.846635205
     0.063866639  0.531376596  0.859776093
     0.080308313  0.829928364  0.867872742
     0.377986849  0.183720797  0.853802021
     0.421857674  0.517479430  0.859201885
     0.400427992  0.851025439  0.845901485
     0.739698675  0.178779651  0.860770964
     0.747197523  0.516469634  0.844240133
     0.730334723  0.862743163  0.876397964
     0.237100044  0.510276094  0.134582150
     0.237223725  0.839047041  0.139863295
     0.580631179  0.169015681  0.135975274
     0.561686847  0.509148898  0.135574013
     0.557098262  0.870153489  0.134918714
     0.886737897  0.514957232  0.128751271
     0.716998451  0.678662771  0.361947388

  ion indices of the primitive-cell ions
   primitive index   ion index
                 1           1
                 2           2
                 3           3
                 4           4
                 5           5
                 6           6
                 7           7
                 8           8
                 9           9
                10          10
                11          11
                12          12
                13          13
                14          14
                15          15
                16          16
                17          17
                18          18
                19          19
                20          20
                21          21
                22          22
                23          23
                24          24
                25          25
                26          26
                27          27
                28          28
                29          29
                30          30
                31          31
                32          32
                33          33
                34          34
                35          35
                36          36
                37          37
                38          38
                39          39
                40          40
                41          41
                42          42
                43          43
                44          44
                45          45
                46          46
                47          47
                48          48
                49          49
                50          50
                51          51
                52          52
                53          53
                54          54
                55          55
                56          56
                57          57
                58          58
                59          59
                60          60
                61          61
                62          62
                63          63
                64          64
                65          65
                66          66
                67          67
                68          68
                69          69
                70          70
                71          71
                72          72

----------------------------------------------------------------------------------------

 
 
 KPOINTS: KPOINTS created by Atomic Simulation Env

Automatic generation of k-mesh.
 Grid dimensions read from file:
 generate k-points for:    2    2    2

 Generating k-lattice:

  Cartesian coordinates                     Fractional coordinates (reciprocal lattice)
     0.040132176 -0.000000002 -0.000000006     0.500000000 -0.000000000 -0.000000000
    -0.000000002  0.039923145 -0.000000023     0.000000000  0.500000000  0.000000000
    -0.000000006 -0.000000020  0.045066391    -0.000000000  0.000000000  0.500000000

  Length of vectors
     0.040132176  0.039923145  0.045066391

  Shift w.r.t. Gamma in fractional coordinates (k-lattice)
     0.000000000  0.000000000  0.000000000

 
 Subroutine IBZKPT returns following result:
 ===========================================
 
 Found      8 irreducible k-points:
 
 Following reciprocal coordinates:
            Coordinates               Weight
  0.000000  0.000000  0.000000      1.000000
  0.500000  0.000000  0.000000      1.000000
  0.000000  0.500000  0.000000      1.000000
  0.500000  0.500000  0.000000      1.000000
  0.000000  0.000000  0.500000      1.000000
  0.500000  0.000000  0.500000      1.000000
  0.000000  0.500000  0.500000      1.000000
  0.500000  0.500000  0.500000      1.000000
 
 Following cartesian coordinates:
            Coordinates               Weight
  0.000000  0.000000  0.000000      1.000000
  0.040132 -0.000000 -0.000000      1.000000
 -0.000000  0.039923 -0.000000      1.000000
  0.040132  0.039923 -0.000000      1.000000
 -0.000000 -0.000000  0.045066      1.000000
  0.040132 -0.000000  0.045066      1.000000
 -0.000000  0.039923  0.045066      1.000000
  0.040132  0.039923  0.045066      1.000000
 
 -----------------------------------------------------------------------------
|                                                                             |
|           W    W    AA    RRRRR   N    N  II  N    N   GGGG   !!!           |
|           W    W   A  A   R    R  NN   N  II  NN   N  G    G  !!!           |
|           W    W  A    A  R    R  N N  N  II  N N  N  G       !!!           |
|           W WW W  AAAAAA  RRRRR   N  N N  II  N  N N  G  GGG   !            |
|           WW  WW  A    A  R   R   N   NN  II  N   NN  G    G                |
|           W    W  A    A  R    R  N    N  II  N    N   GGGG   !!!           |
|                                                                             |
|     The number of bands has been changed from the values supplied in        |
|     the INCAR file. This is a result of running the parallel version.       |
|     The orbitals not found in the WAVECAR file will be initialized with     |
|     random numbers, which is usually adequate. For correlated               |
|     calculations, however, you should redo the groundstate calculation.     |
|     I found NBANDS = 220. Now, NBANDS = 224.                                |
|                                                                             |
 -----------------------------------------------------------------------------



--------------------------------------------------------------------------------------------------------




 Dimension of arrays:
   k-points           NKPTS =      8   k-points in BZ     NKDIM =      8   number of bands    NBANDS=    224
   number of dos      NEDOS =    301   number of ions     NIONS =     72
   non local maximal  LDIM  =      5   non local SUM 2l+1 LMDIM =     13
   total plane-waves  NPLWV = 774144
   max r-space proj   IRMAX =      1   max aug-charges    IRDMAX=  24501
   dimension x,y,z NGX =    96 NGY =   96 NGZ =   84
   dimension x,y,z NGXF=   192 NGYF=  192 NGZF=  168
   support grid    NGXF=   192 NGYF=  192 NGZF=  168
   ions per type =              36  36
   NGX,Y,Z   is equivalent  to a cutoff of  12.81, 12.74, 12.59 a.u.
   NGXF,Y,Z  is equivalent  to a cutoff of  25.62, 25.49, 25.17 a.u.

 SYSTEM =  01_AOPT                                 
 POSCAR =  Ge Se                                   

 Startparameter for this run:
   NWRITE =      2    write-flag & timer
   PREC   = accura    normal or accurate (medium, high low for compatibility)
   ISTART =      0    job   : 0-new  1-cont  2-samecut
   ICHARG =      2    charge: 1-file 2-atom 10-const
   ISPIN  =      2    spin polarized calculation?
   LNONCOLLINEAR =      F non collinear calculations
   LSORBIT =      F    spin-orbit coupling
   INIWAV =      1    electr: 0-lowe 1-rand  2-diag
   LASPH  =      T    aspherical Exc in radial PAW
 Electronic Relaxation 1
   ENCUT  =  520.0 eV  38.22 Ry    6.18 a.u.  23.17 23.29 20.63*2*pi/ulx,y,z
   ENINI  =  520.0     initial cutoff
   ENAUG  =  446.8 eV  augmentation charge cutoff
   NELM   =    100;   NELMIN=  5; NELMDL=  0     # of ELM steps 
   EDIFF  = 0.1E-05   stopping-criterion for ELM
   LREAL  =      F    real-space projection
   NLSPLINE    = F    spline interpolate recip. space projectors
   LCOMPAT=      F    compatible to vasp.4.4
   GGA_COMPAT  = T    GGA compatible to vasp.4.4-vasp.4.6
   LMAXPAW     = -100 max onsite density
   LMAXMIX     =    2 max onsite mixed and CHGCAR
   VOSKOWN=      0    Vosko Wilk Nusair interpolation
   ROPT   =    0.00000   0.00000
 Ionic relaxation
   EDIFFG = 0.1E-04   stopping-criterion for IOM
   NSW    =      0    number of steps for IOM
   NBLOCK =      1;   KBLOCK =      1    inner block; outer block 
   IBRION =     -1    ionic relax: 0-MD 1-quasi-New 2-CG
   NFREE  =      0    steps in history (QN), initial steepest desc. (CG)
   ISIF   =      2    stress and relaxation
   IWAVPR =     10    prediction:  0-non 1-charg 2-wave 3-comb
   ISYM   =     -1    0-nonsym 1-usesym 2-fastsym
   LCORR  =      T    Harris-Foulkes like correction to forces

   POTIM  = 0.5000    time-step for ionic-motion
   TEIN   =    0.0    initial temperature
   TEBEG  =    0.0;   TEEND  =   0.0 temperature during run
   SMASS  =  -3.00    Nose mass-parameter (am)
   estimated Nose-frequenzy (Omega)   =  0.10E-29 period in steps = 0.13E+47 mass=  -0.355E-26a.u.
   SCALEE = 1.0000    scale energy and forces
   NPACO  =    256;   APACO  = 10.0  distance and # of slots for P.C.
   PSTRESS=    0.0 pullay stress

  Mass of Ions in am
   POMASS =  72.61 78.96
  Ionic Valenz
   ZVAL   =   4.00  6.00
  Atomic Wigner-Seitz radii
   RWIGS  =  -1.00 -1.00
  virtual crystal weights 
   VCA    =   1.00  1.00
   NELECT =     360.0000    total number of electrons
   NUPDOWN=      -1.0000    fix difference up-down

 DOS related values:
   EMIN   =  10.00;   EMAX   =-10.00  energy-range for DOS
   EFERMI =   0.00;   METHOD = LEGACY      
   ISMEAR =     0;   SIGMA  =   0.05  broadening in eV -4-tet -1-fermi 0-gaus

 Electronic relaxation 2 (details)
   IALGO  =     38    algorithm
   LDIAG  =      T    sub-space diagonalisation (order eigenvalues)
   LSUBROT=      F    optimize rotation matrix (better conditioning)
   TURBO    =      0    0=normal 1=particle mesh
   IRESTART =      0    0=no restart 2=restart with 2 vectors
   NREBOOT  =      0    no. of reboots
   NMIN     =      0    reboot dimension
   EREF     =   0.00    reference energy to select bands
   IMIX   =      4    mixing-type and parameters
     AMIX     =   0.40;   BMIX     =  1.00
     AMIX_MAG =   1.60;   BMIX_MAG =  1.00
     AMIN     =   0.10
     WC   =   100.;   INIMIX=   1;  MIXPRE=   1;  MAXMIX= -45

 Intra band minimization:
   WEIMIN = 0.0000     energy-eigenvalue tresh-hold
   EBREAK =  0.11E-08  absolut break condition
   DEPER  =   0.30     relativ break condition  

   TIME   =   0.40     timestep for ELM

  volume/ion in A,a.u.               =      24.04       162.26
  Fermi-wavevector in a.u.,A,eV,Ry     =   0.969905  1.832854 12.799207  0.940715
  Thomas-Fermi vector in A             =   2.099996
 
 Write flags
   LWAVE        =      F    write WAVECAR
   LDOWNSAMPLE  =      F    k-point downsampling of WAVECAR
   LCHARG       =      F    write CHGCAR
   LVTOT        =      F    write LOCPOT, total local potential
   LVHAR        =      F    write LOCPOT, Hartree potential only
   LELF         =      F    write electronic localiz. function (ELF)
   LORBIT       =     11    0 simple, 1 ext, 2 COOP (PROOUT), +10 PAW based schemes


 Dipole corrections
   LMONO  =      F    monopole corrections only (constant potential shift)
   LDIPOL =      F    correct potential (dipole corrections)
   IDIPOL =      0    1-x, 2-y, 3-z, 4-all directions 
   EPSILON=  1.0000000 bulk dielectric constant

 Exchange correlation treatment:
   GGA     =    PE    GGA type
   LEXCH   =     8    internal setting for exchange type
   LIBXC   =     F    Libxc                    
   VOSKOWN =     0    Vosko Wilk Nusair interpolation
   LHFCALC =     F    Hartree Fock is set to
   LHFONE  =     F    Hartree Fock one center treatment
   AEXX    =    0.0000 exact exchange contribution

 Linear response parameters
   LEPSILON=     F    determine dielectric tensor
   LRPA    =     F    only Hartree local field effects (RPA)
   LNABLA  =     F    use nabla operator in PAW spheres
   LVEL    =     F    velocity operator in full k-point grid
   CSHIFT  =0.1000    complex shift for real part using Kramers Kronig
   OMEGAMAX=  -1.0    maximum frequency
   DEG_THRESHOLD= 0.2000000E-02 threshold for treating states as degnerate
   RTIME   =   -0.100 relaxation time in fs
  (WPLASMAI=    0.000 imaginary part of plasma frequency in eV, 0.658/RTIME)
   DFIELD  = 0.0000000 0.0000000 0.0000000 field for delta impulse in time
 
  Optional k-point grid parameters
   LKPOINTS_OPT  =     F    use optional k-point grid
   KPOINTS_OPT_MODE=     1    mode for optional k-point grid
 
 Orbital magnetization related:
   ORBITALMAG=     F  switch on orbital magnetization
   LCHIMAG   =     F  perturbation theory with respect to B field
   DQ        =  0.001000  dq finite difference perturbation B field
   LLRAUG    =     F  two centre corrections for induced B field
   LBONE     =     F  B-component reconstruction in AE one-centre
   LVGVCALC  =     T  calculate vGv susceptibility
   LVGVAPPL  =     F  apply vGv susceptibility instead of pGv for G=0

 Random number generation:
   RANDOM_GENERATOR = DEFAULT
   PCG_SEED         = not used


--------------------------------------------------------------------------------------------------------


 Static calculation
 charge density and potential will be updated during run
 spin polarized calculation
 Variant of blocked Davidson
 Davidson routine will perform the subspace rotation
 perform sub-space diagonalisation
    after iterative eigenvector-optimisation
 modified Broyden-mixing scheme, WC =      100.0
 initial mixing is a Kerker type mixing with AMIX =  0.4000 and BMIX =      1.0000
 Hartree-type preconditioning will be used
 using additional bands            44
 reciprocal scheme for non local part
 use partial core corrections
 calculate Harris-corrections to forces 
   (improved forces if not selfconsistent)
 use gradient corrections 
 use of overlap-Matrix (Vanderbilt PP)
 Gauss-broadening in eV      SIGMA  =   0.05


--------------------------------------------------------------------------------------------------------


  energy-cutoff  :      520.00
  volume of cell :     1731.17
      direct lattice vectors                 reciprocal lattice vectors
    12.458831124  0.000000504  0.000001532     0.080264351 -0.000000003 -0.000000013
     0.000000507 12.524063458  0.000005555    -0.000000003  0.079846290 -0.000000046
     0.000001757  0.000006335 11.094742350    -0.000000011 -0.000000040  0.090132783

  length of vectors
    12.458831124 12.524063458 11.094742350     0.080264351  0.079846290  0.090132783


 
 k-points in units of 2pi/SCALE and weight: KPOINTS created by Atomic Simulation Env
   0.00000000  0.00000000  0.00000000       0.125
   0.04013218 -0.00000000 -0.00000001       0.125
  -0.00000000  0.03992314 -0.00000002       0.125
   0.04013217  0.03992314 -0.00000003       0.125
  -0.00000001 -0.00000002  0.04506639       0.125
   0.04013217 -0.00000002  0.04506638       0.125
  -0.00000001  0.03992312  0.04506637       0.125
   0.04013217  0.03992312  0.04506636       0.125
 
 k-points in reciprocal lattice and weights: KPOINTS created by Atomic Simulation Env
   0.00000000  0.00000000  0.00000000       0.125
   0.50000000  0.00000000  0.00000000       0.125
   0.00000000  0.50000000  0.00000000       0.125
   0.50000000  0.50000000  0.00000000       0.125
   0.00000000  0.00000000  0.50000000       0.125
   0.50000000  0.00000000  0.50000000       0.125
   0.00000000  0.50000000  0.50000000       0.125
   0.50000000  0.50000000  0.50000000       0.125
 
 position of ions in fractional coordinates (direct lattice) 
   0.06705186  0.04048753  0.10593629
   0.22494405  0.87549836  0.36978498
   0.57147634  0.21646390  0.36503819
   0.54611151  0.55218305  0.36250533
   0.59914543  0.85849713  0.35317783
   0.89099080  0.21738619  0.37138139
   0.91264175  0.51408937  0.35222402
   0.90749681  0.87468686  0.37196153
   0.06522165  0.13518814  0.60514750
   0.06653377  0.48450430  0.63390262
   0.05402135  0.83539182  0.63594529
   0.40034398  0.16871342  0.62258879
   0.38144724  0.50042431  0.63762387
   0.42702397  0.81354841  0.62471283
   0.71477287  0.16901478  0.63160875
   0.75097445  0.47463273  0.61372051
   0.22629041  0.54080149  0.36560078
   0.24634058  0.18873971  0.36812730
   0.73853675  0.81575893  0.63077815
   0.89519761  0.66721228  0.85226403
   0.88234523  0.00549197  0.86488442
   0.07225296  0.35362525  0.12781411
   0.07540696  0.69466929  0.14194785
   0.41598900  0.04128955  0.13771831
   0.39547067  0.37520394  0.12768839
   0.74251979  0.02818807  0.13624421
   0.73263498  0.37560063  0.10864931
   0.40349638  0.70642010  0.12827820
   0.21839265  0.32060652  0.86993661
   0.21121719  0.66655017  0.86726246
   0.22685200  0.97591769  0.86933580
   0.52931880  0.33048908  0.87456052
   0.59283651  0.63653556  0.87444681
   0.55202547  0.98565899  0.87554931
   0.90356212  0.30567115  0.86720910
   0.75431868  0.71398515  0.14226510
   0.91734071  0.00154550  0.63840349
   0.22650719  0.35956737  0.65004784
   0.25918973  0.67894582  0.63311959
   0.55417899  0.03144478  0.64925556
   0.58110307  0.35019227  0.64414553
   0.58184026  0.66501134  0.64838206
   0.91747611  0.35190777  0.63752348
   0.74098546  0.00830961  0.36561078
   0.06881968  0.99631243  0.35765626
   0.05279375  0.34566504  0.34760281
   0.07365068  0.67471284  0.37272742
   0.38376648  0.01788061  0.36238694
   0.40705813  0.34308925  0.35148173
   0.39424498  0.69353491  0.36534432
   0.23166577  0.00577099  0.64770415
   0.89160297  0.67880554  0.62801715
   0.92124825  0.84512703  0.14901288
   0.20829060  0.19384194  0.13412905
   0.89052758  0.16290265  0.14992759
   0.73660164  0.35305222  0.35342157
   0.06883957  0.17826220  0.84663521
   0.06386664  0.53137660  0.85977609
   0.08030831  0.82992836  0.86787274
   0.37798685  0.18372080  0.85380202
   0.42185767  0.51747943  0.85920189
   0.40042799  0.85102544  0.84590148
   0.73969868  0.17877965  0.86077096
   0.74719752  0.51646963  0.84424013
   0.73033472  0.86274316  0.87639796
   0.23710004  0.51027609  0.13458215
   0.23722373  0.83904704  0.13986329
   0.58063118  0.16901568  0.13597527
   0.56168685  0.50914890  0.13557401
   0.55709826  0.87015349  0.13491871
   0.88673790  0.51495723  0.12875127
   0.71699845  0.67866277  0.36194739
 
 position of ions in cartesian coordinates  (Angst):
   0.83538798  0.50706910  1.17533614
   2.80254108 10.96479951  4.10267434
   7.11992794  2.71101027  4.05000680
   6.80391196  6.91557811  4.02190713
   7.46465285 10.75187506  3.91842270
  11.10070470  2.72256126  4.12038344
  11.37045029  6.43849059  3.90783898
  11.30635056 10.95463658  4.12682358
   0.81258664  1.69310874  6.71395641
   0.82893434  6.06796668  7.03298909
   0.67304446 10.46250421  7.05565387
   4.98781927  2.11298170  6.90746378
   4.75238811  6.26735005  7.07427592
   5.32022098 10.18893603  6.93103306
   8.90523564  2.11675614  7.00753840
   9.35626523  5.94433473  6.80907473
   2.81931498  6.77303462  4.05624978
   3.06911646  2.36379059  4.08427903
   9.20130619 10.21662096  6.99832677
  11.15311770  8.35621474  9.45565493
  10.99299177  0.06878771  9.59567120
   0.90018777  4.42882592  1.41806670
   0.93948313  8.70008324  1.57487878
   5.18273699  0.51711399  1.52795000
   4.92710274  4.69907901  1.41667246
   9.25092891  0.35303043  1.51159568
   9.12777587  4.70404719  1.20543929
   5.02709381  8.84725111  1.42321810
   2.72091885  4.01530198  9.65172467
   2.63152119  8.34792220  9.62205753
   2.82631284 12.22246072  9.64506252
   6.59469524  4.13907205  9.70302631
   7.38605178  7.97201760  9.70176647
   6.87759412 12.34446160  9.71400034
  11.25732956  3.82825077  9.62146466
   9.39792970  8.94199665  1.57839977
  11.42899409  0.01936041  7.08292364
   2.82201610  4.50324879  7.21211562
   3.22920252  8.50316467  7.02430285
   6.90442360  0.39382076  7.20332421
   7.23986628  4.38583464  7.14663155
   7.24905098  8.32864863  7.19363647
  11.43068116  4.40731980  7.07316207
   9.23181332  0.10407272  4.05635854
   0.85741393 12.47788237  3.96810965
   0.65774922  4.32913314  3.85656565
   0.91760244  8.45014880  4.13531853
   4.78128246  0.22394038  4.02059045
   5.07146933  4.29687397  3.89960175
   4.91183268  8.68587775  4.05340554
   2.88628590  0.07228040  7.18611107
  11.10833233  8.50140812  6.96769357
  11.47767709 10.58442597  1.65326565
   2.59505772  2.42768970  1.48812865
  11.09493302  2.04020458  1.66341024
   9.17719626  4.42165096  3.92112439
   0.85766216  2.23257250  9.39320056
   0.79570545  6.65499969  9.53899728
   1.00054966 10.39408104  9.62882920
   4.70927591  2.30093653  9.47271504
   5.25585529  6.48095088  9.53262707
   4.98886664 10.65830217  9.38506437
   9.21578248  2.23905352  9.55003419
   9.30920950  6.46830419  9.36663077
   9.09911895 10.80505605  9.72341551
   2.95398990  6.39073115  1.49315748
   2.95553100 10.50827939  1.55175224
   7.23398613  2.11676427  1.50861246
   6.99796206  6.37661425  1.50416243
   6.94079385 10.89785865  1.49689406
  11.04771820  6.44935831  1.42846640
   8.93296359  8.49961827  4.01571789
 


--------------------------------------------------------------------------------------------------------


 k-point   1 :   0.0000 0.0000 0.0000  plane waves:   46557
 k-point   2 :   0.5000 0.0000 0.0000  plane waves:   46670
 k-point   3 :   0.0000 0.5000 0.0000  plane waves:   46634
 k-point   4 :   0.5000 0.5000 0.0000  plane waves:   46640
 k-point   5 :   0.0000 0.0000 0.5000  plane waves:   46686
 k-point   6 :   0.5000 0.0000 0.5000  plane waves:   46592
 k-point   7 :   0.0000 0.5000 0.5000  plane waves:   46632
 k-point   8 :   0.5000 0.5000 0.5000  plane waves:   46576

 maximum and minimum number of plane-waves per node :      5880     5780

 maximum number of plane-waves:     46686
 maximum index in each direction: 
   IXMAX=   23   IYMAX=   23   IZMAX=   20
   IXMIN=  -23   IYMIN=  -23   IZMIN=  -21


 parallel 3D FFT for wavefunctions:
    minimum data exchange during FFTs selected (reduces bandwidth)
 parallel 3D FFT for charge:
    minimum data exchange during FFTs selected (reduces bandwidth)


 total amount of memory used by VASP MPI-rank0   111004. kBytes
=======================================================================

   base      :      30000. kBytes
   nonl-proj :      16422. kBytes
   fftplans  :       6180. kBytes
   grid      :      15593. kBytes
   one-center:        146. kBytes
   wavefun   :      42663. kBytes
 
     INWAV:  cpu time      0.0000: real time      0.0001
 Broyden mixing: mesh for mixing (old mesh)
   NGX = 47   NGY = 47   NGZ = 41
  (NGX  =192   NGY  =192   NGZ  =168)
  gives a total of  90569 points

 initial charge density was supplied:
 charge density of overlapping atoms calculated
 number of electron     360.0000000 magnetization      72.0000000
 keeping initial charge density in first step


--------------------------------------------------------------------------------------------------------


 Maximum index for augmentation-charges           727 (set IRDMAX)


--------------------------------------------------------------------------------------------------------


 First call to EWALD:  gamma=   0.148
 Maximum number of real-space cells 3x 3x 3
 Maximum number of reciprocal cells 3x 3x 3

    FEWALD:  cpu time      0.0124: real time      0.0124


--------------------------------------- Ionic step        1  -------------------------------------------




--------------------------------------- Iteration      1(   1)  ---------------------------------------


    POTLOK:  cpu time      0.1375: real time      0.1384
    SETDIJ:  cpu time      0.5987: real time      0.6006
     EDDAV:  cpu time      8.5666: real time      8.6207
       DOS:  cpu time      0.0016: real time      0.0016
    --------------------------------------------
      LOOP:  cpu time      9.3044: real time      9.3612

 eigenvalue-minimisations  :  7168
 total energy-change (2. order) : 0.1819092E+04  (-0.1417110E+05)
 number of electron     360.0000000 magnetization      72.0000000
 augmentation part      360.0000000 magnetization      72.0000000

 Free energy of the ion-electron system (eV)
  ---------------------------------------------------
  alpha Z        PSCENC =       792.81635173
  Ewald energy   TEWEN  =    -12828.15011923
  -Hartree energ DENC   =     -1126.80890094
  -exchange      EXHF   =         0.00000000
  -V(xc)+E(xc)   XCENC  =      -294.11188062
  PAW double counting   =     10738.42099860    -9719.93139476
  entropy T*S    EENTRO =        -0.02108129
  eigenvalues    EBANDS =      1220.42637711
  atomic energy  EATOM  =     13036.45147835
  Solvation  Ediel_sol  =         0.00000000
  ---------------------------------------------------
  free energy    TOTEN  =      1819.09182896 eV

  energy without entropy =     1819.11291025  energy(sigma->0) =     1819.10236960


--------------------------------------------------------------------------------------------------------




--------------------------------------- Iteration      1(   2)  ---------------------------------------


     EDDAV:  cpu time      9.7503: real time      9.8056
       DOS:  cpu time      0.0015: real time      0.0015
    --------------------------------------------
      LOOP:  cpu time      9.7517: real time      9.8071

 eigenvalue-minimisations  :  8448
 total energy-change (2. order) :-0.1882370E+04  (-0.1807207E+04)
 number of electron     360.0000000 magnetization      72.0000000
 augmentation part      360.0000000 magnetization      72.0000000

 Free energy of the ion-electron system (eV)
  ---------------------------------------------------
  alpha Z        PSCENC =       792.81635173
  Ewald energy   TEWEN  =    -12828.15011923
  -Hartree energ DENC   =     -1126.80890094
  -exchange      EXHF   =         0.00000000
  -V(xc)+E(xc)   XCENC  =      -294.11188062
  PAW double counting   =     10738.42099860    -9719.93139476
  entropy T*S    EENTRO =        -0.01644864
  eigenvalues    EBANDS =      -661.94839998
  atomic energy  EATOM  =     13036.45147835
  Solvation  Ediel_sol  =         0.00000000
  ---------------------------------------------------
  free energy    TOTEN  =       -63.27831548 eV

  energy without entropy =      -63.26186684  energy(sigma->0) =      -63.27009116


--------------------------------------------------------------------------------------------------------




--------------------------------------- Iteration      1(   3)  ---------------------------------------


     EDDAV:  cpu time      9.7601: real time      9.8119
       DOS:  cpu time      0.0012: real time      0.0012
    --------------------------------------------
      LOOP:  cpu time      9.7613: real time      9.8131

 eigenvalue-minimisations  :  8600
 total energy-change (2. order) :-0.2186509E+03  (-0.2129831E+03)
 number of electron     360.0000000 magnetization      72.0000000
 augmentation part      360.0000000 magnetization      72.0000000

 Free energy of the ion-electron system (eV)
  ---------------------------------------------------
  alpha Z        PSCENC =       792.81635173
  Ewald energy   TEWEN  =    -12828.15011923
  -Hartree energ DENC   =     -1126.80890094
  -exchange      EXHF   =         0.00000000
  -V(xc)+E(xc)   XCENC  =      -294.11188062
  PAW double counting   =     10738.42099860    -9719.93139476
  entropy T*S    EENTRO =        -0.00001336
  eigenvalues    EBANDS =      -880.61575654
  atomic energy  EATOM  =     13036.45147835
  Solvation  Ediel_sol  =         0.00000000
  ---------------------------------------------------
  free energy    TOTEN  =      -281.92923676 eV

  energy without entropy =     -281.92922340  energy(sigma->0) =     -281.92923008


--------------------------------------------------------------------------------------------------------




--------------------------------------- Iteration      1(   4)  ---------------------------------------


     EDDAV:  cpu time      9.9998: real time     10.0556
       DOS:  cpu time      0.0013: real time      0.0013
    --------------------------------------------
      LOOP:  cpu time     10.0012: real time     10.0569

 eigenvalue-minimisations  :  8736
 total energy-change (2. order) :-0.7967411E+01  (-0.7876708E+01)
 number of electron     360.0000000 magnetization      72.0000000
 augmentation part      360.0000000 magnetization      72.0000000

 Free energy of the ion-electron system (eV)
  ---------------------------------------------------
  alpha Z        PSCENC =       792.81635173
  Ewald energy   TEWEN  =    -12828.15011923
  -Hartree energ DENC   =     -1126.80890094
  -exchange      EXHF   =         0.00000000
  -V(xc)+E(xc)   XCENC  =      -294.11188062
  PAW double counting   =     10738.42099860    -9719.93139476
  entropy T*S    EENTRO =        -0.00000023
  eigenvalues    EBANDS =      -888.58318024
  atomic energy  EATOM  =     13036.45147835
  Solvation  Ediel_sol  =         0.00000000
  ---------------------------------------------------
  free energy    TOTEN  =      -289.89664732 eV

  energy without entropy =     -289.89664710  energy(sigma->0) =     -289.89664721


--------------------------------------------------------------------------------------------------------




--------------------------------------- Iteration      1(   5)  ---------------------------------------


     EDDAV:  cpu time     10.3043: real time     10.3586
       DOS:  cpu time      0.0013: real time      0.0013
    CHARGE:  cpu time      0.4227: real time      0.4247
    MIXING:  cpu time      0.0070: real time      0.0071
    --------------------------------------------
      LOOP:  cpu time     10.7352: real time     10.7918

 eigenvalue-minimisations  :  9136
 total energy-change (2. order) :-0.3023088E+00  (-0.3015293E+00)
 number of electron     360.0000000 magnetization      48.8354297
 augmentation part      -66.8454257 magnetization      49.0450421

 Broyden mixing:
  rms(total) = 0.29224E+01    rms(broyden)= 0.29224E+01
  rms(prec ) = 0.30768E+01
  weight for this iteration     100.00

 Free energy of the ion-electron system (eV)
  ---------------------------------------------------
  alpha Z        PSCENC =       792.81635173
  Ewald energy   TEWEN  =    -12828.15011923
  -Hartree energ DENC   =     -1126.80890094
  -exchange      EXHF   =         0.00000000
  -V(xc)+E(xc)   XCENC  =      -294.11188062
  PAW double counting   =     10738.42099860    -9719.93139476
  entropy T*S    EENTRO =        -0.00000030
  eigenvalues    EBANDS =      -888.88548901
  atomic energy  EATOM  =     13036.45147835
  Solvation  Ediel_sol  =         0.00000000
  ---------------------------------------------------
  free energy    TOTEN  =      -290.19895617 eV

  energy without entropy =     -290.19895587  energy(sigma->0) =     -290.19895602


--------------------------------------------------------------------------------------------------------




--------------------------------------- Iteration      1(   6)  ---------------------------------------


    POTLOK:  cpu time      0.1330: real time      0.1342
    SETDIJ:  cpu time      0.5977: real time      0.5997
     EDDAV:  cpu time      9.2756: real time      9.3243
       DOS:  cpu time      0.0014: real time      0.0014
    CHARGE:  cpu time      0.4236: real time      0.4251
    MIXING:  cpu time      0.0071: real time      0.0071
    --------------------------------------------
      LOOP:  cpu time     10.4383: real time     10.4918

 eigenvalue-minimisations  :  7960
 total energy-change (2. order) : 0.2531582E+00  (-0.2640774E+01)
 number of electron     360.0000000 magnetization      27.9715742
 augmentation part      -66.2291106 magnetization      29.1506417

 Broyden mixing:
  rms(total) = 0.17337E+01    rms(broyden)= 0.17337E+01
  rms(prec ) = 0.17705E+01
  weight for this iteration     100.00

 eigenvalues of (default mixing * dielectric matrix)
  average eigenvalue GAMMA=   1.0083
  1.0083

 Free energy of the ion-electron system (eV)
  ---------------------------------------------------
  alpha Z        PSCENC =       792.81635173
  Ewald energy   TEWEN  =    -12828.15011923
  -Hartree energ DENC   =     -1180.36432066
  -exchange      EXHF   =         0.00000000
  -V(xc)+E(xc)   XCENC  =      -287.49813497
  PAW double counting   =     13032.87326316   -12017.89839089
  entropy T*S    EENTRO =        -0.00000159
  eigenvalues    EBANDS =      -838.17592391
  atomic energy  EATOM  =     13036.45147835
  Solvation  Ediel_sol  =         0.00000000
  ---------------------------------------------------
  free energy    TOTEN  =      -289.94579799 eV

  energy without entropy =     -289.94579641  energy(sigma->0) =     -289.94579720


--------------------------------------------------------------------------------------------------------




--------------------------------------- Iteration      1(   7)  ---------------------------------------


    POTLOK:  cpu time      0.1305: real time      0.1314
    SETDIJ:  cpu time      0.5973: real time      0.5990
     EDDAV:  cpu time      9.3040: real time      9.3488
       DOS:  cpu time      0.0009: real time      0.0009
    CHARGE:  cpu time      0.4145: real time      0.4162
    MIXING:  cpu time      0.0076: real time      0.0076
    --------------------------------------------
      LOOP:  cpu time     10.4548: real time     10.5040

 eigenvalue-minimisations  :  8040
 total energy-change (2. order) :-0.7239288E+01  (-0.8546505E+00)
 number of electron     360.0000000 magnetization       9.1496547
 augmentation part      -66.2157450 magnetization       9.8290043

 Broyden mixing:
  rms(total) = 0.91081E+00    rms(broyden)= 0.91081E+00
  rms(prec ) = 0.92706E+00
  weight for this iteration     100.00

 eigenvalues of (default mixing * dielectric matrix)
  average eigenvalue GAMMA=   1.4612
  0.8620  2.0605

 Free energy of the ion-electron system (eV)
  ---------------------------------------------------
  alpha Z        PSCENC =       792.81635173
  Ewald energy   TEWEN  =    -12828.15011923
  -Hartree energ DENC   =     -1197.48738565
  -exchange      EXHF   =         0.00000000
  -V(xc)+E(xc)   XCENC  =      -290.46279939
  PAW double counting   =     15136.98151517   -14123.63181157
  entropy T*S    EENTRO =        -0.00000000
  eigenvalues    EBANDS =      -823.70231545
  atomic energy  EATOM  =     13036.45147835
  Solvation  Ediel_sol  =         0.00000000
  ---------------------------------------------------
  free energy    TOTEN  =      -297.18508603 eV

  energy without entropy =     -297.18508603  energy(sigma->0) =     -297.18508603


--------------------------------------------------------------------------------------------------------




--------------------------------------- Iteration      1(   8)  ---------------------------------------


    POTLOK:  cpu time      0.1287: real time      0.1293
    SETDIJ:  cpu time      0.5980: real time      0.6001
     EDDAV:  cpu time      9.4087: real time      9.4526
       DOS:  cpu time      0.0010: real time      0.0010
    CHARGE:  cpu time      0.4155: real time      0.4170
    MIXING:  cpu time      0.0073: real time      0.0073
    --------------------------------------------
      LOOP:  cpu time     10.5593: real time     10.6073

 eigenvalue-minimisations  :  8152
 total energy-change (2. order) :-0.3239572E+01  (-0.1744739E+00)
 number of electron     360.0000000 magnetization       4.4211532
 augmentation part      -66.2186102 magnetization       4.7293998

 Broyden mixing:
  rms(total) = 0.32798E+00    rms(broyden)= 0.32798E+00
  rms(prec ) = 0.33333E+00
  weight for this iteration     100.00

 eigenvalues of (default mixing * dielectric matrix)
  average eigenvalue GAMMA=   1.3584
  2.4973  0.9246  0.6532

 Free energy of the ion-electron system (eV)
  ---------------------------------------------------
  alpha Z        PSCENC =       792.81635173
  Ewald energy   TEWEN  =    -12828.15011923
  -Hartree energ DENC   =     -1202.64880630
  -exchange      EXHF   =         0.00000000
  -V(xc)+E(xc)   XCENC  =      -290.11367329
  PAW double counting   =     16935.12170371   -15922.72068157
  entropy T*S    EENTRO =        -0.00000000
  eigenvalues    EBANDS =      -821.18091133
  atomic energy  EATOM  =     13036.45147835
  Solvation  Ediel_sol  =         0.00000000
  ---------------------------------------------------
  free energy    TOTEN  =      -300.42465791 eV

  energy without entropy =     -300.42465791  energy(sigma->0) =     -300.42465791


--------------------------------------------------------------------------------------------------------




--------------------------------------- Iteration      1(   9)  ---------------------------------------


    POTLOK:  cpu time      0.1286: real time      0.1294
    SETDIJ:  cpu time      0.5988: real time      0.6005
     EDDAV:  cpu time     10.2033: real time     10.2490
       DOS:  cpu time      0.0008: real time      0.0008
    CHARGE:  cpu time      0.4237: real time      0.4254
    MIXING:  cpu time      0.0089: real time      0.0089
    --------------------------------------------
      LOOP:  cpu time     11.3641: real time     11.4141

 eigenvalue-minimisations  :  9080
 total energy-change (2. order) :-0.3748914E+00  (-0.4193536E-01)
 number of electron     360.0000000 magnetization       2.3175560
 augmentation part      -66.2547921 magnetization       2.4726446

 Broyden mixing:
  rms(total) = 0.14904E+00    rms(broyden)= 0.14904E+00
  rms(prec ) = 0.15074E+00
  weight for this iteration     100.00

 eigenvalues of (default mixing * dielectric matrix)
  average eigenvalue GAMMA=   1.3283
  2.6311  1.2336  0.8302  0.6183

 Free energy of the ion-electron system (eV)
  ---------------------------------------------------
  alpha Z        PSCENC =       792.81635173
  Ewald energy   TEWEN  =    -12828.15011923
  -Hartree energ DENC   =     -1201.69644365
  -exchange      EXHF   =         0.00000000
  -V(xc)+E(xc)   XCENC  =      -290.15485742
  PAW double counting   =     17213.24856412   -16201.18195759
  entropy T*S    EENTRO =        -0.00000000
  eigenvalues    EBANDS =      -822.13256564
  atomic energy  EATOM  =     13036.45147835
  Solvation  Ediel_sol  =         0.00000000
  ---------------------------------------------------
  free energy    TOTEN  =      -300.79954932 eV

  energy without entropy =     -300.79954932  energy(sigma->0) =     -300.79954932


--------------------------------------------------------------------------------------------------------




--------------------------------------- Iteration      1(  10)  ---------------------------------------


    POTLOK:  cpu time      0.1288: real time      0.1294
    SETDIJ:  cpu time      0.5986: real time      0.6006
     EDDAV:  cpu time      9.4530: real time      9.5020
       DOS:  cpu time      0.0008: real time      0.0008
    CHARGE:  cpu time      0.4207: real time      0.4225
    MIXING:  cpu time      0.0075: real time      0.0075
    --------------------------------------------
      LOOP:  cpu time     10.6094: real time     10.6628

 eigenvalue-minimisations  :  8176
 total energy-change (2. order) :-0.1069139E+00  (-0.9676859E-02)
 number of electron     360.0000000 magnetization       0.7531215
 augmentation part      -66.2574272 magnetization       0.8220523

 Broyden mixing:
  rms(total) = 0.73532E-01    rms(broyden)= 0.73532E-01
  rms(prec ) = 0.74603E-01
  weight for this iteration     100.00

 eigenvalues of (default mixing * dielectric matrix)
  average eigenvalue GAMMA=   1.3774
  2.7047  1.7674  0.9707  0.8192  0.6252

 Free energy of the ion-electron system (eV)
  ---------------------------------------------------
  alpha Z        PSCENC =       792.81635173
  Ewald energy   TEWEN  =    -12828.15011923
  -Hartree energ DENC   =     -1201.88415710
  -exchange      EXHF   =         0.00000000
  -V(xc)+E(xc)   XCENC  =      -290.14992790
  PAW double counting   =     17223.55936703   -16211.50466470
  entropy T*S    EENTRO =        -0.00000000
  eigenvalues    EBANDS =      -822.04479144
  atomic energy  EATOM  =     13036.45147835
  Solvation  Ediel_sol  =         0.00000000
  ---------------------------------------------------
  free energy    TOTEN  =      -300.90646325 eV

  energy without entropy =     -300.90646325  energy(sigma->0) =     -300.90646325


--------------------------------------------------------------------------------------------------------




--------------------------------------- Iteration      1(  11)  ---------------------------------------


    POTLOK:  cpu time      0.1291: real time      0.1298
    SETDIJ:  cpu time      0.5985: real time      0.6000
     EDDAV:  cpu time     10.0035: real time     10.0738
       DOS:  cpu time      0.0009: real time      0.0009
    CHARGE:  cpu time      0.4155: real time      0.4173
    MIXING:  cpu time      0.0078: real time      0.0079
    --------------------------------------------
      LOOP:  cpu time     11.1554: real time     11.2297

 eigenvalue-minimisations  :  8840
 total energy-change (2. order) :-0.3226715E-01  (-0.3651772E-02)
 number of electron     360.0000000 magnetization       0.1885698
 augmentation part      -66.2431168 magnetization       0.2076464

 Broyden mixing:
  rms(total) = 0.28973E-01    rms(broyden)= 0.28973E-01
  rms(prec ) = 0.29458E-01
  weight for this iteration     100.00

 eigenvalues of (default mixing * dielectric matrix)
  average eigenvalue GAMMA=   1.4048
  2.9094  2.1738  1.1717  0.8546  0.6950  0.6242

 Free energy of the ion-electron system (eV)
  ---------------------------------------------------
  alpha Z        PSCENC =       792.81635173
  Ewald energy   TEWEN  =    -12828.15011923
  -Hartree energ DENC   =     -1203.00470902
  -exchange      EXHF   =         0.00000000
  -V(xc)+E(xc)   XCENC  =      -290.10498659
  PAW double counting   =     17149.56010572   -16137.47872479
  entropy T*S    EENTRO =        -0.00000000
  eigenvalues    EBANDS =      -821.02812658
  atomic energy  EATOM  =     13036.45147835
  Solvation  Ediel_sol  =         0.00000000
  ---------------------------------------------------
  free energy    TOTEN  =      -300.93873040 eV

  energy without entropy =     -300.93873040  energy(sigma->0) =     -300.93873040


--------------------------------------------------------------------------------------------------------




--------------------------------------- Iteration      1(  12)  ---------------------------------------


    POTLOK:  cpu time      0.1363: real time      0.1378
    SETDIJ:  cpu time      0.5954: real time      0.5971
     EDDAV:  cpu time      9.9208: real time      9.9669
       DOS:  cpu time      0.0007: real time      0.0007
    CHARGE:  cpu time      0.4208: real time      0.4224
    MIXING:  cpu time      0.0091: real time      0.0091
    --------------------------------------------
      LOOP:  cpu time     11.0832: real time     11.1340

 eigenvalue-minimisations  :  8640
 total energy-change (2. order) :-0.3414884E-02  (-0.4555244E-03)
 number of electron     360.0000000 magnetization       0.0642951
 augmentation part      -66.2424131 magnetization       0.0690437

 Broyden mixing:
  rms(total) = 0.11166E-01    rms(broyden)= 0.11166E-01
  rms(prec ) = 0.11758E-01
  weight for this iteration     100.00

 eigenvalues of (default mixing * dielectric matrix)
  average eigenvalue GAMMA=   1.3656
  3.0070  2.3282  1.2039  0.8805  0.8805  0.6074  0.6515

 Free energy of the ion-electron system (eV)
  ---------------------------------------------------
  alpha Z        PSCENC =       792.81635173
  Ewald energy   TEWEN  =    -12828.15011923
  -Hartree energ DENC   =     -1203.11296722
  -exchange      EXHF   =         0.00000000
  -V(xc)+E(xc)   XCENC  =      -290.10601320
  PAW double counting   =     17113.48988572   -16101.38576093
  entropy T*S    EENTRO =        -0.00000000
  eigenvalues    EBANDS =      -820.94500050
  atomic energy  EATOM  =     13036.45147835
  Solvation  Ediel_sol  =         0.00000000
  ---------------------------------------------------
  free energy    TOTEN  =      -300.94214528 eV

  energy without entropy =     -300.94214528  energy(sigma->0) =     -300.94214528


--------------------------------------------------------------------------------------------------------




--------------------------------------- Iteration      1(  13)  ---------------------------------------


    POTLOK:  cpu time      0.1279: real time      0.1285
    SETDIJ:  cpu time      0.5984: real time      0.6001
     EDDAV:  cpu time     10.8850: real time     10.9346
       DOS:  cpu time      0.0008: real time      0.0008
    CHARGE:  cpu time      0.4209: real time      0.4224
    MIXING:  cpu time      0.0077: real time      0.0078
    --------------------------------------------
      LOOP:  cpu time     12.0407: real time     12.0942

 eigenvalue-minimisations  :  9768
 total energy-change (2. order) :-0.1374443E-03  (-0.6330644E-04)
 number of electron     360.0000000 magnetization       0.0168956
 augmentation part      -66.2439279 magnetization       0.0177644

 Broyden mixing:
  rms(total) = 0.47058E-02    rms(broyden)= 0.47058E-02
  rms(prec ) = 0.49146E-02
  weight for this iteration     100.00

 eigenvalues of (default mixing * dielectric matrix)
  average eigenvalue GAMMA=   1.3526
  3.0566  2.4355  1.1116  1.1116  0.9940  0.8577  0.6464  0.6074

 Free energy of the ion-electron system (eV)
  ---------------------------------------------------
  alpha Z        PSCENC =       792.81635173
  Ewald energy   TEWEN  =    -12828.15011923
  -Hartree energ DENC   =     -1203.01106737
  -exchange      EXHF   =         0.00000000
  -V(xc)+E(xc)   XCENC  =      -290.11611240
  PAW double counting   =     17099.67480460   -16087.55951854
  entropy T*S    EENTRO =        -0.00000000
  eigenvalues    EBANDS =      -821.04809987
  atomic energy  EATOM  =     13036.45147835
  Solvation  Ediel_sol  =         0.00000000
  ---------------------------------------------------
  free energy    TOTEN  =      -300.94228273 eV

  energy without entropy =     -300.94228273  energy(sigma->0) =     -300.94228273


--------------------------------------------------------------------------------------------------------




--------------------------------------- Iteration      1(  14)  ---------------------------------------


    POTLOK:  cpu time      0.1284: real time      0.1290
    SETDIJ:  cpu time      0.5989: real time      0.6006
     EDDAV:  cpu time      9.6949: real time      9.7421
       DOS:  cpu time      0.0008: real time      0.0008
    CHARGE:  cpu time      0.4193: real time      0.4208
    MIXING:  cpu time      0.0080: real time      0.0080
    --------------------------------------------
      LOOP:  cpu time     10.8502: real time     10.9015

 eigenvalue-minimisations  :  8376
 total energy-change (2. order) :-0.1831981E-04  (-0.9280614E-05)
 number of electron     360.0000000 magnetization       0.0052857
 augmentation part      -66.2435852 magnetization       0.0056350

 Broyden mixing:
  rms(total) = 0.17436E-02    rms(broyden)= 0.17436E-02
  rms(prec ) = 0.18493E-02
  weight for this iteration     100.00

 eigenvalues of (default mixing * dielectric matrix)
  average eigenvalue GAMMA=   1.3361
  3.0841  2.4629  1.4670  1.2058  0.8809  0.8809  0.7914  0.6100  0.6418

 Free energy of the ion-electron system (eV)
  ---------------------------------------------------
  alpha Z        PSCENC =       792.81635173
  Ewald energy   TEWEN  =    -12828.15011923
  -Hartree energ DENC   =     -1203.01469866
  -exchange      EXHF   =         0.00000000
  -V(xc)+E(xc)   XCENC  =      -290.11688900
  PAW double counting   =     17094.83298497   -16082.71465099
  entropy T*S    EENTRO =        -0.00000000
  eigenvalues    EBANDS =      -821.04675824
  atomic energy  EATOM  =     13036.45147835
  Solvation  Ediel_sol  =         0.00000000
  ---------------------------------------------------
  free energy    TOTEN  =      -300.94230105 eV

  energy without entropy =     -300.94230105  energy(sigma->0) =     -300.94230105


--------------------------------------------------------------------------------------------------------




--------------------------------------- Iteration      1(  15)  ---------------------------------------


    POTLOK:  cpu time      0.1283: real time      0.1289
    SETDIJ:  cpu time      0.5982: real time      0.5998
     EDDAV:  cpu time      9.7927: real time      9.8372
       DOS:  cpu time      0.0008: real time      0.0008
    CHARGE:  cpu time      0.4155: real time      0.4173
    MIXING:  cpu time      0.0082: real time      0.0082
    --------------------------------------------
      LOOP:  cpu time     10.9437: real time     10.9923

 eigenvalue-minimisations  :  8520
 total energy-change (2. order) :-0.3876683E-05  (-0.1821807E-05)
 number of electron     360.0000000 magnetization       0.0017885
 augmentation part      -66.2437376 magnetization       0.0020055

 Broyden mixing:
  rms(total) = 0.78512E-03    rms(broyden)= 0.78512E-03
  rms(prec ) = 0.83070E-03
  weight for this iteration     100.00

 eigenvalues of (default mixing * dielectric matrix)
  average eigenvalue GAMMA=   1.3032
  3.0966  2.4335  1.6841  1.1062  0.9718  0.9718  0.8290  0.7029  0.6179  0.6179

 Free energy of the ion-electron system (eV)
  ---------------------------------------------------
  alpha Z        PSCENC =       792.81635173
  Ewald energy   TEWEN  =    -12828.15011923
  -Hartree energ DENC   =     -1203.00023420
  -exchange      EXHF   =         0.00000000
  -V(xc)+E(xc)   XCENC  =      -290.11740379
  PAW double counting   =     17094.34797173   -16082.22884794
  entropy T*S    EENTRO =        -0.00000000
  eigenvalues    EBANDS =      -821.06150159
  atomic energy  EATOM  =     13036.45147835
  Solvation  Ediel_sol  =         0.00000000
  ---------------------------------------------------
  free energy    TOTEN  =      -300.94230492 eV

  energy without entropy =     -300.94230492  energy(sigma->0) =     -300.94230492


--------------------------------------------------------------------------------------------------------




--------------------------------------- Iteration      1(  16)  ---------------------------------------


    POTLOK:  cpu time      0.1291: real time      0.1298
    SETDIJ:  cpu time      0.5979: real time      0.5995
     EDDAV:  cpu time      6.8062: real time      6.8378
       DOS:  cpu time      0.0011: real time      0.0011
    --------------------------------------------
      LOOP:  cpu time      7.5343: real time      7.5682

 eigenvalue-minimisations  :  5032
 total energy-change (2. order) :-0.6668167E-06  (-0.1594890E-06)
 number of electron     360.0000000 magnetization       0.0017885
 augmentation part      -66.2437376 magnetization       0.0020055

 Free energy of the ion-electron system (eV)
  ---------------------------------------------------
  alpha Z        PSCENC =       792.81635173
  Ewald energy   TEWEN  =    -12828.15011923
  -Hartree energ DENC   =     -1202.99365320
  -exchange      EXHF   =         0.00000000
  -V(xc)+E(xc)   XCENC  =      -290.11773178
  PAW double counting   =     17094.25934504   -16082.13994923
  entropy T*S    EENTRO =        -0.00000000
  eigenvalues    EBANDS =      -821.06802729
  atomic energy  EATOM  =     13036.45147835
  Solvation  Ediel_sol  =         0.00000000
  ---------------------------------------------------
  free energy    TOTEN  =      -300.94230559 eV

  energy without entropy =     -300.94230559  energy(sigma->0) =     -300.94230559


--------------------------------------------------------------------------------------------------------




 average (electrostatic) potential at core
  the test charge radii are     1.1631  1.0808
  (the norm of the test charge is              1.0000)
       1 -33.8624       2 -33.2930       3 -33.5459       4 -33.3764       5 -33.3667
       6 -33.4395       7 -33.5931       8 -33.4147       9 -33.5602      10 -33.3439
      11 -33.6881      12 -33.7082      13 -33.3432      14 -33.3255      15 -33.5995
      16 -33.5056      17 -33.4793      18 -33.7483      19 -33.6009      20 -33.4009
      21 -33.5719      22 -33.5288      23 -33.5415      24 -33.5113      25 -33.4502
      26 -33.3944      27 -33.7376      28 -33.5883      29 -33.3802      30 -33.3202
      31 -33.3793      32 -33.5334      33 -33.2078      34 -33.3813      35 -33.4652
      36 -33.6332      37 -55.0599      38 -54.9766      39 -54.6413      40 -54.8620
      41 -54.7936      42 -54.7630      43 -55.0217      44 -54.9497      45 -54.9374
      46 -55.0268      47 -54.9303      48 -54.8229      49 -54.9598      50 -54.8137
      51 -54.7499      52 -54.9903      53 -54.9839      54 -54.9553      55 -54.9244
      56 -54.9697      57 -54.8936      58 -54.8509      59 -55.0080      60 -54.9447
      61 -54.8049      62 -54.7751      63 -54.9147      64 -54.8656      65 -54.8481
      66 -54.9090      67 -54.7341      68 -54.8652      69 -54.8333      70 -54.8706
      71 -54.8496      72 -54.9661
 
 
 
 E-fermi :   3.4124     XC(G=0):  -9.3463     alpha+bet : -8.7758

 Fermi energy:         3.4123727662

 spin component 1

 k-point     1 :       0.0000    0.0000    0.0000
  band No.  band energies     occupation 
      1     -10.9302      1.00000
      2     -10.5941      1.00000
      3     -10.4590      1.00000
      4     -10.3837      1.00000
      5     -10.3172      1.00000
      6     -10.2976      1.00000
      7     -10.1593      1.00000
      8     -10.0693      1.00000
      9     -10.0506      1.00000
     10     -10.0059      1.00000
     11      -9.9601      1.00000
     12      -9.9085      1.00000
     13      -9.8425      1.00000
     14      -9.8402      1.00000
     15      -9.7547      1.00000
     16      -9.6962      1.00000
     17      -9.6522      1.00000
     18      -9.6336      1.00000
     19      -9.6138      1.00000
     20      -9.5616      1.00000
     21      -9.4900      1.00000
     22      -9.4306      1.00000
     23      -9.4077      1.00000
     24      -9.3432      1.00000
     25      -9.3266      1.00000
     26      -9.3200      1.00000
     27      -9.2948      1.00000
     28      -9.2837      1.00000
     29      -9.2448      1.00000
     30      -9.2300      1.00000
     31      -9.2227      1.00000
     32      -9.1598      1.00000
     33      -9.1005      1.00000
     34      -9.0734      1.00000
     35      -9.0598      1.00000
     36      -8.9177      1.00000
     37      -5.4007      1.00000
     38      -5.3446      1.00000
     39      -5.3210      1.00000
     40      -5.2429      1.00000
     41      -5.1407      1.00000
     42      -5.1026      1.00000
     43      -5.0435      1.00000
     44      -4.9408      1.00000
     45      -4.8213      1.00000
     46      -4.7838      1.00000
     47      -4.5618      1.00000
     48      -4.5285      1.00000
     49      -4.5241      1.00000
     50      -4.4656      1.00000
     51      -4.4567      1.00000
     52      -4.4160      1.00000
     53      -4.4064      1.00000
     54      -4.3785      1.00000
     55      -4.3420      1.00000
     56      -4.3130      1.00000
     57      -4.2994      1.00000
     58      -4.2638      1.00000
     59      -4.2415      1.00000
     60      -4.1942      1.00000
     61      -4.1727      1.00000
     62      -4.1038      1.00000
     63      -4.0707      1.00000
     64      -4.0129      1.00000
     65      -3.9270      1.00000
     66      -3.8707      1.00000
     67      -3.7618      1.00000
     68      -3.7173      1.00000
     69      -3.5799      1.00000
     70      -3.5115      1.00000
     71      -2.5561      1.00000
     72      -2.4032      1.00000
     73      -1.9171      1.00000
     74      -1.6319      1.00000
     75      -1.5941      1.00000
     76      -1.5404      1.00000
     77      -1.4761      1.00000
     78      -1.4225      1.00000
     79      -1.3535      1.00000
     80      -1.3077      1.00000
     81      -1.1657      1.00000
     82      -1.1457      1.00000
     83      -1.1112      1.00000
     84      -1.0910      1.00000
     85      -1.0587      1.00000
     86      -0.8261      1.00000
     87      -0.8148      1.00000
     88      -0.7946      1.00000
     89      -0.6999      1.00000
     90      -0.6808      1.00000
     91      -0.6119      1.00000
     92      -0.5042      1.00000
     93      -0.4282      1.00000
     94      -0.4002      1.00000
     95      -0.2856      1.00000
     96      -0.2519      1.00000
     97      -0.1535      1.00000
     98      -0.0943      1.00000
     99      -0.0255      1.00000
    100       0.0226      1.00000
    101       0.0588      1.00000
    102       0.1300      1.00000
    103       0.1358      1.00000
    104       0.1615      1.00000
    105       0.1663      1.00000
    106       0.1855      1.00000
    107       0.2497      1.00000
    108       0.3253      1.00000
    109       0.4112      1.00000
    110       0.4448      1.00000
    111       0.4587      1.00000
    112       0.4732      1.00000
    113       0.5093      1.00000
    114       0.5539      1.00000
    115       0.5900      1.00000
    116       0.6209      1.00000
    117       0.6523      1.00000
    118       0.6723      1.00000
    119       0.7145      1.00000
    120       0.7470      1.00000
    121       0.7643      1.00000
    122       0.7880      1.00000
    123       0.8235      1.00000
    124       0.8465      1.00000
    125       0.8626      1.00000
    126       0.9319      1.00000
    127       0.9460      1.00000
    128       0.9581      1.00000
    129       1.0141      1.00000
    130       1.0886      1.00000
    131       1.0952      1.00000
    132       1.1696      1.00000
    133       1.2023      1.00000
    134       1.2441      1.00000
    135       1.2853      1.00000
    136       1.3021      1.00000
    137       1.3508      1.00000
    138       1.3816      1.00000
    139       1.3952      1.00000
    140       1.4390      1.00000
    141       1.5252      1.00000
    142       1.5579      1.00000
    143       1.5704      1.00000
    144       1.6176      1.00000
    145       1.6523      1.00000
    146       1.6713      1.00000
    147       1.6817      1.00000
    148       1.7774      1.00000
[...]
   0.252E+01 -.129E+02 -.241E+02   -.231E+01 0.157E+02 0.270E+02   -.141E+00 -.258E+01 -.283E+01   0.444E-04 -.181E-03 -.185E-03
   0.933E+01 0.613E+01 0.264E+02   -.110E+02 -.700E+01 -.294E+02   0.170E+01 0.556E+00 0.256E+01   -.182E-03 0.388E-03 0.985E-04
   0.304E+02 -.499E+01 0.190E+02   -.321E+02 0.483E+01 -.208E+02   0.120E+01 -.118E+00 0.183E+01   -.347E-03 0.442E-05 -.342E-04
   -.105E+02 0.167E+02 0.401E+02   0.108E+02 -.182E+02 -.420E+02   -.163E+00 0.128E+01 0.156E+01   0.548E-04 0.445E-03 -.639E-04
   0.120E+02 -.221E+01 0.194E+02   -.130E+02 0.249E+01 -.212E+02   0.924E+00 -.391E+00 0.226E+01   0.325E-03 -.162E-03 0.817E-07
   -.101E+02 0.162E+02 0.332E+02   0.104E+02 -.178E+02 -.352E+02   0.285E-01 0.159E+01 0.174E+01   0.112E-03 -.546E-03 -.100E-03
   0.140E+02 0.346E+01 0.253E+02   -.149E+02 -.312E+01 -.270E+02   0.945E+00 -.998E+00 0.172E+01   -.276E-03 0.156E-03 -.195E-03
   0.527E+01 -.387E+00 0.272E+02   -.507E+01 -.672E+00 -.288E+02   -.103E+00 0.183E+01 0.132E+01   -.382E-03 0.352E-03 0.208E-03
   0.390E+01 0.226E+02 0.200E+02   -.387E+01 -.243E+02 -.214E+02   -.488E+00 0.950E+00 0.166E+01   0.327E-03 -.944E-04 0.448E-04
   0.138E+02 -.169E+02 -.430E+02   -.139E+02 0.181E+02 0.450E+02   0.335E+00 -.121E+01 -.204E+01   -.342E-03 -.446E-03 -.985E-04
   -.229E+01 -.286E+02 -.128E+02   0.210E+01 0.305E+02 0.133E+02   -.346E-01 -.607E+00 -.105E+01   0.129E-04 -.240E-03 0.388E-03
   -.247E+02 0.160E+01 -.330E+02   0.260E+02 -.171E+01 0.350E+02   -.131E+01 0.547E+00 -.144E+01   0.174E-03 -.291E-04 0.108E-03
   0.113E+02 -.327E+01 -.289E+02   -.120E+02 0.403E+01 0.308E+02   0.402E+00 -.925E+00 -.237E+01   0.163E-03 -.115E-03 0.254E-03
   -.226E+02 -.524E+00 -.277E+02   0.237E+02 0.171E+00 0.296E+02   -.130E+01 0.787E+00 -.196E+01   0.289E-03 -.427E-03 0.121E-03
   0.766E+01 -.680E+01 -.336E+02   -.803E+01 0.794E+01 0.357E+02   0.785E-01 -.142E+01 -.190E+01   -.627E-04 0.212E-03 0.774E-04
   -.438E+01 -.902E+01 -.190E+02   0.390E+01 0.101E+02 0.204E+02   0.442E+00 -.162E+01 -.204E+01   0.160E-03 0.523E-04 0.490E-03
   -.172E+02 0.711E+00 0.290E+02   0.181E+02 -.167E+01 -.310E+02   -.900E+00 0.133E+01 0.127E+01   0.126E-03 -.289E-03 0.106E-03
   -.802E+01 0.666E+01 0.334E+02   0.862E+01 -.751E+01 -.354E+02   -.280E+00 0.129E+01 0.198E+01   0.179E-04 0.104E-03 0.104E-03
   0.520E+01 0.429E+00 0.350E+02   -.523E+01 0.435E+00 -.368E+02   -.428E+00 -.119E+01 0.166E+01   -.542E-03 0.760E-04 0.175E-03
   -.251E+02 0.691E+01 0.150E+02   0.264E+02 -.710E+01 -.167E+02   -.912E+00 -.221E+00 0.201E+01   0.265E-03 0.363E-03 -.296E-03
   -.486E+01 -.161E+02 0.245E+02   0.493E+01 0.174E+02 -.262E+02   0.668E+00 -.654E+00 0.122E+01   -.277E-03 -.268E-04 -.191E-04
   0.167E+02 -.109E+02 -.182E+02   -.173E+02 0.122E+02 0.194E+02   0.329E+00 -.141E+01 -.154E+01   0.373E-04 -.180E-03 0.331E-03
   0.161E+01 0.106E+02 -.166E+02   -.149E+01 -.119E+02 0.176E+02   -.225E+00 0.114E+01 -.109E+01   0.119E-04 0.222E-03 0.996E-04
   0.273E+01 0.182E+02 -.309E+02   -.317E+01 -.197E+02 0.330E+02   -.551E-01 0.111E+01 -.227E+01   0.449E-03 -.953E-04 -.332E-03
   0.194E+02 -.497E+01 -.243E+02   -.207E+02 0.532E+01 0.262E+02   0.859E+00 -.124E+00 -.223E+01   0.130E-03 -.485E-04 -.169E-03
   -.852E+01 0.137E+02 -.292E+02   0.869E+01 -.150E+02 0.308E+02   0.116E+00 0.157E+01 -.173E+01   -.567E-04 0.117E-03 0.336E-03
   0.179E+02 -.563E+01 -.277E+02   -.192E+02 0.597E+01 0.298E+02   0.101E+01 -.935E+00 -.186E+01   -.195E-03 0.370E-03 -.250E-03
   -.537E+01 0.167E+02 -.278E+02   0.532E+01 -.184E+02 0.295E+02   0.130E+00 0.154E+01 -.125E+01   0.296E-03 -.236E-03 -.280E-03
   0.194E+02 -.274E+01 -.197E+02   -.206E+02 0.278E+01 0.214E+02   0.168E+01 -.429E+00 -.196E+01   0.151E-03 -.114E-03 0.615E-04
   -.282E+01 0.213E+02 -.310E+02   0.353E+01 -.230E+02 0.324E+02   -.192E+00 0.938E+00 -.118E+01   -.215E-03 0.501E-03 -.434E-04
   0.445E+01 0.138E+02 -.144E+02   -.457E+01 -.149E+02 0.161E+02   0.135E+00 0.844E+00 -.258E+01   -.202E-03 -.123E-03 0.563E-04
   0.950E-01 -.614E+01 0.247E+02   -.546E+00 0.705E+01 -.267E+02   0.179E+00 -.101E+01 0.220E+01   0.274E-04 -.243E-03 -.748E-04
   -.993E+01 -.147E+02 0.262E+02   0.974E+01 0.158E+02 -.279E+02   -.931E-01 -.128E+01 0.166E+01   0.234E-03 -.199E-04 0.285E-03
   0.884E+01 -.180E+02 0.245E+02   -.876E+01 0.193E+02 -.262E+02   -.123E+00 -.104E+01 0.216E+01   -.185E-03 -.359E-03 0.824E-05
   -.765E+01 -.113E+02 0.183E+02   0.767E+01 0.124E+02 -.201E+02   -.350E-01 -.111E+01 0.170E+01   -.491E-03 0.236E-03 0.237E-04
   0.218E+01 0.128E+02 0.255E+02   -.174E+01 -.131E+02 -.278E+02   -.697E+00 -.209E+00 0.199E+01   0.343E-03 -.225E-04 0.242E-03
   -.541E+01 -.912E+01 0.293E+02   0.640E+01 0.950E+01 -.315E+02   -.965E+00 -.442E-02 0.213E+01   0.362E-03 -.347E-04 0.783E-04
   -.102E+02 0.838E+01 -.208E+02   0.113E+02 -.879E+01 0.227E+02   -.916E+00 0.748E+00 -.194E+01   -.326E-03 0.508E-03 0.263E-03
 -----------------------------------------------------------------------------------------------
   0.162E+01 -.651E+00 0.181E+01   0.133E-12 -.391E-13 -.117E-12   -.162E+01 0.651E+00 -.182E+01   -.285E-03 -.474E-03 0.186E-02
 
 
 POSITION                                       TOTAL-FORCE (eV/Angst)
 -----------------------------------------------------------------------------------
      0.83539      0.50707      1.17534        -0.127901      0.217216      0.497956
      2.80254     10.96480      4.10267         0.680040     -0.599036     -0.024363
      7.11993      2.71101      4.05001         0.094803     -0.201269     -0.197680
      6.80391      6.91558      4.02191         0.161951     -0.168560      0.213280
      7.46465     10.75188      3.91842        -0.466601     -0.079999      0.713366
     11.10070      2.72256      4.12038        -0.006310     -0.375224      0.271874
     11.37045      6.43849      3.90784         0.117606      0.206144      0.195177
     11.30635     10.95464      4.12682        -0.224916     -0.310848      0.256502
      0.81259      1.69311      6.71396         0.562910      0.105030      0.346820
      0.82893      6.06797      7.03299         0.218390      0.825660     -0.052191
      0.67304     10.46250      7.05565         0.039815     -0.205139      0.094438
      4.98782      2.11298      6.90746        -0.204583     -0.449281      0.418752
      4.75239      6.26735      7.07428         0.076091      0.355791     -0.305865
      5.32022     10.18894      6.93103        -0.227643     -0.347162     -0.256986
      8.90524      2.11676      7.00754        -0.469723      0.180204      0.245095
      9.35627      5.94433      6.80907        -0.306063      0.326141      0.100244
      2.81931      6.77303      4.05625         0.545249      0.097523      0.085436
      3.06912      2.36379      4.08428         0.366397     -0.000197     -0.355290
      9.20131     10.21662      6.99833        -0.447199     -0.224500      0.431060
     11.15312      8.35621      9.45565        -0.005248     -0.211299      0.318213
     10.99299      0.06879      9.59567        -0.310459      0.083372      0.198401
      0.90019      4.42883      1.41807         0.179346      0.352423     -0.572093
      0.93948      8.70008      1.57488         0.211758      0.353605      0.209111
      5.18274      0.51711      1.52795         0.125375     -0.349897     -0.043045
      4.92710      4.69908      1.41667         0.287029      0.048292     -0.195178
      9.25093      0.35303      1.51160        -0.402112     -0.138535      0.057119
      9.12778      4.70405      1.20544        -0.198059      0.229199      0.524627
      5.02709      8.84725      1.42322        -0.056875      0.425957      0.380045
      2.72092      4.01530      9.65172         0.073474     -0.000546      0.342352
      2.63152      8.34792      9.62206         0.638658      0.174078     -0.318793
      2.82631     12.22246      9.64506         0.351921      0.154895      0.327164
      6.59470      4.13907      9.70303         0.088001      0.189047     -0.150400
      7.38605      7.97202      9.70177        -0.538469      0.663592      0.155666
      6.87759     12.34446      9.71400         0.143320      0.192055      0.049041
     11.25733      3.82825      9.62146         0.068249      0.249272      0.073694
      9.39793      8.94200      1.57840         0.051929     -0.309798     -0.390272
     11.42899      0.01936      7.08292        -0.488251     -0.270181      0.023693
      2.82202      4.50325      7.21212         0.160577     -0.266732     -0.363814
      3.22920      8.50316      7.02430        -0.131770     -0.116095      0.430155
      6.90442      0.39382      7.20332         0.317177      0.054806     -0.241870
      7.23987      4.38583      7.14663         0.021925     -0.661542      0.046658
      7.24905      8.32865      7.19364         0.096076      0.775894     -0.268265
     11.43068      4.40732      7.07316        -0.460508     -0.761006      0.213339
      9.23181      0.10407      4.05636         0.201125     -0.081972     -0.118067
      0.85741     12.47788      3.96811        -0.223311      1.208140     -0.485559
      0.65775      4.32913      3.85657         0.006659      0.441604      0.573569
      0.91760      8.45015      4.13532        -0.322469     -0.171892     -0.478122
      4.78128      0.22394      4.02059        -0.124401      0.433724     -0.004780
      5.07147      4.29687      3.89960        -0.291935     -0.272756      0.221284
      4.91183      8.68588      4.05341        -0.039351     -0.571298     -0.633339
      2.88629      0.07228      7.18611         0.018285      0.375209     -0.703447
     11.10833      8.50141      6.96769         0.322346      0.442440     -0.017453
     11.47768     10.58443      1.65327        -0.457012     -0.326937     -0.220137
      2.59506      2.42769      1.48813         0.400614     -0.407132      0.390299
     11.09493      2.04020      1.66341         0.733148      0.659419     -0.434553
      9.17720      4.42165      3.92112        -0.272483     -0.070619     -0.427536
      0.85766      2.23257      9.39320        -0.108348     -0.144481     -0.160001
      0.79571      6.65500      9.53900        -0.495643     -0.403910     -0.177148
      1.00055     10.39408      9.62883        -0.364964      0.227049     -0.374179
      4.70928      2.30094      9.47272         0.288628      0.306370     -0.191515
      5.25586      6.48095      9.53263        -0.263731     -0.593206      0.257733
      4.98887     10.65830      9.38506         0.087764     -0.169969      0.510989
      9.21578      2.23905      9.55003         0.443152     -0.384971     -0.314179
      9.30921      6.46830      9.36663         0.513098     -0.712696      0.159381
      9.09912     10.80506      9.72342         0.010831     -0.175983     -0.896182
      2.95399      6.39073      1.49316        -0.271987     -0.103294      0.179305
      2.95553     10.50828      1.55175        -0.280840     -0.088045     -0.021384
      7.23399      2.11676      1.50861        -0.042689      0.263073      0.393070
      6.99796      6.37661      1.50416        -0.013735     -0.027716     -0.088622
      6.94079     10.89786      1.49689        -0.256045     -0.570285     -0.310370
     11.04772      6.44936      1.42847         0.021159      0.369715     -0.078400
      8.93296      8.49962      4.01572         0.176756      0.337071     -0.033835
 -----------------------------------------------------------------------------------
    total drift:                               -0.000556     -0.000525      0.000307


--------------------------------------------------------------------------------------------------------



  FREE ENERGIE OF THE ION-ELECTRON SYSTEM (eV)
  ---------------------------------------------------
  free  energy   TOTEN  =      -300.94230559 eV

  energy  without entropy=     -300.94230559  energy(sigma->0) =     -300.94230559
 


--------------------------------------------------------------------------------------------------------


    POTLOK:  cpu time      0.7387: real time      0.7414


--------------------------------------------------------------------------------------------------------


     LOOP+:  cpu time    180.8394: real time    181.7563
    4ORBIT:  cpu time      0.0000: real time      0.0000



 total charge

# of ion       s       p       d       tot
------------------------------------------
    1        1.342   0.686   0.047   2.075
    2        1.319   0.797   0.064   2.180
    3        1.316   0.767   0.051   2.135
    4        1.323   0.774   0.055   2.152
    5        1.316   0.803   0.059   2.178
    6        1.314   0.801   0.060   2.175
    7        1.327   0.749   0.053   2.129
    8        1.311   0.814   0.063   2.188
    9        1.325   0.753   0.054   2.132
   10        1.307   0.833   0.065   2.204
   11        1.339   0.715   0.051   2.104
   12        1.324   0.733   0.050   2.107
   13        1.321   0.778   0.056   2.156
   14        1.329   0.757   0.054   2.140
   15        1.323   0.745   0.048   2.116
   16        1.330   0.754   0.058   2.141
   17        1.320   0.763   0.052   2.136
   18        1.333   0.711   0.045   2.089
   19        1.325   0.738   0.047   2.110
   20        1.321   0.785   0.059   2.165
   21        1.319   0.764   0.053   2.135
   22        1.324   0.770   0.060   2.154
   23        1.325   0.751   0.053   2.129
   24        1.322   0.759   0.053   2.134
   25        1.306   0.798   0.058   2.162
   26        1.317   0.798   0.066   2.181
   27        1.336   0.706   0.048   2.090
   28        1.338   0.707   0.048   2.092
   29        1.311   0.809   0.061   2.181
   30        1.319   0.791   0.058   2.168
   31        1.312   0.800   0.061   2.173
   32        1.325   0.744   0.048   2.118
   33        1.310   0.826   0.066   2.202
   34        1.315   0.785   0.056   2.156
   35        1.320   0.776   0.054   2.150
   36        1.334   0.734   0.048   2.116
   37        1.475   2.318   0.035   3.828
   38        1.476   2.329   0.035   3.840
   39        1.477   2.276   0.027   3.780
   40        1.475   2.305   0.031   3.810
   41        1.477   2.276   0.027   3.780
   42        1.476   2.296   0.030   3.802
   43        1.475   2.324   0.035   3.834
   44        1.481   2.297   0.034   3.811
   45        1.472   2.328   0.033   3.834
   46        1.476   2.319   0.036   3.832
   47        1.482   2.283   0.033   3.798
   48        1.479   2.284   0.029   3.792
   49        1.478   2.293   0.031   3.803
   50        1.482   2.273   0.031   3.786
   51        1.474   2.299   0.029   3.802
   52        1.481   2.296   0.035   3.812
   53        1.478   2.303   0.034   3.815
   54        1.477   2.297   0.031   3.806
   55        1.471   2.326   0.033   3.829
   56        1.476   2.293   0.031   3.800
   57        1.475   2.301   0.031   3.806
   58        1.477   2.310   0.033   3.820
   59        1.478   2.304   0.036   3.818
   60        1.479   2.289   0.032   3.800
   61        1.478   2.302   0.033   3.813
   62        1.473   2.320   0.032   3.825
   63        1.481   2.283   0.030   3.794
   64        1.473   2.329   0.035   3.836
   65        1.483   2.259   0.027   3.769
   66        1.478   2.282   0.030   3.790
   67        1.474   2.296   0.028   3.797
   68        1.477   2.291   0.030   3.798
   69        1.475   2.294   0.029   3.797
   70        1.479   2.290   0.033   3.802
   71        1.479   2.294   0.031   3.803
   72        1.480   2.290   0.033   3.803
--------------------------------------------------
tot        100.772 110.321   3.125 214.218



 magnetization (x)

# of ion       s       p       d       tot
------------------------------------------
    1       -0.000   0.000   0.000   0.000
    2       -0.000   0.000  -0.000  -0.000
    3       -0.000   0.000   0.000   0.000
    4       -0.000   0.000  -0.000  -0.000
    5       -0.000  -0.000  -0.000  -0.000
    6       -0.000   0.000   0.000   0.000
    7       -0.000   0.000   0.000   0.000
    8       -0.000   0.000   0.000   0.000
    9       -0.000   0.000   0.000   0.000
   10       -0.000   0.000   0.000   0.000
   11       -0.000   0.000   0.000   0.000
   12       -0.000   0.000   0.000   0.000
   13       -0.000  -0.000  -0.000  -0.000
   14       -0.000  -0.000  -0.000  -0.000
   15       -0.000   0.000   0.000   0.000
   16       -0.000   0.000   0.000   0.000
   17       -0.000   0.000  -0.000  -0.000
   18       -0.000   0.000   0.000   0.000
   19       -0.000   0.000   0.000   0.000
   20       -0.000   0.000  -0.000   0.000
   21       -0.000   0.000   0.000   0.000
   22       -0.000   0.000   0.000   0.000
   23       -0.000   0.000  -0.000  -0.000
   24       -0.000   0.000  -0.000  -0.000
   25       -0.000   0.000  -0.000   0.000
   26       -0.000   0.000   0.000   0.000
   27       -0.000   0.000   0.000   0.000
   28       -0.000  -0.000  -0.000  -0.000
   29       -0.000   0.000   0.000   0.000
   30       -0.000  -0.000  -0.000  -0.000
   31       -0.000   0.000  -0.000   0.000
   32       -0.000   0.000   0.000   0.000
   33       -0.000  -0.000  -0.000  -0.000
   34       -0.000   0.000  -0.000   0.000
   35       -0.000   0.000   0.000   0.000
   36       -0.000   0.000  -0.000  -0.000
   37       -0.000  -0.000   0.000  -0.000
   38       -0.000  -0.000   0.000  -0.000
   39       -0.000  -0.000  -0.000  -0.000
   40       -0.000  -0.000   0.000  -0.000
   41       -0.000  -0.000   0.000  -0.000
   42       -0.000  -0.000  -0.000  -0.000
   43       -0.000  -0.000   0.000  -0.000
   44       -0.000  -0.000   0.000  -0.000
   45       -0.000  -0.000   0.000  -0.000
   46       -0.000  -0.000   0.000  -0.000
   47       -0.000  -0.000   0.000  -0.000
   48       -0.000  -0.000   0.000  -0.000
   49       -0.000  -0.000   0.000  -0.000
   50       -0.000  -0.000  -0.000  -0.000
   51       -0.000  -0.000   0.000  -0.000
   52       -0.000  -0.000   0.000  -0.000
   53       -0.000  -0.000   0.000  -0.000
   54       -0.000  -0.000   0.000  -0.000
   55       -0.000  -0.000   0.000  -0.000
   56       -0.000  -0.000   0.000  -0.000
   57       -0.000  -0.000   0.000  -0.000
   58       -0.000  -0.000  -0.000  -0.000
   59       -0.000  -0.000  -0.000  -0.000
   60       -0.000  -0.000   0.000  -0.000
   61       -0.000  -0.000  -0.000  -0.000
   62        0.000  -0.000  -0.000  -0.000
   63       -0.000  -0.000   0.000  -0.000
   64       -0.000  -0.000   0.000  -0.000
   65       -0.000  -0.000   0.000  -0.000
   66       -0.000  -0.000  -0.000  -0.000
   67       -0.000  -0.000  -0.000  -0.000
   68       -0.000  -0.000   0.000  -0.000
   69       -0.000  -0.000  -0.000  -0.000
   70       -0.000  -0.000  -0.000  -0.000
   71       -0.000  -0.000   0.000  -0.000
   72       -0.000  -0.000  -0.000  -0.000
--------------------------------------------------
tot         -0.000  -0.000   0.000  -0.000
 

 total amount of memory used by VASP MPI-rank0   111004. kBytes
=======================================================================

   base      :      30000. kBytes
   nonl-proj :      16422. kBytes
   fftplans  :       6180. kBytes
   grid      :      15593. kBytes
   one-center:        146. kBytes
   wavefun   :      42663. kBytes
 
  
  
 General timing and accounting informations for this job:
 ========================================================
  
                  Total CPU time used (sec):      192.521
                            User time (sec):      186.624
                          System time (sec):        5.896
                         Elapsed time (sec):      195.501
  
                   Maximum memory used (kb):      327580.
                   Average memory used (kb):          N/A
  
                          Minor page faults:        83134
                          Major page faults:           59
                 Voluntary context switches:         4040
