 vasp.6.4.2 20Jul23 (build Oct 12 2023 10:31:02) complex                         
 executed on              LinuxNV date 2024.11.01  22:38:34
 running  128 mpi-ranks, with    1 threads/rank, on    2 nodes
 distrk:  each k-point on   64 cores,    2 groups
 distr:  one band on NCORE=   8 cores,    8 groups


--------------------------------------------------------------------------------------------------------


 INCAR:
   ENCUT = 520.000000
   SIGMA = 0.050000
   EDIFF = 1.00e-06
   ALGO = N
   GGA = PE
   PREC = Accurate
   SYSTEM = 01_AOPT
   ICHARG = 0
   ISMEAR = 0
   ISPIN = 2
   ISTART = 1
   ISYM = -1
   KPAR = 2
   LORBIT = 11
   NBANDS = 220
   NELM = 100
   NELMIN = 5
   NPAR = 8
   LASPH = .TRUE.
   LCHARG = .FALSE.
   LWAVE = .FALSE.
   LREAL = .FALSE.

 POTCAR:    PAW_PBE Ge 05Jan2001                  
 POTCAR:    PAW_PBE Se 06Sep2000                  
 -----------------------------------------------------------------------------
|                                                                             |
|           W    W    AA    RRRRR   N    N  II  N    N   GGGG   !!!           |
|           W    W   A  A   R    R  NN   N  II  NN   N  G    G  !!!           |
|           W    W  A    A  R    R  N N  N  II  N N  N  G       !!!           |
|           W WW W  AAAAAA  RRRRR   N  N N  II  N  N N  G  GGG   !            |
|           WW  WW  A    A  R   R   N   NN  II  N   NN  G    G                |
|           W    W  A    A  R    R  N    N  II  N    N   GGGG   !!!           |
|                                                                             |
|     You use a magnetic or noncollinear calculation, but did not specify     |
|     the initial magnetic moment with the MAGMOM tag. Note that a            |
|     default of 1 will be used for all atoms. This ferromagnetic setup       |
|     may break the symmetry of the crystal, in particular it may rule        |
|     out finding an antiferromagnetic solution. Thence, we recommend         |
|     setting the initial magnetic moment manually or verifying carefully     |
|     that this magnetic setup is desired.                                    |
|                                                                             |
 -----------------------------------------------------------------------------

 POTCAR:    PAW_PBE Ge 05Jan2001                  
   VRHFIN =Ge: s2p2                                                                                 
   LEXCH  = PE                                                                                      
   EATOM  =   104.9960 eV,    7.7170 Ry                                                             
                                                                                                    
   TITEL  = PAW_PBE Ge 05Jan2001                                                                    
   LULTRA =        F    use ultrasoft PP ?                                                          
   IUNSCR =        1    unscreen: 0-lin 1-nonlin 2-no                                               
   RPACOR =    2.170    partial core radius                                                         
   POMASS =   72.610; ZVAL   =    4.000    mass and valenz                                          
   RCORE  =    2.300    outmost cutoff radius                                                       
   RWIGS  =    2.300; RWIGS  =    1.217    wigner-seitz radius (au A)                               
   ENMAX  =  173.807; ENMIN  =  130.355 eV                                                          
   ICORE  =        3    local potential                                                             
   LCOR   =        T    correct aug charges                                                         
   LPAW   =        T    paw PP                                                                      
   EAUG   =  385.843                                                                                
   DEXC   =    0.000                                                                                
   RMAX   =    2.342    core radius for proj-oper                                                   
   RAUG   =    1.300    factor for augmentation sphere                                              
   RDEP   =    2.318    radius for radial grids                                                     
   RDEPT  =    2.103    core radius for aug-charge                                                  
                                                                                                    
   Atomic configuration                                                                             
   10 entries                                                                                       
     n  l   j            E        occ.                                                              
     1  0  0.50    -10959.8463   2.0000                                                             
     2  0  0.50     -1371.6056   2.0000                                                             
     2  1  1.50     -1198.4791   6.0000                                                             
     3  0  0.50      -168.4733   2.0000                                                             
     3  1  1.50      -115.6019   6.0000                                                             
     3  2  2.50       -29.3106  10.0000                                                             
     4  0  0.50       -11.7309   2.0000                                                             
     4  1  0.50        -3.8952   2.0000                                                             
     4  2  1.50        -4.0817   0.0000                                                             
     4  3  2.50        -4.0817   0.0000                                                             
   Description                                                                                      
     l       E           TYP  RCUT    TYP  RCUT                                                     
     0    -11.7309493     23  2.300                                                                 
     0     -7.4578696     23  2.300                                                                 
     1     -3.8952261     23  2.300                                                                 
     1      6.1178114     23  2.300                                                                 
     2     -4.0817478     23  2.300                                                                 
     3     -1.3605826      7  2.300                                                                 
  local pseudopotential read in
  partial core-charges read in
  partial kinetic energy density read in
  atomic valenz-charges read in
  non local Contribution for L=            0  read in
    real space projection operators read in
  non local Contribution for L=            0  read in
    real space projection operators read in
  non local Contribution for L=            1  read in
    real space projection operators read in
  non local Contribution for L=            1  read in
    real space projection operators read in
  non local Contribution for L=            2  read in
    real space projection operators read in
    PAW grid and wavefunctions read in
 
   number of l-projection  operators is LMAX  =            5
   number of lm-projection operators is LMMAX =           13
 
 POTCAR:    PAW_PBE Se 06Sep2000                  
   VRHFIN =Se: s2p4                                                                                 
   LEXCH  = PE                                                                                      
   EATOM  =   257.1286 eV,   18.8984 Ry                                                             
                                                                                                    
   TITEL  = PAW_PBE Se 06Sep2000                                                                    
   LULTRA =        F    use ultrasoft PP ?                                                          
   IUNSCR =        1    unscreen: 0-lin 1-nonlin 2-no                                               
   RPACOR =    1.900    partial core radius                                                         
   POMASS =   78.960; ZVAL   =    6.000    mass and valenz                                          
   RCORE  =    2.100    outmost cutoff radius                                                       
   RWIGS  =    2.200; RWIGS  =    1.164    wigner-seitz radius (au A)                               
   ENMAX  =  211.555; ENMIN  =  158.666 eV                                                          
   ICORE  =        3    local potential                                                             
   LCOR   =        T    correct aug charges                                                         
   LPAW   =        T    paw PP                                                                      
   EAUG   =  446.842                                                                                
   DEXC   =    0.000                                                                                
   RMAX   =    2.147    core radius for proj-oper                                                   
   RAUG   =    1.300    factor for augmentation sphere                                              
   RDEP   =    2.177    radius for radial grids                                                     
   RDEPT  =    1.928    core radius for aug-charge                                                  
                                                                                                    
   Atomic configuration                                                                             
   10 entries                                                                                       
     n  l   j            E        occ.                                                              
     1  0  0.50    -12503.4787   2.0000                                                             
     2  0  0.50     -1606.9547   2.0000                                                             
     2  1  1.50     -1413.3140   6.0000                                                             
     3  0  0.50      -213.4885   2.0000                                                             
     3  1  1.50      -152.9538   6.0000                                                             
     3  2  2.50       -53.1221  10.0000                                                             
     4  0  0.50       -17.2865   2.0000                                                             
     4  1  0.50        -6.5110   4.0000                                                             
     4  2  2.50        -6.8029   0.0000                                                             
     4  3  2.50        -6.8029   0.0000                                                             
   Description                                                                                      
     l       E           TYP  RCUT    TYP  RCUT                                                     
     0    -17.2865377     23  2.100                                                                 
     0    -15.3094411     23  2.100                                                                 
     1     -6.5110275     23  2.100                                                                 
     1     -0.0695192     23  2.100                                                                 
     2     -6.8029130     23  2.100                                                                 
     3     -1.3605826      7  2.100                                                                 
  local pseudopotential read in
  partial core-charges read in
  partial kinetic energy density read in
  atomic valenz-charges read in
  non local Contribution for L=            0  read in
    real space projection operators read in
  non local Contribution for L=            0  read in
    real space projection operators read in
  non local Contribution for L=            1  read in
    real space projection operators read in
  non local Contribution for L=            1  read in
    real space projection operators read in
  non local Contribution for L=            2  read in
    real space projection operators read in
    PAW grid and wavefunctions read in
 
   number of l-projection  operators is LMAX  =            5
   number of lm-projection operators is LMMAX =           13
 
 -----------------------------------------------------------------------------
|                                                                             |
|               ----> ADVICE to this user running VASP <----                  |
|                                                                             |
|     You have a (more or less) 'large supercell' and for larger cells it     |
|     might be more efficient to use real-space projection operators.         |
|     Therefore, try LREAL= Auto in the INCAR file.                           |
|     Mind: For very accurate calculation, you might also keep the            |
|     reciprocal projection scheme (i.e. LREAL=.FALSE.).                      |
|                                                                             |
 -----------------------------------------------------------------------------

  PAW_PBE Ge 05Jan2001                  :
 energy of atom  1       EATOM= -104.9960
 kinetic energy error for atom=    0.0002 (will be added to EATOM!!)
  PAW_PBE Se 06Sep2000                  :
 energy of atom  2       EATOM= -257.1286
 kinetic energy error for atom=    0.0007 (will be added to EATOM!!)
 
 
 POSCAR: Ge Se
  positions in cartesian coordinates
  No initial velocities read in
 exchange correlation table for  LEXCH =        8
   RHO(1)=    0.500       N(1)  =     2000
   RHO(2)=  100.500       N(2)  =     4000
 


--------------------------------------------------------------------------------------------------------


 ion  position               nearest neighbor table
   1  0.074  0.030  0.136-  45 2.49  55 2.67  54 2.84
   2  0.237  0.878  0.390-  48 2.62  67 2.69  45 2.70
   3  0.561  0.207  0.370-  68 2.49  49 2.63  56 2.66
   4  0.565  0.549  0.376-  69 2.67  50 2.68  72 2.71
   5  0.581  0.867  0.362-  70 2.55  44 2.65  48 2.84
   6  0.908  0.206  0.374-  55 2.44  46 2.57  56 2.72
   7  0.927  0.560  0.396-  47 2.63  72 2.71  71 2.80
   8  0.886  0.860  0.350-  53 2.48  44 2.50
   9  0.076  0.145  0.634-  57 2.67  51 2.67  37 2.71
  10  0.059  0.489  0.639-  58 2.54  43 2.64  38 2.78
  11  0.076  0.807  0.623-  52 2.55  39 2.66  59 2.70
  12  0.417  0.157  0.640-  60 2.56  40 2.70  51 2.79
  13  0.398  0.479  0.619-  61 2.58  38 2.74  41 2.80
  14  0.405  0.811  0.621-  39 2.58  42 2.62  62 2.66
  15  0.756  0.137  0.637-  37 2.59  63 2.63  40 2.78
  16  0.740  0.477  0.624-  64 2.45  41 2.53  43 2.74
  17  0.255  0.544  0.352-  66 2.51  50 2.64  47 2.67
  18  0.227  0.234  0.366-  54 2.60  49 2.60  46 2.61
  19  0.749  0.811  0.629-  52 2.57  65 2.64  42 2.69
  20  0.903  0.646  0.872-  58 2.47  52 2.55  64 2.81
  21  0.921  0.987  0.873-  59 2.52  37 2.58
  22  0.040  0.373  0.120-  46 2.57  71 2.69
  23  0.068  0.700  0.123-  47 2.46  53 2.73  67 2.77
  24  0.401  0.037  0.126-  48 2.55  68 2.60  54 2.72
  25  0.397  0.357  0.131-  66 2.71  69 2.72  49 2.73
  26  0.738  0.032  0.118-  44 2.64  68 2.74
  27  0.723  0.378  0.135-  56 2.53  69 2.64  71 2.71
  28  0.399  0.708  0.111-  50 2.55  67 2.66  70 2.74
  29  0.235  0.311  0.869-  38 2.43  60 2.54  57 2.74
  30  0.230  0.649  0.859-  39 2.56  58 2.64  61 2.77
  31  0.244  0.992  0.875-  51 2.43  59 2.66
  32  0.572  0.336  0.858-  41 2.61  60 2.84
  33  0.575  0.658  0.867-  42 2.59  64 2.75  61 2.79
  34  0.581  0.982  0.865-  40 2.45  65 2.67  62 2.71
  35  0.906  0.307  0.900-  63 2.63  57 2.65  43 2.65
  36  0.730  0.698  0.123-  72 2.53  70 2.67
  37  0.913  0.001  0.641-  21 2.58  15 2.59   9 2.71
  38  0.228  0.343  0.653-  29 2.43  13 2.74  10 2.78
  39  0.246  0.677  0.631-  30 2.56  14 2.58  11 2.66
  40  0.573  0.007  0.646-  34 2.45  12 2.70  15 2.78
  41  0.582  0.350  0.624-  16 2.53  32 2.61  13 2.80
  42  0.573  0.685  0.635-  33 2.59  14 2.62  19 2.69
  43  0.909  0.340  0.664-  10 2.64  35 2.65  16 2.74
  44  0.744  0.002  0.353-   8 2.50  26 2.64   5 2.65
  45  0.070  0.013  0.360-   1 2.49   2 2.70
  46  0.054  0.351  0.350-   6 2.57  22 2.57  18 2.61
  47  0.092  0.683  0.343-  23 2.46   7 2.63  17 2.67
  48  0.401  0.007  0.354-  24 2.55   2 2.62   5 2.84
  49  0.403  0.347  0.377-  18 2.60   3 2.63  25 2.73
  50  0.407  0.692  0.340-  28 2.55  17 2.64   4 2.68
  51  0.245  0.013  0.657-  31 2.43   9 2.67  12 2.79
  52  0.912  0.685  0.646-  20 2.55  11 2.55  19 2.57
  53  0.906  0.847  0.127-   8 2.48  23 2.73
  54  0.241  0.186  0.139-  18 2.60  24 2.72   1 2.84
  55  0.918  0.175  0.156-   6 2.44   1 2.67
  56  0.733  0.335  0.357-  27 2.53   3 2.66   6 2.72
  57  0.066  0.170  0.873-  35 2.65   9 2.67  29 2.74
  58  0.059  0.523  0.865-  20 2.47  10 2.54  30 2.64
  59  0.078  0.859  0.860-  21 2.52  31 2.66  11 2.70
  60  0.398  0.189  0.867-  29 2.54  12 2.56  32 2.84
  61  0.405  0.513  0.849-  13 2.58  30 2.77  33 2.79
  62  0.417  0.838  0.859-  14 2.66  34 2.71
  63  0.741  0.177  0.869-  15 2.63  35 2.63
  64  0.730  0.503  0.843-  16 2.45  33 2.75  20 2.81
  65  0.743  0.840  0.865-  19 2.64  34 2.67
  66  0.247  0.515  0.128-  17 2.51  25 2.71
  67  0.237  0.843  0.151-  28 2.66   2 2.69  23 2.77
  68  0.565  0.165  0.150-   3 2.49  24 2.60  26 2.74
  69  0.556  0.507  0.140-  27 2.64   4 2.67  25 2.72
  70  0.572  0.842  0.134-   5 2.55  36 2.67  28 2.74
  71  0.886  0.521  0.152-  22 2.69  27 2.71   7 2.80
  72  0.744  0.671  0.348-  36 2.53   7 2.71   4 2.71
 

IMPORTANT INFORMATION: All symmetrisations will be switched off!
NOSYMM: (Re-)initialisation of all symmetry stuff for point group C_1.


----------------------------------------------------------------------------------------

                                     Primitive cell                                     

  volume of cell :    1719.8438

  direct lattice vectors                    reciprocal lattice vectors
    12.389655821 -0.000004678 -0.000002307     0.080712492  0.000000030  0.000000019
    -0.000004730 12.527196319  0.000002340     0.000000030  0.079826321 -0.000000019
    -0.000002656  0.000002664 11.080921255     0.000000017 -0.000000017  0.090245204

  length of vectors
    12.389655821 12.527196319 11.080921255     0.080712492  0.079826321  0.090245204

  position of ions in fractional coordinates (direct lattice)
     0.074483474  0.029661106  0.136157594
     0.237439909  0.878385172  0.390486198
     0.561483324  0.207182163  0.369990038
     0.564566390  0.549112861  0.375793729
     0.580550407  0.866689413  0.362387914
     0.908288412  0.206045397  0.373741908
     0.926924583  0.560083955  0.396353835
     0.885769821  0.860121508  0.349817456
     0.075917180  0.144877537  0.633807792
     0.059014527  0.489053083  0.639461080
     0.075545746  0.806531059  0.623140855
     0.416729635  0.156654988  0.639636247
     0.397887345  0.479245853  0.619427706
     0.404641937  0.810701418  0.621472788
     0.755714390  0.136704492  0.637302155
     0.740336974  0.477024288  0.624149027
     0.255134325  0.544409682  0.352377130
     0.227170493  0.233858896  0.366272255
     0.748868444  0.810868293  0.629099397
     0.903459738  0.645541791  0.871597681
     0.920971523  0.986878175  0.872821404
     0.040499639  0.372956295  0.120244536
     0.067979476  0.699765150  0.123491959
     0.401030374  0.036686636  0.125989752
     0.396880659  0.356909296  0.130972312
     0.738419858  0.031987751  0.117560579
     0.723401313  0.377711743  0.134538678
     0.399123001  0.707933147  0.110652432
     0.235252653  0.311438618  0.868988903
     0.229515262  0.649086088  0.858759936
     0.244250299  0.992325366  0.874649786
     0.571778865  0.336083899  0.858352780
     0.575147986  0.658171537  0.867266001
     0.581255057  0.981694058  0.864695987
     0.905707114  0.307207115  0.900397371
     0.729607195  0.697772986  0.122601711
     0.913354312  0.000634349  0.641002338
     0.227660257  0.343085758  0.653102885
     0.245630495  0.677399918  0.630753977
     0.573216098  0.007292462  0.645555900
     0.581907351  0.349584977  0.623804111
     0.573134770  0.684811461  0.635063428
     0.909213756  0.340250230  0.663938507
     0.744337409  0.002491520  0.352961370
     0.069677708  0.012866861  0.359900522
     0.053638411  0.350718113  0.350498667
     0.091829524  0.682921071  0.342722055
     0.400882738  0.007212412  0.353891434
     0.403234509  0.346981745  0.376903441
     0.407004253  0.692373482  0.339870820
     0.244719341  0.013336913  0.657024800
     0.911729417  0.684992120  0.646377857
     0.905508934  0.846977727  0.127169248
     0.241398255  0.185565273  0.138665477
     0.917733528  0.174919300  0.156424409
     0.732504991  0.335139439  0.357208027
     0.066480497  0.170133886  0.873216032
     0.059358349  0.522805964  0.865350095
     0.077550604  0.859405040  0.859708813
     0.397901021  0.188590849  0.867283727
     0.405327271  0.513183123  0.848911700
     0.417082399  0.838458771  0.858837675
     0.741233454  0.177122956  0.869236364
     0.730407544  0.503085038  0.843179840
     0.742788010  0.840334399  0.864738032
     0.247315872  0.515251617  0.128397013
     0.237278708  0.842769150  0.150682130
     0.564904427  0.164905873  0.150147567
     0.555533700  0.507140879  0.139993526
     0.571982179  0.842440642  0.134354036
     0.886027553  0.521016238  0.151603181
     0.744058279  0.670512526  0.348126805

  ion indices of the primitive-cell ions
   primitive index   ion index
                 1           1
                 2           2
                 3           3
                 4           4
                 5           5
                 6           6
                 7           7
                 8           8
                 9           9
                10          10
                11          11
                12          12
                13          13
                14          14
                15          15
                16          16
                17          17
                18          18
                19          19
                20          20
                21          21
                22          22
                23          23
                24          24
                25          25
                26          26
                27          27
                28          28
                29          29
                30          30
                31          31
                32          32
                33          33
                34          34
                35          35
                36          36
                37          37
                38          38
                39          39
                40          40
                41          41
                42          42
                43          43
                44          44
                45          45
                46          46
                47          47
                48          48
                49          49
                50          50
                51          51
                52          52
                53          53
                54          54
                55          55
                56          56
                57          57
                58          58
                59          59
                60          60
                61          61
                62          62
                63          63
                64          64
                65          65
                66          66
                67          67
                68          68
                69          69
                70          70
                71          71
                72          72

----------------------------------------------------------------------------------------

 
 
 KPOINTS: KPOINTS created by Atomic Simulation Env

Automatic generation of k-mesh.
 Grid dimensions read from file:
 generate k-points for:    2    2    2

 Generating k-lattice:

  Cartesian coordinates                     Fractional coordinates (reciprocal lattice)
     0.040356246  0.000000015  0.000000010     0.500000000 -0.000000000  0.000000000
     0.000000015  0.039913161 -0.000000010     0.000000000  0.500000000 -0.000000000
     0.000000008 -0.000000008  0.045122602     0.000000000 -0.000000000  0.500000000

  Length of vectors
     0.040356246  0.039913161  0.045122602

  Shift w.r.t. Gamma in fractional coordinates (k-lattice)
     0.000000000  0.000000000  0.000000000

 
 Subroutine IBZKPT returns following result:
 ===========================================
 
 Found      8 irreducible k-points:
 
 Following reciprocal coordinates:
            Coordinates               Weight
  0.000000  0.000000  0.000000      1.000000
  0.500000  0.000000  0.000000      1.000000
  0.000000  0.500000  0.000000      1.000000
  0.500000  0.500000  0.000000      1.000000
  0.000000  0.000000  0.500000      1.000000
  0.500000  0.000000  0.500000      1.000000
  0.000000  0.500000  0.500000      1.000000
  0.500000  0.500000  0.500000      1.000000
 
 Following cartesian coordinates:
            Coordinates               Weight
  0.000000  0.000000  0.000000      1.000000
  0.040356  0.000000  0.000000      1.000000
  0.000000  0.039913 -0.000000      1.000000
  0.040356  0.039913  0.000000      1.000000
  0.000000 -0.000000  0.045123      1.000000
  0.040356  0.000000  0.045123      1.000000
  0.000000  0.039913  0.045123      1.000000
  0.040356  0.039913  0.045123      1.000000
 
 -----------------------------------------------------------------------------
|                                                                             |
|           W    W    AA    RRRRR   N    N  II  N    N   GGGG   !!!           |
|           W    W   A  A   R    R  NN   N  II  NN   N  G    G  !!!           |
|           W    W  A    A  R    R  N N  N  II  N N  N  G       !!!           |
|           W WW W  AAAAAA  RRRRR   N  N N  II  N  N N  G  GGG   !            |
|           WW  WW  A    A  R   R   N   NN  II  N   NN  G    G                |
|           W    W  A    A  R    R  N    N  II  N    N   GGGG   !!!           |
|                                                                             |
|     The number of bands has been changed from the values supplied in        |
|     the INCAR file. This is a result of running the parallel version.       |
|     The orbitals not found in the WAVECAR file will be initialized with     |
|     random numbers, which is usually adequate. For correlated               |
|     calculations, however, you should redo the groundstate calculation.     |
|     I found NBANDS = 220. Now, NBANDS = 224.                                |
|                                                                             |
 -----------------------------------------------------------------------------



--------------------------------------------------------------------------------------------------------




 Dimension of arrays:
   k-points           NKPTS =      8   k-points in BZ     NKDIM =      8   number of bands    NBANDS=    224
   number of dos      NEDOS =    301   number of ions     NIONS =     72
   non local maximal  LDIM  =      5   non local SUM 2l+1 LMDIM =     13
   total plane-waves  NPLWV = 774144
   max r-space proj   IRMAX =      1   max aug-charges    IRDMAX=  24661
   dimension x,y,z NGX =    96 NGY =   96 NGZ =   84
   dimension x,y,z NGXF=   192 NGYF=  192 NGZF=  168
   support grid    NGXF=   192 NGYF=  192 NGZF=  168
   ions per type =              36  36
   NGX,Y,Z   is equivalent  to a cutoff of  12.88, 12.74, 12.60 a.u.
   NGXF,Y,Z  is equivalent  to a cutoff of  25.76, 25.48, 25.20 a.u.

 SYSTEM =  01_AOPT                                 
 POSCAR =  Ge Se                                   

 Startparameter for this run:
   NWRITE =      2    write-flag & timer
   PREC   = accura    normal or accurate (medium, high low for compatibility)
   ISTART =      0    job   : 0-new  1-cont  2-samecut
   ICHARG =      2    charge: 1-file 2-atom 10-const
   ISPIN  =      2    spin polarized calculation?
   LNONCOLLINEAR =      F non collinear calculations
   LSORBIT =      F    spin-orbit coupling
   INIWAV =      1    electr: 0-lowe 1-rand  2-diag
   LASPH  =      T    aspherical Exc in radial PAW
 Electronic Relaxation 1
   ENCUT  =  520.0 eV  38.22 Ry    6.18 a.u.  23.04 23.29 20.60*2*pi/ulx,y,z
   ENINI  =  520.0     initial cutoff
   ENAUG  =  446.8 eV  augmentation charge cutoff
   NELM   =    100;   NELMIN=  5; NELMDL=  0     # of ELM steps 
   EDIFF  = 0.1E-05   stopping-criterion for ELM
   LREAL  =      F    real-space projection
   NLSPLINE    = F    spline interpolate recip. space projectors
   LCOMPAT=      F    compatible to vasp.4.4
   GGA_COMPAT  = T    GGA compatible to vasp.4.4-vasp.4.6
   LMAXPAW     = -100 max onsite density
   LMAXMIX     =    2 max onsite mixed and CHGCAR
   VOSKOWN=      0    Vosko Wilk Nusair interpolation
   ROPT   =    0.00000   0.00000
 Ionic relaxation
   EDIFFG = 0.1E-04   stopping-criterion for IOM
   NSW    =      0    number of steps for IOM
   NBLOCK =      1;   KBLOCK =      1    inner block; outer block 
   IBRION =     -1    ionic relax: 0-MD 1-quasi-New 2-CG
   NFREE  =      0    steps in history (QN), initial steepest desc. (CG)
   ISIF   =      2    stress and relaxation
   IWAVPR =     10    prediction:  0-non 1-charg 2-wave 3-comb
   ISYM   =     -1    0-nonsym 1-usesym 2-fastsym
   LCORR  =      T    Harris-Foulkes like correction to forces

   POTIM  = 0.5000    time-step for ionic-motion
   TEIN   =    0.0    initial temperature
   TEBEG  =    0.0;   TEEND  =   0.0 temperature during run
   SMASS  =  -3.00    Nose mass-parameter (am)
   estimated Nose-frequenzy (Omega)   =  0.10E-29 period in steps = 0.13E+47 mass=  -0.351E-26a.u.
   SCALEE = 1.0000    scale energy and forces
   NPACO  =    256;   APACO  = 10.0  distance and # of slots for P.C.
   PSTRESS=    0.0 pullay stress

  Mass of Ions in am
   POMASS =  72.61 78.96
  Ionic Valenz
   ZVAL   =   4.00  6.00
  Atomic Wigner-Seitz radii
   RWIGS  =  -1.00 -1.00
  virtual crystal weights 
   VCA    =   1.00  1.00
   NELECT =     360.0000    total number of electrons
   NUPDOWN=      -1.0000    fix difference up-down

 DOS related values:
   EMIN   =  10.00;   EMAX   =-10.00  energy-range for DOS
   EFERMI =   0.00;   METHOD = LEGACY      
   ISMEAR =     0;   SIGMA  =   0.05  broadening in eV -4-tet -1-fermi 0-gaus

 Electronic relaxation 2 (details)
   IALGO  =     38    algorithm
   LDIAG  =      T    sub-space diagonalisation (order eigenvalues)
   LSUBROT=      F    optimize rotation matrix (better conditioning)
   TURBO    =      0    0=normal 1=particle mesh
   IRESTART =      0    0=no restart 2=restart with 2 vectors
   NREBOOT  =      0    no. of reboots
   NMIN     =      0    reboot dimension
   EREF     =   0.00    reference energy to select bands
   IMIX   =      4    mixing-type and parameters
     AMIX     =   0.40;   BMIX     =  1.00
     AMIX_MAG =   1.60;   BMIX_MAG =  1.00
     AMIN     =   0.10
     WC   =   100.;   INIMIX=   1;  MIXPRE=   1;  MAXMIX= -45

 Intra band minimization:
   WEIMIN = 0.0000     energy-eigenvalue tresh-hold
   EBREAK =  0.11E-08  absolut break condition
   DEPER  =   0.30     relativ break condition  

   TIME   =   0.40     timestep for ELM

  volume/ion in A,a.u.               =      23.89       161.20
  Fermi-wavevector in a.u.,A,eV,Ry     =   0.972029  1.836869 12.855340  0.944841
  Thomas-Fermi vector in A             =   2.102295
 
 Write flags
   LWAVE        =      F    write WAVECAR
   LDOWNSAMPLE  =      F    k-point downsampling of WAVECAR
   LCHARG       =      F    write CHGCAR
   LVTOT        =      F    write LOCPOT, total local potential
   LVHAR        =      F    write LOCPOT, Hartree potential only
   LELF         =      F    write electronic localiz. function (ELF)
   LORBIT       =     11    0 simple, 1 ext, 2 COOP (PROOUT), +10 PAW based schemes


 Dipole corrections
   LMONO  =      F    monopole corrections only (constant potential shift)
   LDIPOL =      F    correct potential (dipole corrections)
   IDIPOL =      0    1-x, 2-y, 3-z, 4-all directions 
   EPSILON=  1.0000000 bulk dielectric constant

 Exchange correlation treatment:
   GGA     =    PE    GGA type
   LEXCH   =     8    internal setting for exchange type
   LIBXC   =     F    Libxc                    
   VOSKOWN =     0    Vosko Wilk Nusair interpolation
   LHFCALC =     F    Hartree Fock is set to
   LHFONE  =     F    Hartree Fock one center treatment
   AEXX    =    0.0000 exact exchange contribution

 Linear response parameters
   LEPSILON=     F    determine dielectric tensor
   LRPA    =     F    only Hartree local field effects (RPA)
   LNABLA  =     F    use nabla operator in PAW spheres
   LVEL    =     F    velocity operator in full k-point grid
   CSHIFT  =0.1000    complex shift for real part using Kramers Kronig
   OMEGAMAX=  -1.0    maximum frequency
   DEG_THRESHOLD= 0.2000000E-02 threshold for treating states as degnerate
   RTIME   =   -0.100 relaxation time in fs
  (WPLASMAI=    0.000 imaginary part of plasma frequency in eV, 0.658/RTIME)
   DFIELD  = 0.0000000 0.0000000 0.0000000 field for delta impulse in time
 
  Optional k-point grid parameters
   LKPOINTS_OPT  =     F    use optional k-point grid
   KPOINTS_OPT_MODE=     1    mode for optional k-point grid
 
 Orbital magnetization related:
   ORBITALMAG=     F  switch on orbital magnetization
   LCHIMAG   =     F  perturbation theory with respect to B field
   DQ        =  0.001000  dq finite difference perturbation B field
   LLRAUG    =     F  two centre corrections for induced B field
   LBONE     =     F  B-component reconstruction in AE one-centre
   LVGVCALC  =     T  calculate vGv susceptibility
   LVGVAPPL  =     F  apply vGv susceptibility instead of pGv for G=0

 Random number generation:
   RANDOM_GENERATOR = DEFAULT
   PCG_SEED         = not used


--------------------------------------------------------------------------------------------------------


 Static calculation
 charge density and potential will be updated during run
 spin polarized calculation
 Variant of blocked Davidson
 Davidson routine will perform the subspace rotation
 perform sub-space diagonalisation
    after iterative eigenvector-optimisation
 modified Broyden-mixing scheme, WC =      100.0
 initial mixing is a Kerker type mixing with AMIX =  0.4000 and BMIX =      1.0000
 Hartree-type preconditioning will be used
 using additional bands            44
 reciprocal scheme for non local part
 use partial core corrections
 calculate Harris-corrections to forces 
   (improved forces if not selfconsistent)
 use gradient corrections 
 use of overlap-Matrix (Vanderbilt PP)
 Gauss-broadening in eV      SIGMA  =   0.05


--------------------------------------------------------------------------------------------------------


  energy-cutoff  :      520.00
  volume of cell :     1719.84
      direct lattice vectors                 reciprocal lattice vectors
    12.389655821 -0.000004678 -0.000002307     0.080712492  0.000000030  0.000000019
    -0.000004730 12.527196319  0.000002340     0.000000030  0.079826321 -0.000000019
    -0.000002656  0.000002664 11.080921255     0.000000017 -0.000000017  0.090245204

  length of vectors
    12.389655821 12.527196319 11.080921255     0.080712492  0.079826321  0.090245204


 
 k-points in units of 2pi/SCALE and weight: KPOINTS created by Atomic Simulation Env
   0.00000000  0.00000000  0.00000000       0.125
   0.04035625  0.00000002  0.00000001       0.125
   0.00000002  0.03991316 -0.00000001       0.125
   0.04035626  0.03991318  0.00000000       0.125
   0.00000001 -0.00000001  0.04512260       0.125
   0.04035625  0.00000001  0.04512261       0.125
   0.00000002  0.03991315  0.04512259       0.125
   0.04035627  0.03991317  0.04512260       0.125
 
 k-points in reciprocal lattice and weights: KPOINTS created by Atomic Simulation Env
   0.00000000  0.00000000  0.00000000       0.125
   0.50000000  0.00000000  0.00000000       0.125
   0.00000000  0.50000000  0.00000000       0.125
   0.50000000  0.50000000  0.00000000       0.125
   0.00000000  0.00000000  0.50000000       0.125
   0.50000000  0.00000000  0.50000000       0.125
   0.00000000  0.50000000  0.50000000       0.125
   0.50000000  0.50000000  0.50000000       0.125
 
 position of ions in fractional coordinates (direct lattice) 
   0.07448347  0.02966111  0.13615759
   0.23743991  0.87838517  0.39048620
   0.56148332  0.20718216  0.36999004
   0.56456639  0.54911286  0.37579373
   0.58055041  0.86668941  0.36238791
   0.90828841  0.20604540  0.37374191
   0.92692458  0.56008395  0.39635383
   0.88576982  0.86012151  0.34981746
   0.07591718  0.14487754  0.63380779
   0.05901453  0.48905308  0.63946108
   0.07554575  0.80653106  0.62314086
   0.41672963  0.15665499  0.63963625
   0.39788734  0.47924585  0.61942771
   0.40464194  0.81070142  0.62147279
   0.75571439  0.13670449  0.63730216
   0.74033697  0.47702429  0.62414903
   0.25513432  0.54440968  0.35237713
   0.22717049  0.23385890  0.36627225
   0.74886844  0.81086829  0.62909940
   0.90345974  0.64554179  0.87159768
   0.92097152  0.98687818  0.87282140
   0.04049964  0.37295630  0.12024454
   0.06797948  0.69976515  0.12349196
   0.40103037  0.03668664  0.12598975
   0.39688066  0.35690930  0.13097231
   0.73841986  0.03198775  0.11756058
   0.72340131  0.37771174  0.13453868
   0.39912300  0.70793315  0.11065243
   0.23525265  0.31143862  0.86898890
   0.22951526  0.64908609  0.85875994
   0.24425030  0.99232537  0.87464979
   0.57177886  0.33608390  0.85835278
   0.57514799  0.65817154  0.86726600
   0.58125506  0.98169406  0.86469599
   0.90570711  0.30720712  0.90039737
   0.72960720  0.69777299  0.12260171
   0.91335431  0.00063435  0.64100234
   0.22766026  0.34308576  0.65310288
   0.24563049  0.67739992  0.63075398
   0.57321610  0.00729246  0.64555590
   0.58190735  0.34958498  0.62380411
   0.57313477  0.68481146  0.63506343
   0.90921376  0.34025023  0.66393851
   0.74433741  0.00249152  0.35296137
   0.06967771  0.01286686  0.35990052
   0.05363841  0.35071811  0.35049867
   0.09182952  0.68292107  0.34272205
   0.40088274  0.00721241  0.35389143
   0.40323451  0.34698174  0.37690344
   0.40700425  0.69237348  0.33987082
   0.24471934  0.01333691  0.65702480
   0.91172942  0.68499212  0.64637786
   0.90550893  0.84697773  0.12716925
   0.24139825  0.18556527  0.13866548
   0.91773353  0.17491930  0.15642441
   0.73250499  0.33513944  0.35720803
   0.06648050  0.17013389  0.87321603
   0.05935835  0.52280596  0.86535010
   0.07755060  0.85940504  0.85970881
   0.39790102  0.18859085  0.86728373
   0.40532727  0.51318312  0.84891170
   0.41708240  0.83845877  0.85883768
   0.74123345  0.17712296  0.86923636
   0.73040754  0.50308504  0.84317984
   0.74278801  0.84033440  0.86473803
   0.24731587  0.51525162  0.12839701
   0.23727871  0.84276915  0.15068213
   0.56490443  0.16490587  0.15014757
   0.55553370  0.50714088  0.13999353
   0.57198218  0.84244064  0.13435404
   0.88602755  0.52101624  0.15160318
   0.74405828  0.67051253  0.34812680
 
 position of ions in cartesian coordinates  (Angst):
   0.92282410  0.37157052  1.50875148
   2.94179356 11.00370342  4.32694832
   6.95658317  2.59540999  4.09982967
   6.99477967  6.87884297  4.16414070
   7.19281467 10.85718667  4.01559263
  11.25337884  2.58116789  4.14140304
  11.48427286  7.01627838  4.39196480
  10.97437823 10.77490777  3.87629965
   0.94058537  1.81491068  7.02317439
   0.73116566  6.12646541  7.08581888
   0.93598032 10.10357422  6.90497646
   5.16313430  1.96244754  7.08775829
   4.92968335  6.00360667  6.86382984
   5.01336885 10.15581558  6.88649199
   9.36303886  1.71252217  7.06189357
   9.17251638  5.97577511  6.91614563
   3.16102296  6.81992671  3.90466392
   2.81456214  2.92959621  4.05863404
   9.27821677 10.15790446  6.97100105
  11.19354983  8.08682685  9.65810470
  11.41051321 12.36281466  9.67166544
   0.50177450  4.67209686  1.33242102
   0.84223868  8.76609542  1.36840616
   4.96862780  0.45957915  1.39608168
   4.91721273  4.47107132  1.45129380
   9.14876743  0.40071370  1.30267789
   8.96269114  4.73166613  1.49081171
   4.94499297  8.86841594  1.22613162
   2.91469562  3.90145392  9.62919779
   2.84360975  8.13123007  9.51585222
   3.02617013 12.43105586  9.69192716
   7.08413947  4.21018860  9.51133903
   7.12588018  8.24504368  9.61010648
   7.20154316 12.29787377  9.58162909
  11.22139558  3.84844200  9.97723099
   9.03957841  8.74113609  1.35853986
  11.31614387  0.00794405  7.10289433
   2.82062887  4.29790331  7.23698191
   3.04327241  8.48592229  6.98933617
   7.10194841  0.09135314  7.15335278
   7.20962849  4.37931858  6.91232371
   7.10093761  8.57876662  7.03708812
  11.26484214  4.26237895  7.35704901
   9.22208336  0.03120922  3.91113544
   0.86328181  0.16118632  3.98802921
   0.66455886  4.39351534  3.88384882
   1.13773205  8.55508681  3.79767749
   4.96679818  0.09035037  3.92144221
   4.99593413  4.34670755  4.17643724
   5.04263843  8.67349754  3.76608247
   3.03198660  0.16707474  7.28043954
  11.29600872  8.58102822  7.16246164
  11.21893969 10.61025237  1.40915232
   2.99084004  2.32461185  1.53654111
  11.37040130  2.19124454  1.73332485
   9.07548219  4.19835507  3.95819311
   0.82366735  2.13130261  9.67603834
   0.73542475  6.54929498  9.58887735
   0.96081894 10.76593758  9.52636749
   4.92985350  2.36251504  9.61030221
   5.02186070  6.42874610  9.40672397
   5.16750113 10.50353797  9.51671365
   9.18362423  2.21885289  9.63193841
   9.04949346  6.30224386  9.34320890
   9.20288152 10.52703282  9.58209429
   3.06415575  6.45465735  1.42275783
   2.93979714 10.55753388  1.66969824
   6.99897024  2.06580601  1.66377245
   6.88286857  6.35305113  1.55125714
   7.08665800 10.55341699  1.48876715
  10.97757356  6.52686896  1.67990209
   9.21862189  8.39963949  3.85756556
 


--------------------------------------------------------------------------------------------------------


 k-point   1 :   0.0000 0.0000 0.0000  plane waves:   46285
 k-point   2 :   0.5000 0.0000 0.0000  plane waves:   46314
 k-point   3 :   0.0000 0.5000 0.0000  plane waves:   46286
 k-point   4 :   0.5000 0.5000 0.0000  plane waves:   46396
 k-point   5 :   0.0000 0.0000 0.5000  plane waves:   46350
 k-point   6 :   0.5000 0.0000 0.5000  plane waves:   46256
 k-point   7 :   0.0000 0.5000 0.5000  plane waves:   46276
 k-point   8 :   0.5000 0.5000 0.5000  plane waves:   46296

 maximum and minimum number of plane-waves per node :      5828     5744

 maximum number of plane-waves:     46396
 maximum index in each direction: 
   IXMAX=   23   IYMAX=   23   IZMAX=   20
   IXMIN=  -23   IYMIN=  -23   IZMIN=  -21


 parallel 3D FFT for wavefunctions:
    minimum data exchange during FFTs selected (reduces bandwidth)
 parallel 3D FFT for charge:
    minimum data exchange during FFTs selected (reduces bandwidth)


 total amount of memory used by VASP MPI-rank0   110606. kBytes
=======================================================================

   base      :      30000. kBytes
   nonl-proj :      16310. kBytes
   fftplans  :       6180. kBytes
   grid      :      15593. kBytes
   one-center:        146. kBytes
   wavefun   :      42377. kBytes
 
     INWAV:  cpu time      0.0000: real time      0.0001
 Broyden mixing: mesh for mixing (old mesh)
   NGX = 47   NGY = 47   NGZ = 41
  (NGX  =192   NGY  =192   NGZ  =168)
  gives a total of  90569 points

 initial charge density was supplied:
 charge density of overlapping atoms calculated
 number of electron     360.0000000 magnetization      72.0000000
 keeping initial charge density in first step


--------------------------------------------------------------------------------------------------------


 Maximum index for augmentation-charges           805 (set IRDMAX)


--------------------------------------------------------------------------------------------------------


 First call to EWALD:  gamma=   0.148
 Maximum number of real-space cells 3x 3x 3
 Maximum number of reciprocal cells 3x 3x 3

    FEWALD:  cpu time      0.0022: real time      0.0022


--------------------------------------- Ionic step        1  -------------------------------------------




--------------------------------------- Iteration      1(   1)  ---------------------------------------


    POTLOK:  cpu time      0.1392: real time      0.1401
    SETDIJ:  cpu time      0.6020: real time      0.6036
     EDDAV:  cpu time      8.7459: real time      8.7888
       DOS:  cpu time      0.0023: real time      0.0023
    --------------------------------------------
      LOOP:  cpu time      9.4894: real time      9.5348

 eigenvalue-minimisations  :  7168
 total energy-change (2. order) : 0.1810340E+04  (-0.1420273E+05)
 number of electron     360.0000000 magnetization      72.0000000
 augmentation part      360.0000000 magnetization      72.0000000

 Free energy of the ion-electron system (eV)
  ---------------------------------------------------
  alpha Z        PSCENC =       798.03765618
  Ewald energy   TEWEN  =    -12892.19938123
  -Hartree energ DENC   =     -1094.03040753
  -exchange      EXHF   =         0.00000000
  -V(xc)+E(xc)   XCENC  =      -294.07955452
  PAW double counting   =     10738.42099860    -9719.93139476
  entropy T*S    EENTRO =        -0.02302552
  eigenvalues    EBANDS =      1237.69391841
  atomic energy  EATOM  =     13036.45147835
  Solvation  Ediel_sol  =         0.00000000
  ---------------------------------------------------
  free energy    TOTEN  =      1810.34028798 eV

  energy without entropy =     1810.36331350  energy(sigma->0) =     1810.35180074


--------------------------------------------------------------------------------------------------------




--------------------------------------- Iteration      1(   2)  ---------------------------------------


     EDDAV:  cpu time      9.9249: real time      9.9759
       DOS:  cpu time      0.0016: real time      0.0017
    --------------------------------------------
      LOOP:  cpu time      9.9265: real time      9.9776

 eigenvalue-minimisations  :  8472
 total energy-change (2. order) :-0.1875411E+04  (-0.1800039E+04)
 number of electron     360.0000000 magnetization      72.0000000
 augmentation part      360.0000000 magnetization      72.0000000

 Free energy of the ion-electron system (eV)
  ---------------------------------------------------
  alpha Z        PSCENC =       798.03765618
  Ewald energy   TEWEN  =    -12892.19938123
  -Hartree energ DENC   =     -1094.03040753
  -exchange      EXHF   =         0.00000000
  -V(xc)+E(xc)   XCENC  =      -294.07955452
  PAW double counting   =     10738.42099860    -9719.93139476
  entropy T*S    EENTRO =        -0.01733032
  eigenvalues    EBANDS =      -637.72288392
  atomic energy  EATOM  =     13036.45147835
  Solvation  Ediel_sol  =         0.00000000
  ---------------------------------------------------
  free energy    TOTEN  =       -65.07081914 eV

  energy without entropy =      -65.05348883  energy(sigma->0) =      -65.06215399


--------------------------------------------------------------------------------------------------------




--------------------------------------- Iteration      1(   3)  ---------------------------------------


     EDDAV:  cpu time      9.9404: real time      9.9903
       DOS:  cpu time      0.0014: real time      0.0014
    --------------------------------------------
      LOOP:  cpu time      9.9417: real time      9.9917

 eigenvalue-minimisations  :  8568
 total energy-change (2. order) :-0.2168041E+03  (-0.2106369E+03)
 number of electron     360.0000000 magnetization      72.0000000
 augmentation part      360.0000000 magnetization      72.0000000

 Free energy of the ion-electron system (eV)
  ---------------------------------------------------
  alpha Z        PSCENC =       798.03765618
  Ewald energy   TEWEN  =    -12892.19938123
  -Hartree energ DENC   =     -1094.03040753
  -exchange      EXHF   =         0.00000000
  -V(xc)+E(xc)   XCENC  =      -294.07955452
  PAW double counting   =     10738.42099860    -9719.93139476
  entropy T*S    EENTRO =        -0.00020706
  eigenvalues    EBANDS =      -854.54409553
  atomic energy  EATOM  =     13036.45147835
  Solvation  Ediel_sol  =         0.00000000
  ---------------------------------------------------
  free energy    TOTEN  =      -281.87490750 eV

  energy without entropy =     -281.87470044  energy(sigma->0) =     -281.87480397


--------------------------------------------------------------------------------------------------------




--------------------------------------- Iteration      1(   4)  ---------------------------------------


     EDDAV:  cpu time     10.1652: real time     10.2180
       DOS:  cpu time      0.0020: real time      0.0020
    --------------------------------------------
      LOOP:  cpu time     10.1673: real time     10.2200

 eigenvalue-minimisations  :  8744
 total energy-change (2. order) :-0.7885424E+01  (-0.7796342E+01)
 number of electron     360.0000000 magnetization      72.0000000
 augmentation part      360.0000000 magnetization      72.0000000

 Free energy of the ion-electron system (eV)
  ---------------------------------------------------
  alpha Z        PSCENC =       798.03765618
  Ewald energy   TEWEN  =    -12892.19938123
  -Hartree energ DENC   =     -1094.03040753
  -exchange      EXHF   =         0.00000000
  -V(xc)+E(xc)   XCENC  =      -294.07955452
  PAW double counting   =     10738.42099860    -9719.93139476
  entropy T*S    EENTRO =        -0.00001448
  eigenvalues    EBANDS =      -862.42971162
  atomic energy  EATOM  =     13036.45147835
  Solvation  Ediel_sol  =         0.00000000
  ---------------------------------------------------
  free energy    TOTEN  =      -289.76033101 eV

  energy without entropy =     -289.76031653  energy(sigma->0) =     -289.76032377


--------------------------------------------------------------------------------------------------------




--------------------------------------- Iteration      1(   5)  ---------------------------------------


     EDDAV:  cpu time     10.4808: real time     10.5396
       DOS:  cpu time      0.0018: real time      0.0018
    CHARGE:  cpu time      0.4233: real time      0.4253
    MIXING:  cpu time      0.0075: real time      0.0075
    --------------------------------------------
      LOOP:  cpu time     10.9134: real time     10.9742

 eigenvalue-minimisations  :  9120
 total energy-change (2. order) :-0.2807345E+00  (-0.2799504E+00)
 number of electron     359.9999999 magnetization      48.8447234
 augmentation part      -66.8360068 magnetization      49.0577173

 Broyden mixing:
  rms(total) = 0.28977E+01    rms(broyden)= 0.28977E+01
  rms(prec ) = 0.30586E+01
  weight for this iteration     100.00

 Free energy of the ion-electron system (eV)
  ---------------------------------------------------
  alpha Z        PSCENC =       798.03765618
  Ewald energy   TEWEN  =    -12892.19938123
  -Hartree energ DENC   =     -1094.03040753
  -exchange      EXHF   =         0.00000000
  -V(xc)+E(xc)   XCENC  =      -294.07955452
  PAW double counting   =     10738.42099860    -9719.93139476
  entropy T*S    EENTRO =        -0.00001503
  eigenvalues    EBANDS =      -862.71044557
  atomic energy  EATOM  =     13036.45147835
  Solvation  Ediel_sol  =         0.00000000
  ---------------------------------------------------
  free energy    TOTEN  =      -290.04106551 eV

  energy without entropy =     -290.04105048  energy(sigma->0) =     -290.04105800


--------------------------------------------------------------------------------------------------------




--------------------------------------- Iteration      1(   6)  ---------------------------------------


    POTLOK:  cpu time      0.1349: real time      0.1362
    SETDIJ:  cpu time      0.6083: real time      0.6103
     EDDAV:  cpu time      9.4144: real time      9.4592
       DOS:  cpu time      0.0012: real time      0.0012
    CHARGE:  cpu time      0.4228: real time      0.4247
    MIXING:  cpu time      0.0079: real time      0.0079
    --------------------------------------------
      LOOP:  cpu time     10.5896: real time     10.6396

 eigenvalue-minimisations  :  7976
 total energy-change (2. order) : 0.5966411E+00  (-0.2721621E+01)
 number of electron     359.9999999 magnetization      28.1074028
 augmentation part      -66.2162833 magnetization      29.2919708

 Broyden mixing:
  rms(total) = 0.17134E+01    rms(broyden)= 0.17134E+01
  rms(prec ) = 0.17497E+01
  weight for this iteration     100.00

 eigenvalues of (default mixing * dielectric matrix)
  average eigenvalue GAMMA=   1.0052
  1.0052

 Free energy of the ion-electron system (eV)
  ---------------------------------------------------
  alpha Z        PSCENC =       798.03765618
  Ewald energy   TEWEN  =    -12892.19938123
  -Hartree energ DENC   =     -1147.89925530
  -exchange      EXHF   =         0.00000000
  -V(xc)+E(xc)   XCENC  =      -287.62758433
  PAW double counting   =     12980.91792909   -11965.88816267
  entropy T*S    EENTRO =        -0.00004702
  eigenvalues    EBANDS =      -811.23705744
  atomic energy  EATOM  =     13036.45147835
  Solvation  Ediel_sol  =         0.00000000
  ---------------------------------------------------
  free energy    TOTEN  =      -289.44442437 eV

  energy without entropy =     -289.44437734  energy(sigma->0) =     -289.44440085


--------------------------------------------------------------------------------------------------------




--------------------------------------- Iteration      1(   7)  ---------------------------------------


    POTLOK:  cpu time      0.1305: real time      0.1311
    SETDIJ:  cpu time      0.6078: real time      0.6096
     EDDAV:  cpu time      9.5821: real time      9.6281
       DOS:  cpu time      0.0011: real time      0.0012
    CHARGE:  cpu time      0.4209: real time      0.4224
    MIXING:  cpu time      0.0095: real time      0.0096
    --------------------------------------------
      LOOP:  cpu time     10.7520: real time     10.8019

 eigenvalue-minimisations  :  8064
 total energy-change (2. order) :-0.7327295E+01  (-0.8660540E+00)
 number of electron     359.9999999 magnetization       9.3875682
 augmentation part      -66.2105001 magnetization      10.0654889

 Broyden mixing:
  rms(total) = 0.90993E+00    rms(broyden)= 0.90993E+00
  rms(prec ) = 0.92570E+00
  weight for this iteration     100.00

 eigenvalues of (default mixing * dielectric matrix)
  average eigenvalue GAMMA=   1.4473
  0.8619  2.0328

 Free energy of the ion-electron system (eV)
  ---------------------------------------------------
  alpha Z        PSCENC =       798.03765618
  Ewald energy   TEWEN  =    -12892.19938123
  -Hartree energ DENC   =     -1164.06280112
  -exchange      EXHF   =         0.00000000
  -V(xc)+E(xc)   XCENC  =      -290.60964280
  PAW double counting   =     15014.83850745   -14001.36617598
  entropy T*S    EENTRO =        -0.00000001
  eigenvalues    EBANDS =      -797.86136069
  atomic energy  EATOM  =     13036.45147835
  Solvation  Ediel_sol  =         0.00000000
  ---------------------------------------------------
  free energy    TOTEN  =      -296.77171984 eV

  energy without entropy =     -296.77171983  energy(sigma->0) =     -296.77171984


--------------------------------------------------------------------------------------------------------




--------------------------------------- Iteration      1(   8)  ---------------------------------------


    POTLOK:  cpu time      0.1301: real time      0.1308
    SETDIJ:  cpu time      0.6106: real time      0.6127
     EDDAV:  cpu time      9.6094: real time      9.6626
       DOS:  cpu time      0.0008: real time      0.0008
    CHARGE:  cpu time      0.4212: real time      0.4226
    MIXING:  cpu time      0.0079: real time      0.0079
    --------------------------------------------
      LOOP:  cpu time     10.7799: real time     10.8374

 eigenvalue-minimisations  :  8128
 total energy-change (2. order) :-0.3265369E+01  (-0.1713204E+00)
 number of electron     359.9999999 magnetization       4.3625100
 augmentation part      -66.2294193 magnetization       4.6746192

 Broyden mixing:
  rms(total) = 0.33243E+00    rms(broyden)= 0.33243E+00
  rms(prec ) = 0.33758E+00
  weight for this iteration     100.00

 eigenvalues of (default mixing * dielectric matrix)
  average eigenvalue GAMMA=   1.3621
  2.5058  0.9257  0.6549

 Free energy of the ion-electron system (eV)
  ---------------------------------------------------
  alpha Z        PSCENC =       798.03765618
  Ewald energy   TEWEN  =    -12892.19938123
  -Hartree energ DENC   =     -1167.81697050
  -exchange      EXHF   =         0.00000000
  -V(xc)+E(xc)   XCENC  =      -290.39795108
  PAW double counting   =     16750.17251656   -15737.58615011
  entropy T*S    EENTRO =        -0.00000000
  eigenvalues    EBANDS =      -796.69828749
  atomic energy  EATOM  =     13036.45147835
  Solvation  Ediel_sol  =         0.00000000
  ---------------------------------------------------
  free energy    TOTEN  =      -300.03708932 eV

  energy without entropy =     -300.03708932  energy(sigma->0) =     -300.03708932


--------------------------------------------------------------------------------------------------------




--------------------------------------- Iteration      1(   9)  ---------------------------------------


    POTLOK:  cpu time      0.1293: real time      0.1300
    SETDIJ:  cpu time      0.6097: real time      0.6119
     EDDAV:  cpu time     10.3454: real time     10.3946
       DOS:  cpu time      0.0011: real time      0.0012
    CHARGE:  cpu time      0.4164: real time      0.4181
    MIXING:  cpu time      0.0081: real time      0.0081
    --------------------------------------------
      LOOP:  cpu time     11.5100: real time     11.5638

 eigenvalue-minimisations  :  9040
 total energy-change (2. order) :-0.4010454E+00  (-0.4436281E-01)
 number of electron     359.9999999 magnetization       2.2837861
 augmentation part      -66.2687720 magnetization       2.4369651

 Broyden mixing:
  rms(total) = 0.14753E+00    rms(broyden)= 0.14753E+00
  rms(prec ) = 0.14913E+00
  weight for this iteration     100.00

 eigenvalues of (default mixing * dielectric matrix)
  average eigenvalue GAMMA=   1.3332
  2.6393  1.2390  0.8342  0.6203

 Free energy of the ion-electron system (eV)
  ---------------------------------------------------
  alpha Z        PSCENC =       798.03765618
  Ewald energy   TEWEN  =    -12892.19938123
  -Hartree energ DENC   =     -1166.76572326
  -exchange      EXHF   =         0.00000000
  -V(xc)+E(xc)   XCENC  =      -290.44273815
  PAW double counting   =     17046.28560688   -16034.03952899
  entropy T*S    EENTRO =        -0.00000000
  eigenvalues    EBANDS =      -797.76550447
  atomic energy  EATOM  =     13036.45147835
  Solvation  Ediel_sol  =         0.00000000
  ---------------------------------------------------
  free energy    TOTEN  =      -300.43813467 eV

  energy without entropy =     -300.43813467  energy(sigma->0) =     -300.43813467


--------------------------------------------------------------------------------------------------------




--------------------------------------- Iteration      1(  10)  ---------------------------------------


    POTLOK:  cpu time      0.1297: real time      0.1304
    SETDIJ:  cpu time      0.6084: real time      0.6105
     EDDAV:  cpu time      9.5444: real time      9.5907
       DOS:  cpu time      0.0014: real time      0.0014
    CHARGE:  cpu time      0.4167: real time      0.4182
    MIXING:  cpu time      0.0081: real time      0.0081
    --------------------------------------------
      LOOP:  cpu time     10.7088: real time     10.7594

 eigenvalue-minimisations  :  8096
 total energy-change (2. order) :-0.1038097E+00  (-0.9467692E-02)
 number of electron     359.9999999 magnetization       0.7181539
 augmentation part      -66.2694658 magnetization       0.7867384

 Broyden mixing:
  rms(total) = 0.73110E-01    rms(broyden)= 0.73110E-01
  rms(prec ) = 0.74183E-01
  weight for this iteration     100.00

 eigenvalues of (default mixing * dielectric matrix)
  average eigenvalue GAMMA=   1.3776
  2.7125  1.7474  0.9743  0.8276  0.6264

 Free energy of the ion-electron system (eV)
  ---------------------------------------------------
  alpha Z        PSCENC =       798.03765618
  Ewald energy   TEWEN  =    -12892.19938123
  -Hartree energ DENC   =     -1167.01421292
  -exchange      EXHF   =         0.00000000
  -V(xc)+E(xc)   XCENC  =      -290.44223944
  PAW double counting   =     17051.48340559   -16039.25055214
  entropy T*S    EENTRO =        -0.00000000
  eigenvalues    EBANDS =      -797.60809881
  atomic energy  EATOM  =     13036.45147835
  Solvation  Ediel_sol  =         0.00000000
  ---------------------------------------------------
  free energy    TOTEN  =      -300.54194440 eV

  energy without entropy =     -300.54194440  energy(sigma->0) =     -300.54194440


--------------------------------------------------------------------------------------------------------




--------------------------------------- Iteration      1(  11)  ---------------------------------------


    POTLOK:  cpu time      0.1318: real time      0.1327
    SETDIJ:  cpu time      0.6073: real time      0.6092
     EDDAV:  cpu time     10.3256: real time     10.3794
       DOS:  cpu time      0.0010: real time      0.0010
    CHARGE:  cpu time      0.4171: real time      0.4187
    MIXING:  cpu time      0.0077: real time      0.0077
    --------------------------------------------
      LOOP:  cpu time     11.4905: real time     11.5487

 eigenvalue-minimisations  :  9016
 total energy-change (2. order) :-0.3131092E-01  (-0.3715804E-02)
 number of electron     359.9999999 magnetization       0.1704725
 augmentation part      -66.2547924 magnetization       0.1889408

 Broyden mixing:
  rms(total) = 0.28132E-01    rms(broyden)= 0.28132E-01
  rms(prec ) = 0.28638E-01
  weight for this iteration     100.00

 eigenvalues of (default mixing * dielectric matrix)
  average eigenvalue GAMMA=   1.4089
  2.9244  2.1779  1.1727  0.8556  0.6984  0.6246

 Free energy of the ion-electron system (eV)
  ---------------------------------------------------
  alpha Z        PSCENC =       798.03765618
  Ewald energy   TEWEN  =    -12892.19938123
  -Hartree energ DENC   =     -1168.13337103
  -exchange      EXHF   =         0.00000000
  -V(xc)+E(xc)   XCENC  =      -290.40672540
  PAW double counting   =     16971.43650588   -15959.17548590
  entropy T*S    EENTRO =        -0.00000000
  eigenvalues    EBANDS =      -796.58393218
  atomic energy  EATOM  =     13036.45147835
  Solvation  Ediel_sol  =         0.00000000
  ---------------------------------------------------
  free energy    TOTEN  =      -300.57325532 eV

  energy without entropy =     -300.57325532  energy(sigma->0) =     -300.57325532


--------------------------------------------------------------------------------------------------------




--------------------------------------- Iteration      1(  12)  ---------------------------------------


    POTLOK:  cpu time      0.1323: real time      0.1339
    SETDIJ:  cpu time      0.6051: real time      0.6072
     EDDAV:  cpu time      9.9635: real time     10.0194
       DOS:  cpu time      0.0014: real time      0.0014
    CHARGE:  cpu time      0.4167: real time      0.4183
    MIXING:  cpu time      0.0082: real time      0.0082
    --------------------------------------------
      LOOP:  cpu time     11.1272: real time     11.1885

 eigenvalue-minimisations  :  8488
 total energy-change (2. order) :-0.3158029E-02  (-0.4528939E-03)
 number of electron     359.9999999 magnetization       0.0533750
 augmentation part      -66.2544978 magnetization       0.0575905

 Broyden mixing:
  rms(total) = 0.10100E-01    rms(broyden)= 0.10100E-01
  rms(prec ) = 0.10766E-01
  weight for this iteration     100.00

 eigenvalues of (default mixing * dielectric matrix)
  average eigenvalue GAMMA=   1.3691
  3.0247  2.3328  1.2038  0.8781  0.8781  0.6091  0.6569

 Free energy of the ion-electron system (eV)
  ---------------------------------------------------
  alpha Z        PSCENC =       798.03765618
  Ewald energy   TEWEN  =    -12892.19938123
  -Hartree energ DENC   =     -1168.19466288
  -exchange      EXHF   =         0.00000000
  -V(xc)+E(xc)   XCENC  =      -290.41338745
  PAW double counting   =     16935.33748361   -15923.05345753
  entropy T*S    EENTRO =        -0.00000000
  eigenvalues    EBANDS =      -796.54214241
  atomic energy  EATOM  =     13036.45147835
  Solvation  Ediel_sol  =         0.00000000
  ---------------------------------------------------
  free energy    TOTEN  =      -300.57641335 eV

  energy without entropy =     -300.57641335  energy(sigma->0) =     -300.57641335


--------------------------------------------------------------------------------------------------------




--------------------------------------- Iteration      1(  13)  ---------------------------------------


    POTLOK:  cpu time      0.1298: real time      0.1304
    SETDIJ:  cpu time      0.6049: real time      0.6100
     EDDAV:  cpu time     11.0054: real time     11.0730
       DOS:  cpu time      0.0008: real time      0.0008
    CHARGE:  cpu time      0.4231: real time      0.4246
    MIXING:  cpu time      0.0079: real time      0.0079
    --------------------------------------------
      LOOP:  cpu time     12.1718: real time     12.2468

 eigenvalue-minimisations  :  9752
 total energy-change (2. order) :-0.1001662E-03  (-0.6045077E-04)
 number of electron     359.9999999 magnetization       0.0148059
 augmentation part      -66.2559571 magnetization       0.0154393

 Broyden mixing:
  rms(total) = 0.41051E-02    rms(broyden)= 0.41051E-02
  rms(prec ) = 0.43220E-02
  weight for this iteration     100.00

 eigenvalues of (default mixing * dielectric matrix)
  average eigenvalue GAMMA=   1.3408
  3.0666  2.4208  1.1497  0.9854  0.9854  0.8574  0.6511  0.6103

 Free energy of the ion-electron system (eV)
  ---------------------------------------------------
  alpha Z        PSCENC =       798.03765618
  Ewald energy   TEWEN  =    -12892.19938123
  -Hartree energ DENC   =     -1168.08451285
  -exchange      EXHF   =         0.00000000
  -V(xc)+E(xc)   XCENC  =      -290.42449495
  PAW double counting   =     16922.16808748   -15909.87319751
  entropy T*S    EENTRO =        -0.00000000
  eigenvalues    EBANDS =      -796.65214900
  atomic energy  EATOM  =     13036.45147835
  Solvation  Ediel_sol  =         0.00000000
  ---------------------------------------------------
  free energy    TOTEN  =      -300.57651352 eV

  energy without entropy =     -300.57651352  energy(sigma->0) =     -300.57651352


--------------------------------------------------------------------------------------------------------




--------------------------------------- Iteration      1(  14)  ---------------------------------------


    POTLOK:  cpu time      0.1293: real time      0.1302
    SETDIJ:  cpu time      0.6093: real time      0.6114
     EDDAV:  cpu time      9.7028: real time      9.7508
       DOS:  cpu time      0.0010: real time      0.0010
    CHARGE:  cpu time      0.4203: real time      0.4219
    MIXING:  cpu time      0.0079: real time      0.0080
    --------------------------------------------
      LOOP:  cpu time     10.8706: real time     10.9232

 eigenvalue-minimisations  :  8288
 total energy-change (2. order) :-0.1326382E-04  (-0.8217017E-05)
 number of electron     359.9999999 magnetization       0.0049137
 augmentation part      -66.2556519 magnetization       0.0052072

 Broyden mixing:
  rms(total) = 0.16952E-02    rms(broyden)= 0.16952E-02
  rms(prec ) = 0.18093E-02
  weight for this iteration     100.00

 eigenvalues of (default mixing * dielectric matrix)
  average eigenvalue GAMMA=   1.3299
  3.0891  2.4599  1.4541  1.1827  0.8818  0.8818  0.7627  0.6138  0.6431

 Free energy of the ion-electron system (eV)
  ---------------------------------------------------
  alpha Z        PSCENC =       798.03765618
  Ewald energy   TEWEN  =    -12892.19938123
  -Hartree energ DENC   =     -1168.08407877
  -exchange      EXHF   =         0.00000000
  -V(xc)+E(xc)   XCENC  =      -290.42534712
  PAW double counting   =     16918.18516367   -15905.88761771
  entropy T*S    EENTRO =        -0.00000000
  eigenvalues    EBANDS =      -796.65440016
  atomic energy  EATOM  =     13036.45147835
  Solvation  Ediel_sol  =         0.00000000
  ---------------------------------------------------
  free energy    TOTEN  =      -300.57652678 eV

  energy without entropy =     -300.57652678  energy(sigma->0) =     -300.57652678


--------------------------------------------------------------------------------------------------------




--------------------------------------- Iteration      1(  15)  ---------------------------------------


    POTLOK:  cpu time      0.1295: real time      0.1304
    SETDIJ:  cpu time      0.6084: real time      0.6104
     EDDAV:  cpu time     10.2462: real time     10.3001
       DOS:  cpu time      0.0011: real time      0.0011
    CHARGE:  cpu time      0.4192: real time      0.4212
    MIXING:  cpu time      0.0080: real time      0.0080
    --------------------------------------------
      LOOP:  cpu time     11.4124: real time     11.4712

 eigenvalue-minimisations  :  8752
 total energy-change (2. order) :-0.2282913E-05  (-0.1492170E-05)
 number of electron     359.9999999 magnetization       0.0016948
 augmentation part      -66.2558346 magnetization       0.0019041

 Broyden mixing:
  rms(total) = 0.75545E-03    rms(broyden)= 0.75545E-03
  rms(prec ) = 0.79734E-03
  weight for this iteration     100.00

 eigenvalues of (default mixing * dielectric matrix)
  average eigenvalue GAMMA=   1.3009
  3.0986  2.4324  1.6654  1.1058  0.9667  0.9667  0.8324  0.7010  0.6201  0.6201

 Free energy of the ion-electron system (eV)
  ---------------------------------------------------
  alpha Z        PSCENC =       798.03765618
  Ewald energy   TEWEN  =    -12892.19938123
  -Hartree energ DENC   =     -1168.06760112
  -exchange      EXHF   =         0.00000000
  -V(xc)+E(xc)   XCENC  =      -290.42604811
  PAW double counting   =     16917.59697750   -15905.29851699
  entropy T*S    EENTRO =        -0.00000000
  eigenvalues    EBANDS =      -796.67109364
  atomic energy  EATOM  =     13036.45147835
  Solvation  Ediel_sol  =         0.00000000
  ---------------------------------------------------
  free energy    TOTEN  =      -300.57652907 eV

  energy without entropy =     -300.57652907  energy(sigma->0) =     -300.57652907


--------------------------------------------------------------------------------------------------------




--------------------------------------- Iteration      1(  16)  ---------------------------------------


    POTLOK:  cpu time      0.1295: real time      0.1302
    SETDIJ:  cpu time      0.6081: real time      0.6103
     EDDAV:  cpu time      6.6260: real time      6.6665
       DOS:  cpu time      0.0006: real time      0.0006
    --------------------------------------------
      LOOP:  cpu time      7.3642: real time      7.4076

 eigenvalue-minimisations  :  4800
 total energy-change (2. order) :-0.7719184E-06  (-0.1478050E-06)
 number of electron     359.9999999 magnetization       0.0016948
 augmentation part      -66.2558346 magnetization       0.0019041

 Free energy of the ion-electron system (eV)
  ---------------------------------------------------
  alpha Z        PSCENC =       798.03765618
  Ewald energy   TEWEN  =    -12892.19938123
  -Hartree energ DENC   =     -1168.06059680
  -exchange      EXHF   =         0.00000000
  -V(xc)+E(xc)   XCENC  =      -290.42635610
  PAW double counting   =     16917.59070723   -15905.29199537
  entropy T*S    EENTRO =        -0.00000000
  eigenvalues    EBANDS =      -796.67804210
  atomic energy  EATOM  =     13036.45147835
  Solvation  Ediel_sol  =         0.00000000
  ---------------------------------------------------
  free energy    TOTEN  =      -300.57652984 eV

  energy without entropy =     -300.57652984  energy(sigma->0) =     -300.57652984


--------------------------------------------------------------------------------------------------------




 average (electrostatic) potential at core
  the test charge radii are     1.1631  1.0808
  (the norm of the test charge is              1.0000)
       1 -33.3941       2 -33.3680       3 -33.2677       4 -33.5996       5 -33.4169
       6 -33.3284       7 -33.7119       8 -33.3035       9 -33.5782      10 -33.5937
      11 -33.6259      12 -33.5508      13 -33.6174      14 -33.4538      15 -33.4722
      16 -33.3442      17 -33.3638      18 -33.3704      19 -33.5265      20 -33.5783
      21 -33.4378      22 -33.6270      23 -33.4881      24 -33.2717      25 -33.6089
      26 -33.7546      27 -33.3396      28 -33.4133      29 -33.2759      30 -33.6202
      31 -33.4138      32 -33.6593      33 -33.5171      34 -33.2715      35 -33.5289
      36 -33.5195      37 -54.8926      38 -54.8563      39 -55.0402      40 -54.8092
      41 -54.8994      42 -54.8234      43 -54.7861      44 -54.8467      45 -54.5842
      46 -54.9620      47 -54.9906      48 -54.5578      49 -54.9448      50 -54.8814
      51 -54.8065      52 -55.2128      53 -54.8526      54 -54.6718      55 -54.8584
      56 -54.6771      57 -54.9040      58 -55.0919      59 -54.8274      60 -54.8431
      61 -54.7222      62 -54.6385      63 -54.7491      64 -54.8540      65 -54.7082
      66 -54.6399      67 -54.6166      68 -54.7340      69 -54.7310      70 -54.7612
      71 -54.7531      72 -54.9277
 
 
 
 E-fermi :   3.5513     XC(G=0):  -9.3897     alpha+bet : -8.8336

 Fermi energy:         3.5512932212

 spin component 1

 k-point     1 :       0.0000    0.0000    0.0000
  band No.  band energies     occupation 
      1     -10.8803      1.00000
      2     -10.5474      1.00000
      3     -10.4012      1.00000
      4     -10.3006      1.00000
      5     -10.2935      1.00000
      6     -10.2301      1.00000
      7     -10.0422      1.00000
      8     -10.0374      1.00000
      9     -10.0011      1.00000
     10      -9.9180      1.00000
     11      -9.8908      1.00000
     12      -9.8465      1.00000
     13      -9.7761      1.00000
     14      -9.7310      1.00000
     15      -9.6628      1.00000
     16      -9.6028      1.00000
     17      -9.5601      1.00000
     18      -9.5131      1.00000
     19      -9.4940      1.00000
     20      -9.4427      1.00000
     21      -9.4392      1.00000
     22      -9.3468      1.00000
     23      -9.3120      1.00000
     24      -9.2520      1.00000
     25      -9.2398      1.00000
     26      -9.2252      1.00000
     27      -9.1846      1.00000
     28      -9.1108      1.00000
     29      -9.0786      1.00000
     30      -9.0517      1.00000
     31      -9.0115      1.00000
     32      -8.9857      1.00000
     33      -8.9777      1.00000
     34      -8.9705      1.00000
     35      -8.9369      1.00000
     36      -8.8105      1.00000
     37      -5.4073      1.00000
     38      -5.3408      1.00000
     39      -5.3201      1.00000
     40      -5.3080      1.00000
     41      -5.0799      1.00000
     42      -5.0327      1.00000
     43      -4.9914      1.00000
     44      -4.9472      1.00000
     45      -4.8050      1.00000
     46      -4.7718      1.00000
     47      -4.5467      1.00000
     48      -4.4590      1.00000
     49      -4.4364      1.00000
     50      -4.4291      1.00000
     51      -4.4097      1.00000
     52      -4.3573      1.00000
     53      -4.3305      1.00000
     54      -4.3180      1.00000
     55      -4.2738      1.00000
     56      -4.2449      1.00000
     57      -4.2357      1.00000
     58      -4.2116      1.00000
     59      -4.1828      1.00000
     60      -4.1542      1.00000
     61      -4.0902      1.00000
     62      -4.0592      1.00000
     63      -3.9864      1.00000
     64      -3.8896      1.00000
     65      -3.8736      1.00000
     66      -3.8266      1.00000
     67      -3.7287      1.00000
     68      -3.6928      1.00000
     69      -3.4700      1.00000
     70      -3.4089      1.00000
     71      -2.4106      1.00000
     72      -2.3689      1.00000
     73      -1.8122      1.00000
     74      -1.6336      1.00000
     75      -1.6128      1.00000
     76      -1.5807      1.00000
     77      -1.4714      1.00000
     78      -1.4051      1.00000
     79      -1.2863      1.00000
     80      -1.2817      1.00000
     81      -1.2149      1.00000
     82      -1.1468      1.00000
     83      -1.1178      1.00000
     84      -1.0666      1.00000
     85      -1.0201      1.00000
     86      -0.8534      1.00000
     87      -0.7648      1.00000
     88      -0.7057      1.00000
     89      -0.6928      1.00000
     90      -0.5704      1.00000
     91      -0.5473      1.00000
     92      -0.5025      1.00000
     93      -0.4416      1.00000
     94      -0.3495      1.00000
     95      -0.0967      1.00000
     96      -0.0397      1.00000
     97       0.0026      1.00000
     98       0.0159      1.00000
     99       0.0417      1.00000
    100       0.1251      1.00000
    101       0.1521      1.00000
    102       0.1674      1.00000
    103       0.2308      1.00000
    104       0.2852      1.00000
    105       0.2864      1.00000
    106       0.3089      1.00000
    107       0.3318      1.00000
    108       0.3783      1.00000
    109       0.4249      1.00000
    110       0.4606      1.00000
    111       0.5145      1.00000
    112       0.5648      1.00000
    113       0.5959      1.00000
    114       0.6256      1.00000
    115       0.6624      1.00000
    116       0.6891      1.00000
    117       0.7141      1.00000
    118       0.7464      1.00000
    119       0.7771      1.00000
    120       0.7886      1.00000
    121       0.8133      1.00000
    122       0.8671      1.00000
    123       0.9317      1.00000
    124       0.9472      1.00000
    125       0.9787      1.00000
    126       1.0324      1.00000
    127       1.0749      1.00000
    128       1.1076      1.00000
    129       1.1408      1.00000
    130       1.1714      1.00000
    131       1.2041      1.00000
    132       1.2397      1.00000
    133       1.2761      1.00000
    134       1.3014      1.00000
    135       1.3895      1.00000
    136       1.4219      1.00000
    137       1.4604      1.00000
    138       1.4748      1.00000
    139       1.5530      1.00000
    140       1.5636      1.00000
    141       1.5963      1.00000
    142       1.6611      1.00000
    143       1.6980      1.00000
    144       1.7141      1.00000
    145       1.7599      1.00000
    146       1.8024      1.00000
    147       1.8332      1.00000
    148       1.8685      1.00000
    149       1.9239      1.00000
    150       1.9315      1.00000
[...]
   0.487E+01 -.146E+02 -.180E+02   -.484E+01 0.167E+02 0.202E+02   -.236E+00 -.218E+01 -.281E+01   0.167E-03 0.149E-03 -.620E-04
   0.592E+00 0.996E+01 0.241E+02   -.425E+00 -.113E+02 -.269E+02   -.884E-01 0.156E+01 0.261E+01   0.275E-04 0.658E-04 0.777E-04
   0.366E+01 0.392E+01 0.367E+02   -.352E+01 -.481E+01 -.384E+02   -.164E+00 0.103E+01 0.178E+01   -.137E-03 0.128E-03 -.920E-04
   0.326E+01 0.458E+01 0.382E+02   -.346E+01 -.523E+01 -.405E+02   0.162E+00 0.107E+01 0.113E+01   -.264E-03 -.695E-04 0.864E-04
   0.231E+01 0.148E+02 0.241E+02   -.248E+01 -.160E+02 -.259E+02   -.246E+00 0.730E+00 0.190E+01   -.158E-04 0.462E-04 -.122E-03
   0.792E+00 -.390E+01 0.376E+02   -.765E+00 0.304E+01 -.397E+02   0.840E-01 0.127E+01 0.158E+01   -.103E-03 0.167E-04 0.122E-03
   0.297E+01 0.218E+02 0.206E+02   -.345E+01 -.231E+02 -.223E+02   -.191E+00 0.984E+00 0.232E+01   0.193E-03 -.810E-04 -.322E-03
   -.279E+01 0.112E+02 0.287E+02   0.300E+01 -.124E+02 -.302E+02   -.994E-01 0.851E+00 0.157E+01   0.381E-04 0.934E-04 0.159E-03
   0.756E+00 0.131E+02 0.330E+02   -.940E+00 -.140E+02 -.341E+02   0.996E-01 0.122E+01 0.113E+01   0.569E-04 0.248E-03 -.106E-03
   0.814E+01 -.264E+02 -.355E+02   -.839E+01 0.278E+02 0.370E+02   -.102E+00 -.111E+01 -.174E+01   -.120E-03 -.268E-03 0.413E-03
   -.213E+01 -.907E+01 -.378E+02   0.159E+01 0.955E+01 0.396E+02   0.628E+00 -.815E+00 -.155E+01   0.131E-03 -.480E-04 0.122E-03
   -.801E+01 -.179E+02 -.342E+02   0.814E+01 0.194E+02 0.356E+02   0.194E+00 -.812E+00 -.127E+01   -.448E-04 0.379E-04 0.335E-03
   0.565E+01 -.165E+01 -.328E+02   -.534E+01 0.293E+01 0.344E+02   -.821E+00 -.147E+01 -.894E+00   -.640E-04 -.413E-04 0.188E-03
   -.231E+01 -.191E+02 -.373E+02   0.274E+01 0.203E+02 0.390E+02   -.159E+00 -.122E+01 -.155E+01   0.387E-04 0.215E-03 -.557E-04
   0.238E+01 -.310E+01 -.217E+02   -.226E+01 0.409E+01 0.231E+02   -.985E-01 -.660E+00 -.228E+01   -.891E-04 -.299E-03 0.171E-03
   -.429E+01 -.566E+01 -.325E+02   0.430E+01 0.673E+01 0.339E+02   0.169E+00 -.158E+01 -.911E+00   -.351E-04 0.470E-04 0.125E-03
   -.876E+01 0.142E+01 0.416E+02   0.903E+01 -.229E+01 -.435E+02   -.177E+00 0.117E+01 0.103E+01   0.258E-03 0.261E-04 -.137E-03
   0.374E+01 0.111E+02 0.295E+02   -.385E+01 -.123E+02 -.310E+02   0.111E-01 0.592E+00 0.123E+01   -.176E-04 -.428E-03 -.227E-03
   -.260E+01 -.305E+01 0.226E+02   0.246E+01 0.351E+01 -.247E+02   0.571E-01 -.839E+00 0.198E+01   -.700E-04 -.224E-03 0.300E-03
   0.432E+01 -.565E+01 0.117E+02   -.473E+01 0.611E+01 -.135E+02   0.312E+00 -.691E+00 0.203E+01   0.185E-03 -.309E-03 0.118E-03
   0.160E+02 -.629E+01 0.224E+02   -.163E+02 0.655E+01 -.243E+02   -.610E-01 -.501E+00 0.930E+00   0.946E-04 0.442E-03 0.125E-03
   -.710E+01 -.652E+01 -.275E+02   0.719E+01 0.777E+01 0.292E+02   -.697E-01 -.111E+01 -.178E+01   0.386E-04 -.921E-04 -.111E-03
   -.380E+01 -.265E+01 -.150E+02   0.420E+01 0.208E+01 0.166E+02   -.254E+00 0.639E+00 -.203E+01   0.311E-04 0.428E-03 -.303E-04
   -.105E+02 0.185E+02 -.274E+02   0.110E+02 -.200E+02 0.292E+02   0.191E+00 0.904E+00 -.190E+01   -.136E-03 -.324E-03 -.686E-04
   -.995E+01 0.207E+02 -.183E+02   0.104E+02 -.220E+02 0.199E+02   -.109E-01 0.553E+00 -.187E+01   0.158E-03 0.206E-04 0.110E-03
   -.216E+02 0.822E+01 -.193E+02   0.223E+02 -.917E+01 0.213E+02   -.933E-01 0.815E+00 -.217E+01   -.236E-03 -.218E-03 0.131E-04
   0.190E+01 0.879E+01 -.226E+02   -.199E+01 -.937E+01 0.244E+02   0.160E+00 0.654E+00 -.176E+01   -.769E-04 0.114E-03 -.421E-04
   0.113E+02 -.113E+01 -.181E+02   -.117E+02 0.742E+00 0.196E+02   -.304E-01 0.773E+00 -.182E+01   0.161E-03 0.331E-03 -.244E-04
   0.177E+02 0.155E+01 -.193E+02   -.185E+02 -.218E+01 0.209E+02   0.734E+00 0.854E+00 -.188E+01   0.695E-04 -.923E-05 -.283E-04
   -.285E+01 0.611E+01 -.321E+02   0.310E+01 -.654E+01 0.341E+02   0.222E-01 0.989E+00 -.113E+01   0.235E-03 0.133E-03 -.123E-03
   -.183E+01 0.195E+01 -.158E+02   0.231E+01 -.249E+01 0.174E+02   -.573E+00 0.737E+00 -.221E+01   -.292E-03 0.103E-03 -.122E-04
   0.126E+02 0.964E+01 0.276E+02   -.131E+02 -.951E+01 -.295E+02   0.432E+00 -.625E+00 0.194E+01   -.270E-03 -.695E-04 0.188E-03
   0.165E+01 -.135E+02 0.267E+02   -.186E+01 0.145E+02 -.278E+02   0.680E-02 -.111E+01 0.119E+01   0.127E-03 0.286E-03 -.371E-04
   -.978E+01 -.131E+02 0.283E+02   0.101E+02 0.143E+02 -.304E+02   -.194E-01 -.826E+00 0.151E+01   -.303E-03 -.487E-04 0.252E-03
   -.165E+01 0.135E+01 0.234E+02   0.132E+01 -.640E+00 -.247E+02   0.865E+00 -.684E+00 0.172E+01   0.447E-03 -.775E-04 0.665E-05
   0.277E+01 -.135E+02 0.222E+02   -.282E+01 0.143E+02 -.239E+02   0.167E+00 -.667E+00 0.180E+01   -.336E-04 0.564E-04 0.415E-04
   -.209E+01 0.125E+01 0.161E+02   0.215E+01 -.632E+00 -.167E+02   0.514E+00 -.118E+01 0.855E+00   -.806E-04 -.369E-03 -.126E-03
   0.195E+01 0.356E+01 -.340E+02   -.211E+01 -.313E+01 0.356E+02   -.172E+00 0.376E-01 -.115E+01   0.129E-03 0.271E-03 0.644E-04
 -----------------------------------------------------------------------------------------------
   0.963E+00 0.162E+01 0.210E+01   -.107E-13 0.426E-13 -.114E-12   -.963E+00 -.162E+01 -.210E+01   0.331E-04 0.235E-03 0.118E-02
 
 
 POSITION                                       TOTAL-FORCE (eV/Angst)
 -----------------------------------------------------------------------------------
      0.92282      0.37157      1.50875         0.162379      0.301713      0.055321
      2.94179     11.00370      4.32695        -0.028305      0.249452     -0.573278
      6.95658      2.59541      4.09983         0.243058     -0.296395      0.486781
      6.99478      6.87884      4.16414        -0.126448     -0.024777     -0.494541
      7.19281     10.85719      4.01559        -0.403909      0.184136     -0.000176
     11.25338      2.58117      4.14140        -0.374562     -0.134574      0.694368
     11.48427      7.01628      4.39196        -0.126358     -0.345864     -0.600225
     10.97438     10.77491      3.87630         0.651052      0.018747      0.479971
      0.94059      1.81491      7.02317        -0.002840     -0.028245      0.251374
      0.73117      6.12647      7.08582         0.114299     -0.643398     -0.027982
      0.93598     10.10357      6.90498         0.309007      0.741235      0.249735
      5.16313      1.96245      7.08776        -0.147109     -0.350305      0.002490
      4.92968      6.00361      6.86383         0.071369     -0.077977      0.312621
      5.01337     10.15582      6.88649         0.290170      0.469902      0.454154
      9.36304      1.71252      7.06189        -0.331409      0.210164      0.102075
      9.17252      5.97578      6.91615         0.440683      0.023789     -0.486828
      3.16102      6.81993      3.90466        -0.034666     -0.000289     -0.016373
      2.81456      2.92960      4.05863        -0.017779     -0.941725      0.053001
      9.27822     10.15790      6.97100        -0.428459      0.499716      0.351001
     11.19355      8.08683      9.65810        -0.710774      0.297308      0.307768
     11.41051     12.36281      9.67167        -0.455177      0.053418     -0.200583
      0.50177      4.67210      1.33242         0.079104      0.301947      0.075091
      0.84224      8.76610      1.36841         0.213606      0.475182     -0.434959
      4.96863      0.45958      1.39608        -0.258223      0.009556      0.187722
      4.91721      4.47107      1.45129        -0.157749      0.452411      0.431241
      9.14877      0.40071      1.30268        -0.098221      0.297722      0.427125
      8.96269      4.73167      1.49081         0.075324      0.078206     -0.046794
      4.94499      8.86842      1.22613        -0.120725      0.123375      0.049570
      2.91470      3.90145      9.62920        -0.158746      0.225540      0.894138
      2.84361      8.13123      9.51585         0.489032      0.126689      0.155173
      3.02617     12.43106      9.69193         0.211583     -0.399201      0.622955
      7.08414      4.21019      9.51134         0.071310     -0.304553     -0.182886
      7.12588      8.24504      9.61011        -0.157043     -0.253437     -0.311529
      7.20154     12.29787      9.58163        -0.098229     -0.401234      0.495645
     11.22140      3.84844      9.97723        -0.202585     -0.131871     -0.536826
      9.03958      8.74114      1.35854         0.078775      0.224479     -0.239121
     11.31614      0.00794      7.10289        -0.023741      0.146200      0.114836
      2.82063      4.29790      7.23698        -0.039509      0.414493     -1.103097
      3.04327      8.48592      6.98934        -0.406180     -0.397286      0.133653
      7.10195      0.09135      7.15335         0.111220      0.410592     -0.508135
      7.20963      4.37932      6.91232        -0.670197     -0.356919      0.526816
      7.10094      8.57877      7.03709         0.110393     -0.331980      0.095296
     11.26484      4.26238      7.35705        -0.083844      0.248641     -0.009581
      9.22208      0.03121      3.91114        -0.348355      0.342290     -0.257432
      0.86328      0.16119      3.98803         0.086104     -0.331687      0.290812
      0.66456      4.39352      3.88385         0.326277      0.604867      0.048024
      1.13773      8.55509      3.79768        -0.515357     -0.184770      0.762296
      4.96680      0.09035      3.92144         0.265740     -0.059535      0.169564
      4.99593      4.34671      4.17644         0.023359      0.333104     -0.835375
      5.04264      8.67350      3.76608         0.171408     -0.502980      0.426324
      3.03199      0.16707      7.28044         0.087043      0.302659     -0.946963
     11.29601      8.58103      7.16246        -0.107401     -0.580059     -0.296102
     11.21894     10.61025      1.40915        -0.085899     -0.385084     -0.130818
      2.99084      2.32461      1.53654        -0.100298     -0.228436      0.222873
     11.37040      2.19124      1.73332        -0.411519     -0.244059     -0.979572
      9.07548      4.19836      3.95819         0.018277      0.135828     -0.033472
      0.82367      2.13130      9.67604         0.147844      0.067606     -0.428256
      0.73542      6.54929      9.58888         0.690987     -0.629307     -0.127384
      0.96082     10.76594      9.52637         0.394266     -0.828309     -0.295632
      4.92985      2.36252      9.61030         0.577991     -0.126978     -0.214236
      5.02186      6.42875      9.40672         0.070593      0.072859     -0.007614
      5.16750     10.50354      9.51671        -0.354248      0.383226     -0.337013
      9.18362      2.21885      9.63194        -0.056381      0.223880     -0.199122
      9.04949      6.30224      9.34321         0.266880      0.557357      0.823393
      9.20288     10.52703      9.58209        -0.089930      0.199060     -0.566298
      3.06416      6.45466      1.42276        -0.134385     -0.499856      0.024297
      2.93980     10.55753      1.66970        -0.206300     -0.131881      0.074272
      6.99897      2.06581      1.66377         0.334878      0.300582     -0.564050
      6.88287      6.35305      1.55126         0.532066      0.029438      0.354056
      7.08666     10.55342      1.48877         0.116347      0.108732      0.067596
     10.97757      6.52687      1.67990         0.575218     -0.559597      0.247970
      9.21862      8.39964      3.85757        -0.334779      0.466467      0.470852
 -----------------------------------------------------------------------------------
    total drift:                                0.000058     -0.000228     -0.000314


--------------------------------------------------------------------------------------------------------



  FREE ENERGIE OF THE ION-ELECTRON SYSTEM (eV)
  ---------------------------------------------------
  free  energy   TOTEN  =      -300.57652984 eV

  energy  without entropy=     -300.57652984  energy(sigma->0) =     -300.57652984
 


--------------------------------------------------------------------------------------------------------


    POTLOK:  cpu time      0.7395: real time      0.7425


--------------------------------------------------------------------------------------------------------


     LOOP+:  cpu time    183.5412: real time    184.5213
    4ORBIT:  cpu time      0.0000: real time      0.0000



 total charge

# of ion       s       p       d       tot
------------------------------------------
    1        1.323   0.755   0.057   2.135
    2        1.318   0.748   0.052   2.119
    3        1.319   0.788   0.058   2.166
    4        1.332   0.718   0.048   2.098
    5        1.330   0.743   0.052   2.125
    6        1.313   0.806   0.063   2.182
    7        1.335   0.712   0.048   2.094
    8        1.313   0.804   0.061   2.178
    9        1.336   0.715   0.049   2.101
   10        1.317   0.766   0.054   2.137
   11        1.332   0.747   0.053   2.132
   12        1.331   0.728   0.048   2.108
   13        1.331   0.721   0.050   2.102
   14        1.322   0.760   0.055   2.137
   15        1.330   0.739   0.048   2.117
   16        1.307   0.815   0.063   2.185
   17        1.316   0.788   0.057   2.161
   18        1.326   0.769   0.053   2.148
   19        1.325   0.756   0.054   2.135
   20        1.326   0.776   0.061   2.163
   21        1.322   0.767   0.061   2.150
   22        1.332   0.718   0.049   2.100
   23        1.322   0.760   0.056   2.138
   24        1.322   0.762   0.057   2.141
   25        1.339   0.700   0.051   2.090
   26        1.344   0.678   0.047   2.069
   27        1.312   0.779   0.052   2.143
   28        1.330   0.740   0.058   2.128
   29        1.313   0.819   0.064   2.196
   30        1.332   0.738   0.052   2.122
   31        1.322   0.769   0.060   2.151
   32        1.340   0.697   0.048   2.085
   33        1.332   0.717   0.053   2.102
   34        1.310   0.795   0.058   2.164
   35        1.310   0.765   0.054   2.129
   36        1.332   0.737   0.056   2.125
   37        1.478   2.297   0.033   3.808
   38        1.474   2.311   0.032   3.817
   39        1.478   2.305   0.034   3.817
   40        1.477   2.299   0.031   3.806
   41        1.479   2.290   0.032   3.801
   42        1.475   2.298   0.029   3.802
   43        1.476   2.282   0.027   3.785
   44        1.476   2.311   0.032   3.819
   45        1.476   2.290   0.027   3.793
   46        1.477   2.313   0.033   3.823
   47        1.477   2.316   0.037   3.830
   48        1.474   2.293   0.027   3.794
   49        1.482   2.282   0.033   3.798
   50        1.476   2.302   0.034   3.813
   51        1.475   2.314   0.032   3.821
   52        1.474   2.331   0.039   3.843
   53        1.479   2.289   0.032   3.800
   54        1.477   2.283   0.028   3.787
   55        1.474   2.315   0.033   3.822
   56        1.476   2.298   0.028   3.802
   57        1.477   2.285   0.032   3.793
   58        1.479   2.322   0.038   3.840
   59        1.474   2.303   0.031   3.808
   60        1.479   2.297   0.032   3.808
   61        1.476   2.281   0.027   3.784
   62        1.477   2.272   0.026   3.775
   63        1.478   2.275   0.027   3.779
   64        1.475   2.309   0.033   3.817
   65        1.480   2.274   0.028   3.781
   66        1.477   2.283   0.027   3.787
   67        1.476   2.281   0.027   3.783
   68        1.473   2.316   0.031   3.820
   69        1.477   2.284   0.028   3.789
   70        1.476   2.299   0.031   3.806
   71        1.478   2.276   0.027   3.781
   72        1.476   2.301   0.033   3.810
--------------------------------------------------
tot        100.855 109.769   3.071 213.695



 magnetization (x)

# of ion       s       p       d       tot
------------------------------------------
    1       -0.000  -0.000  -0.000  -0.000
    2       -0.000   0.000   0.000   0.000
    3       -0.000   0.000  -0.000  -0.000
    4       -0.000   0.000   0.000   0.000
    5       -0.000   0.000  -0.000   0.000
    6       -0.000   0.000   0.000   0.000
    7       -0.000   0.000   0.000   0.000
    8       -0.000   0.000   0.000   0.000
    9       -0.000   0.000   0.000   0.000
   10       -0.000   0.000   0.000   0.000
   11       -0.000   0.000   0.000   0.000
   12       -0.000   0.000  -0.000   0.000
   13       -0.000   0.000   0.000   0.000
   14       -0.000   0.000  -0.000  -0.000
   15       -0.000   0.000   0.000   0.000
   16       -0.000   0.000   0.000   0.000
   17       -0.000   0.000   0.000   0.000
   18       -0.000   0.000   0.000   0.000
   19       -0.000   0.000   0.000   0.000
   20       -0.000   0.000   0.000   0.000
   21       -0.000  -0.000  -0.000  -0.000
   22       -0.000   0.000   0.000   0.000
   23       -0.000   0.000   0.000   0.000
   24        0.000  -0.000  -0.000  -0.000
   25       -0.000  -0.000  -0.000  -0.000
   26       -0.000  -0.000  -0.000  -0.000
   27       -0.000   0.000   0.000  -0.000
   28       -0.000   0.000  -0.000  -0.000
   29       -0.000   0.000  -0.000   0.000
   30       -0.000   0.000   0.000   0.000
   31       -0.000  -0.000  -0.000  -0.000
   32       -0.000  -0.000  -0.000  -0.000
   33       -0.000   0.000   0.000   0.000
   34        0.000  -0.000  -0.000  -0.000
   35       -0.000   0.000   0.000   0.000
   36       -0.000   0.000   0.000   0.000
   37       -0.000  -0.000   0.000  -0.000
   38       -0.000  -0.000   0.000  -0.000
   39       -0.000  -0.000   0.000  -0.000
   40       -0.000  -0.000  -0.000  -0.000
   41       -0.000  -0.000   0.000  -0.000
   42       -0.000  -0.000   0.000  -0.000
   43       -0.000  -0.000   0.000  -0.000
   44       -0.000  -0.000  -0.000  -0.000
   45       -0.000  -0.000  -0.000  -0.000
   46       -0.000  -0.000   0.000  -0.000
   47       -0.000  -0.000   0.000  -0.000
   48       -0.000  -0.000  -0.000  -0.000
   49       -0.000  -0.000   0.000  -0.000
   50       -0.000  -0.000   0.000  -0.000
   51       -0.000  -0.000  -0.000  -0.000
   52       -0.000  -0.000   0.000  -0.000
   53       -0.000  -0.000   0.000  -0.000
   54       -0.000  -0.000  -0.000  -0.000
   55       -0.000  -0.000  -0.000  -0.000
   56       -0.000  -0.000   0.000  -0.000
   57       -0.000  -0.000   0.000  -0.000
   58       -0.000  -0.000   0.000  -0.000
   59       -0.000  -0.000   0.000  -0.000
   60       -0.000  -0.000  -0.000  -0.000
   61       -0.000  -0.000   0.000  -0.000
   62       -0.000  -0.000  -0.000  -0.000
   63       -0.000  -0.000   0.000  -0.000
   64       -0.000  -0.000   0.000  -0.000
   65       -0.000  -0.000   0.000  -0.000
   66       -0.000  -0.000   0.000  -0.000
   67       -0.000  -0.000  -0.000  -0.000
   68       -0.000  -0.000  -0.000  -0.000
   69       -0.000  -0.000   0.000  -0.000
   70       -0.000  -0.000  -0.000  -0.000
   71       -0.000  -0.000   0.000  -0.000
   72       -0.000  -0.000   0.000  -0.000
--------------------------------------------------
tot         -0.000  -0.000   0.000  -0.000
 

 total amount of memory used by VASP MPI-rank0   110606. kBytes
=======================================================================

   base      :      30000. kBytes
   nonl-proj :      16310. kBytes
   fftplans  :       6180. kBytes
   grid      :      15593. kBytes
   one-center:        146. kBytes
   wavefun   :      42377. kBytes
 
  
  
 General timing and accounting informations for this job:
 ========================================================
  
                  Total CPU time used (sec):      195.240
                            User time (sec):      189.194
                          System time (sec):        6.047
                         Elapsed time (sec):      198.341
  
                   Maximum memory used (kb):      315748.
                   Average memory used (kb):          N/A
  
                          Minor page faults:       103175
                          Major page faults:           29
                 Voluntary context switches:        11830
