72
Lattice="12.463262444099222 5.045575423e-07 1.5329301059e-06 5.062042028e-07 12.503940011533375 5.546161626e-06 1.7517989748e-06 6.3174147744e-06 11.064298585331457" Properties=species:S:1:pos:R:3:forces:R:3:magmoms:R:1 energy=-300.92085887 stress="0.0033810813050655646 -0.0007092129140123326 -0.0006801255903084515 -0.0007092129140123326 -0.002517995286927607 1.280311404728744e-05 -0.0006801255903084515 1.280311404728744e-05 -0.006138930503859716" dipole="_JSON [[0.0, 0.0, 0.0]]" magmom=0.0015895 free_energy=-300.92085887 pbc="T T T"
Ge       1.07575268       0.63474312       1.50950857      -0.42301151       0.01488343      -0.50033619       0.00000000
Ge       3.15088455      10.98198953       4.03595407      -0.15683125       0.10353369      -0.20903509       0.00000000
Ge       7.22171081       2.61189010       4.15049912       0.23698328       0.49666779      -0.31732006       0.00000000
Ge       7.19557311       6.85694791       4.22652756       0.02822490      -0.10768415      -0.47570742       0.00000000
Ge       7.30492418      10.81026533       4.16162602       0.47835790       0.00076200      -0.27626044       0.00000000
Ge      11.24405617       2.51313077       4.21817599       0.01114279       0.77816617      -0.56336467      -0.00000000
Ge      11.54232465       6.58671218       4.22882970       0.00695504      -0.63457737      -0.39219348      -0.00000000
Ge      11.51186689      10.96847468       4.05995814      -0.14556396      -0.03535562       0.51530086       0.00000000
Ge       0.77442495       1.66118860       6.85302029      -0.12191384       0.00641062       0.28684793      -0.00000000
Ge       0.67381527       6.03247083       6.90823741      -0.37810717       0.10163654      -0.17813187      -0.00000000
Ge       0.42237115      10.56301031       7.06183649      -0.26453664      -0.08197519      -0.62176015       0.00000000
Ge       4.64116716       1.97713034       6.93329219      -0.12694393      -0.25374170      -0.10897607       0.00000000
Ge       4.68534020       6.23276930       6.86252112      -0.67537450       0.15664497       0.44465952       0.00000000
Ge       5.06441853      10.07891575       6.99043817      -0.31154179      -0.10396726       0.21937233       0.00000000
Ge       8.49470354       2.09858522       6.88108436       0.74631022      -0.06934360       0.27029796       0.00000000
Ge       8.97834409       5.98795829       6.91466176       0.33299905      -0.27621979      -0.12721604      -0.00000000
Ge       3.12236386       6.78878753       4.17863734       0.00793069      -0.50819668      -0.39939754       0.00000000
Ge       3.30028929       2.42317253       3.97614465       0.07063245       0.33679677      -0.06088517       0.00000000
Ge       9.00394652      10.18462143       6.85979665       0.13275522       0.06188585       0.24235610       0.00000000
Ge      11.09508414       8.15383634       9.56046404      -0.34155636       0.11973775      -0.36013469       0.00000000
Ge      10.75851544      12.50736812       9.78369764      -0.47117245       0.00344713      -0.58498855       0.00000000
Ge       1.29925150       4.42625145       1.42759653      -0.26524378      -0.07220408       0.07012832      -0.00000000
Ge       0.88798356       8.88413610       1.67502298       0.27357360      -0.20013456      -0.15004003      -0.00000000
Ge       5.41452001       0.34455942       1.41724080      -0.01557136       0.07444493       0.00214275       0.00000000
Ge       5.38316242       4.67579552       1.33627444      -0.33897235       0.15508752      -0.22389294       0.00000000
Ge       9.33140047       0.49707643       1.57057742       0.42620194       0.33328923      -0.10838049       0.00000000
Ge       9.19141254       4.73082784       1.18894628       0.30548632       0.17686385       0.80959653      -0.00000000
Ge       5.08657687       9.09703710       1.12859892      -0.09631516      -0.15118386       0.08161297       0.00000000
Ge       2.69018670       3.85756556       9.62408895      -0.08219651       0.51345263       0.09623618       0.00000000
Ge       2.44850679       8.32123431       9.52316937       0.38948347       0.16806684       0.17620378       0.00000000
Ge       2.90310328      12.24890187       9.63321322      -0.02485035      -0.46122795      -0.44248284       0.00000000
Ge       6.47657961       4.21398823       9.44144028       0.55148863       0.26163634       0.67725902       0.00000000
Ge       7.17246358       7.92409947       9.69426582      -0.30950312       0.41020193      -0.14786916       0.00000000
Ge       6.87484205      12.57000153       9.69730810       0.24412133      -0.40655777      -0.46870281       0.00000000
Ge      11.11834669       3.84250529       9.55285232       0.02398936      -0.09076729       0.36700686      -0.00000000
Ge       9.58314864       8.76504644       1.40657508       0.05849340      -0.34464051      -0.09026857       0.00000000
Se      11.11040926       0.10509992       7.15110298       0.57142108      -0.20866095       0.38792078      -0.00000000
Se       2.58887847       4.41705759       7.10356261       0.82335182      -0.07829688       0.01738382      -0.00000000
Se       2.90625289       8.42664732       7.03397470       0.77161972      -0.01693108      -0.02100059      -0.00000000
Se       6.67644784       0.39699259       7.09387574       0.03584723      -0.49741389       0.24652381      -0.00000000
Se       7.00392039       4.16717471       6.98813916      -0.11101822       0.58259951      -0.24038253      -0.00000000
Se       7.11109331       8.36443692       6.98832979      -0.19380769       0.01672548       0.37282345      -0.00000000
Se      11.21769005       4.26361829       7.10191556      -0.25678409       0.13607386      -0.39809556      -0.00000000
Se       9.53474922       0.20028016       4.07321684      -0.78120788      -0.45608450      -0.07486742      -0.00000000
Se       0.98487453       0.19240152       3.98467374       0.21939825      -0.02036784       0.29373809      -0.00000000
Se       0.74466701       4.32832548       3.96275945      -0.02800835       0.22292406       0.00470726      -0.00000000
Se       0.97904157       8.28185421       4.21841911       0.20155246       0.78100093      -0.58768903      -0.00000000
Se       4.97707470       0.35044662       3.94016664       0.01658149      -0.25091812       0.00494607      -0.00000000
Se       5.23351767       4.30780230       3.79290765      -0.11648417      -0.38652936       0.53028723      -0.00000000
Se       5.07026652       8.33971552       3.68556346       0.01178352       0.77646100       0.21538776      -0.00000000
Se       2.89963714      -0.06882227       6.94905727      -0.05208636       0.43227410       0.63897594      -0.00000000
Se      11.06873418       8.53766736       6.95850556      -0.25346052       0.32145896       0.53999703      -0.00000000
Se      11.40275876      10.66274437       1.60583616       0.12664375      -0.39769149      -0.38947065      -0.00000000
Se       3.02172946       2.32809156       1.43594568      -0.18474068       0.08999405       0.31068288      -0.00000000
Se      11.40224581       2.32653531       1.60425235      -0.44134293      -0.47468166       0.30187998      -0.00000000
Se       9.06877073       4.49667562       3.95792261       0.33296674      -0.80967649      -0.43032975      -0.00000000
Se       0.79903330       2.18833374       9.47435915      -0.14703562      -0.41482090      -0.30774423      -0.00000000
Se       0.60761582       6.57665305       9.37575844      -0.02307901      -0.47951014       0.37159069      -0.00000000
Se       0.83301698      10.37060978       9.48310976       0.23081872       0.49059851       0.60635622      -0.00000000
Se       4.80203620       2.30808883       9.45344271      -0.50708486      -0.20888347      -0.08135363      -0.00000000
Se       5.07331864       6.41894381       9.47357857      -0.25282653      -0.34164630      -0.42635340      -0.00000000
Se       5.16383276      10.64333400       9.58158585      -0.75943136      -0.04366107      -0.48599503      -0.00000000
Se       9.11251024       2.13558001       9.54336865       0.26997957      -0.00917822      -0.31082469      -0.00000000
Se       9.08210122       6.29007286       9.43527552       0.46859579      -0.13987800       0.19015562      -0.00000000
Se       8.76720045      10.67741842       9.41804713       0.48346612       0.39557856      -0.05631264      -0.00000000
Se       3.08469809       6.20276705       1.61617500       0.32466912       0.33328123       0.20274523      -0.00000000
Se       2.99998793      10.72078024       1.42165180      -0.14204895      -0.27459016       0.43255639      -0.00000000
Se       7.30626892       2.17241316       1.60815841       0.01093973       0.00184781       0.19318928      -0.00000000
Se       7.26628172       6.43515263       1.55133837      -0.25791525       0.09199565       0.02328645      -0.00000000
Se       7.05330257      10.78236463       1.57318250      -0.01264486      -0.04189817       0.27994274      -0.00000000
Se      11.20477645       6.52089574       1.62869826      -0.24104372       0.31176030      -0.03131409      -0.00000000
Se       8.98995931       8.70464987       3.88597425       0.08649239       0.09090605       0.22497963      -0.00000000
72
Lattice="12.460996577758499 5.044658119e-07 1.5326514137e-06 5.060015747e-07 12.498934819418311 5.5439415574e-06 1.7508267535e-06 6.3139087069e-06 11.058158070735919" Properties=species:S:1:pos:R:3:forces:R:3:magmoms:R:1 energy=-301.01494543 stress="-0.002235959159241278 -0.0010776029543721076 0.002215800701315539 -0.0010776029543721076 -0.005728741420166903 0.0008185756195500716 0.002215800701315539 0.0008185756195500716 -0.01396227119381519" dipole="_JSON [[0.0, 0.0, 0.0]]" magmom=0.0014638 free_energy=-301.01494543 pbc="T T T"
Ge       0.71354530       0.54771758       1.41645154       0.32131146       0.30405418      -0.01713227      -0.00000000
Ge       3.13915526      10.86801458       3.87551032      -0.19719796       0.28281975       0.74729674       0.00000000
Ge       7.38505676       2.48787914       4.11625897       0.09445653       0.29217477      -0.62788978       0.00000000
Ge       7.32566514       7.08171289       3.93775921      -0.30904190      -0.57800825       0.49990158       0.00000000
Ge       7.50168176      10.83128500       4.29047671       0.03264424      -0.23089282      -0.42145930       0.00000000
Ge      11.30346020       2.60322845       4.07934652       0.29222521       0.11771758       0.04408961       0.00000000
Ge      11.57511862       6.48793284       3.97744554      -0.05066471       0.53857474       0.77918425       0.00000000
Ge      11.49223357      10.89808286       3.97285239       0.04048665      -0.07505766       0.01466706       0.00000000
Ge       0.75385294       1.77072600       6.87128811       0.09086583      -0.18090348       0.22123276      -0.00000000
Ge       0.50931446       5.95061922       6.97305051       0.26014368       0.15454666      -0.07307201       0.00000000
Ge       0.40220643      10.37698947       6.96113219       0.32952910       0.41889601       0.14098034       0.00000000
Ge       4.71393853       1.99053319       6.98302080      -0.25437364      -0.04417221       0.06126090       0.00000000
Ge       4.43265429       6.20709216       6.84816236       0.38002359      -0.11532446       0.37249352       0.00000000
Ge       5.11277631      10.19915228       6.93160562      -0.49840723      -0.21892995      -0.12276834       0.00000000
Ge       8.71996373       2.12036174       6.87887302      -0.13704674       0.05035177      -0.17232519       0.00000000
Ge       9.07853656       5.96029282       6.86721857       0.01300815       0.02559618       0.21449636       0.00000000
Ge       3.12046189       6.73588726       3.94083552      -0.08512868       0.25695748       0.66562478      -0.00000000
Ge       3.28336908       2.53641147       4.09390822      -0.13109350      -0.48383981       0.09676636      -0.00000000
Ge       8.76996860      10.15843578       7.08025604       0.64051640       0.10726954      -0.28843586       0.00000000
Ge      10.97388738       8.21709528       9.69833138       0.07921335      -0.52869053      -0.34430119       0.00000000
Ge      10.70272837      12.50775275       9.81801008       0.67184056       0.53207615      -0.11623861      -0.00000000
Ge       1.20928377       4.57816063       1.44777855      -0.08639928      -0.33983977       0.12413494      -0.00000000
Ge       0.94062373       8.75333446       1.44241555      -0.15876338      -0.07508712      -0.42266301       0.00000000
Ge       5.55892178       0.30389012       1.36616340      -0.24794735       0.16777510      -0.14377303      -0.00000000
Ge       5.13804307       4.50517779       1.42204680       0.27431739       0.24419413       0.04922210      -0.00000000
Ge       9.33005277       0.56570237       1.51703903      -0.06078484      -0.19029008      -0.25310072       0.00000000
Ge       9.34197309       4.80791814       1.28410203      -0.46207914      -0.19139091      -0.23973192       0.00000000
Ge       4.89018547       8.82795766       1.32099776       0.36863837       0.20137584      -0.10594043       0.00000000
Ge       2.59367109       4.17894274       9.66968355       0.07959339      -0.46755308      -0.66875025      -0.00000000
Ge       2.41012895       8.31823580       9.78095246       0.08038239      -0.12481903       0.11517987       0.00000000
Ge       3.02272154      12.30578683       9.66135149      -0.22943770       0.43073867      -0.21445627      -0.00000000
Ge       6.81786965       4.08322663       9.52199864      -0.53916058       0.19813260       0.24150189       0.00000000
Ge       6.92999480       8.03352256       9.57364055      -0.02001870      -0.59408565       1.30147459       0.00000000
Ge       7.02599726      12.29081631       9.57634078      -0.55559210       0.53404019       0.52558575       0.00000000
Ge      11.20494247       3.76696652       9.51559962       0.01497673       0.41426255       0.07056342      -0.00000000
Ge       9.46478204       8.91238586       1.35572970      -0.07838504      -0.17162636       0.35993189       0.00000000
Se      11.34841901      -0.00706413       7.31899873      -0.07585924      -0.11675762      -0.36503690      -0.00000000
Se       2.71664969       4.27305579       6.99793048      -0.44906487       0.57877426       0.58011659      -0.00000000
Se       3.20020302       8.38412352       7.37407205      -0.44821186       0.09147471      -0.59902224      -0.00000000
Se       6.80396933       0.31660395       7.13591760       0.23159502      -0.00525825      -0.32478025      -0.00000000
Se       7.07636909       4.30605370       7.03391447       0.32182161      -0.35680869      -0.27654900      -0.00000000
Se       6.97097657       8.34875502       7.19562468       0.17977595       0.18065261      -1.12187931      -0.00000000
Se      11.05226102       4.20248238       6.95808777       0.22453322       0.09423290       0.18186264      -0.00000000
Se       9.30823775       0.15019964       4.01993895       0.20400975      -0.03043552       0.09102541      -0.00000000
Se       0.95774349       0.08256584       3.91609038      -0.03534021       0.04695006       0.00217482      -0.00000000
Se       0.73728071       4.51977112       4.01012221       0.22508006      -0.23243534      -0.36686970      -0.00000000
Se       0.98965235       8.61089975       3.88522005      -0.00712742      -0.84462121       0.63020851      -0.00000000
Se       4.86599809       0.39261459       3.84568979       0.10518383      -0.22333696      -0.03331760      -0.00000000
Se       5.23884422       4.11633670       3.92049812       0.12768248       0.50337928       0.09478676      -0.00000000
Se       5.04932780       8.52950531       3.84187344      -0.07761868      -0.04148342       0.18409800      -0.00000000
Se       2.83436495       0.14915367       7.07908312       0.25752325       0.15602788       0.09618638      -0.00000000
Se      11.05278036       8.61767394       7.15847804      -0.52966490      -0.14654911       0.18639127      -0.00000000
Se      11.46409941      10.58039739       1.39614625      -0.10104963      -0.02590904       0.23819969      -0.00000000
Se       2.71852813       2.42658305       1.62344103      -0.08301771       0.08508502      -0.32633713      -0.00000000
Se      11.22092303       2.32718661       1.53003587       0.28746244      -0.24909615      -0.02903677      -0.00000000
Se       9.44224298       4.30519548       3.78729636      -0.90256640       0.00631171       0.61039821      -0.00000000
Se       0.78381208       2.20982929       9.42429477       0.21543193       0.14368973       0.00623574      -0.00000000
Se       0.56243485       6.34948646       9.51847250      -0.06566014       0.56316189      -0.12801260      -0.00000000
Se       1.12647238      10.56697105       9.48426091      -0.56623667      -0.47793817      -0.22798314      -0.00000000
Se       4.64775407       2.47829925       9.47602821       0.40182939      -0.20634286       0.09377265      -0.00000000
Se       5.08723201       6.10233938       9.49360925       0.28589766       0.29522122      -0.38396918      -0.00000000
Se       4.97009460      10.69749836       9.40272394       0.55573560      -0.42612885       0.29410721      -0.00000000
Se       9.22157677       2.14529342       9.34962008      -0.19079048      -0.29278122       0.36995262      -0.00000000
Se       9.10712350       6.36870755       9.48875819      -0.08649562       0.32130976      -0.27749400      -0.00000000
Se       9.02406659      10.69950486       9.58008505      -0.47974817      -0.80939194      -0.11246511      -0.00000000
Se       3.13608017       6.35212700       1.51276388       0.09529373      -0.13910692      -0.32312599      -0.00000000
Se       2.83885525      10.44919720       1.45909622       0.48675325       0.44832171      -0.60109367      -0.00000000
Se       7.33267893       2.22971000       1.48332205      -0.09441984      -0.13625165       0.48087163      -0.00000000
Se       7.16890658       6.31774066       1.55573861      -0.14490695       0.06599089      -0.33310345      -0.00000000
Se       6.96202352      10.66990281       1.69062820       0.09216978      -0.08559216       0.17023427      -0.00000000
Se      10.99763216       6.67646251       1.58011337       0.49884219       0.18810048      -0.58387204      -0.00000000
Se       9.27306123       8.72607537       3.97039189      -0.42149292       0.41649826      -0.31022485      -0.00000000
72
Lattice="12.460387742178604 5.04441164e-07 1.5325765294e-06 5.065075425e-07 12.511432919518656 5.5494851287e-06 1.7538106491e-06 6.324669363e-06 11.077004246939065" Properties=species:S:1:pos:R:3:forces:R:3:magmoms:R:1 energy=-300.76846051 stress="0.0006070927932491773 -0.0013797304500025819 0.00035890128000549596 -0.0013797304500025819 -0.0012633708754215271 0.0005564707900648454 0.00035890128000549596 0.0005564707900648454 -0.009067752163769434" dipole="_JSON [[0.0, 0.0, 0.0]]" magmom=0.0016966 free_energy=-300.76846051 pbc="T T T"
Ge       0.89772178       0.43349579       1.33044682      -0.16489850       0.65275150       0.26808904       0.00000000
Ge       2.79402145      11.22274631       4.37440042       0.39745790      -0.14138111      -0.23259221       0.00000000
Ge       7.39325703       2.43547112       4.00541330       0.10776810       0.30290021       0.10792545       0.00000000
Ge       7.06798262       7.00162611       4.09720275       0.11543224      -0.81053586      -0.14030014       0.00000000
Ge       7.48592810      10.50506588       3.80253599       0.21687269       0.53879122       0.45969403       0.00000000
Ge      11.39969068       2.68266731       4.06664364      -0.54943470       0.04160922       0.41926256       0.00000000
Ge      11.83302375       6.60056860       4.00561704      -0.52530917       0.00867075      -0.01280909       0.00000000
Ge      11.34621511      10.89560097       4.12695203      -0.08798683       0.19631516      -0.53291882       0.00000000
Ge       0.69587775       2.02769722       6.88159646       0.53938788      -0.41016174       0.53247168       0.00000000
Ge       0.67739379       6.02201750       7.01040547       0.11799992       0.13603767       0.29104782       0.00000000
Ge       0.28374046      10.38914122       6.87655044       0.34029405       0.17916271       0.41515831       0.00000000
Ge       4.87355864       1.92890150       6.94414714      -0.35800206      -0.16458478      -0.08283512      -0.00000000
Ge       4.63273769       6.35598694       7.09237511       0.01000597      -0.28053237      -0.63621594       0.00000000
Ge       5.01868649      10.25441984       6.83337688      -0.45404947      -0.17547772      -0.20531052       0.00000000
Ge       8.85663450       2.22881223       7.05235870      -0.00944660      -0.32227113      -0.42254334       0.00000000
Ge       9.15098840       6.01179339       6.96470577      -0.11207098      -0.36223004       0.10911429       0.00000000
Ge       3.21334092       6.80168660       3.86235653      -0.51957126      -0.20291689       0.29679889       0.00000000
Ge       3.25700862       2.44496636       4.17114443       0.14136469      -0.34392571       0.06888611      -0.00000000
Ge       8.89758097      10.29390357       7.08149946      -0.02384805      -0.26676332      -0.90597703       0.00000000
Ge      10.93855619       8.25809005       9.71976932       0.15740574      -0.35562761      -0.23961513       0.00000000
Ge      10.81111164      12.61457763       9.53347093       0.51128336      -0.13049149       0.21727310       0.00000000
Ge       1.20690451       4.56916280       1.44843468       0.01372615      -0.24670076      -0.01510015      -0.00000000
Ge       1.21286064       8.81037461       1.31154170      -0.30293195       0.12451203      -0.07753713       0.00000000
Ge       5.50592531       0.35293735       1.34439108      -0.46332071      -0.19089715       0.12923262      -0.00000000
Ge       5.05071535       4.45529183       1.48157156       0.39052155       0.47051176      -0.19454962      -0.00000000
Ge       9.37118129       0.36477413       1.32806566       0.09840817       0.32505183       0.35404956       0.00000000
Ge       9.12082084       4.74581634       1.39707495       0.08333282       0.12115516       0.30187294      -0.00000000
Ge       4.89078572       8.87325555       1.55513851       0.46085187       0.05503002      -0.72552952       0.00000000
Ge       2.80293988       4.09532320       9.63744203      -0.19732833      -0.28906024      -0.69165481      -0.00000000
Ge       2.35670954       8.36232869       9.57579921       0.66763957      -0.09365068       0.19560593       0.00000000
Ge       2.68223990      12.19873567       9.84159652       0.64895170       0.40312069      -0.45776374      -0.00000000
Ge       6.70573976       4.07295308       9.75006211       0.10458369       0.57581448      -0.47939939      -0.00000000
Ge       7.05946881       8.15759476       9.64646588      -0.49452494      -0.02146691      -0.22362628       0.00000000
Ge       6.77715527      12.14942340       9.50860704      -0.12461007       0.68211047       0.20828164       0.00000000
Ge      11.13374067       3.86840057       9.77677199       0.48004158      -0.01171789       0.00029465      -0.00000000
Ge       9.60017626       8.69740913       1.47022971       0.05988483      -0.27165646      -0.13930906       0.00000000
Se      11.34644681       0.07651502       7.06426136      -0.21852905      -0.02323325      -0.23292403      -0.00000000
Se       2.68567053       4.33356015       6.96535844       0.18005488       0.43433810       0.86754513      -0.00000000
Se       3.00228947       8.31588969       7.08986568      -0.17845699       0.30859223      -0.14649990      -0.00000000
Se       6.92816733       0.30686723       7.03193270       0.10214551      -0.14152758       0.03811109      -0.00000000
Se       7.23231858       4.17132521       7.11420820      -0.00852885       0.40714314       0.39546582      -0.00000000
Se       6.87122583       8.40634000       6.99963686       0.70684993       0.38503157       0.36591980      -0.00000000
Se      11.27843169       4.22446061       7.21461250      -0.46401185       0.25985567      -0.06318932      -0.00000000
Se       9.35270884       0.19610093       3.85925787      -0.26172437      -0.79286395       0.07484636      -0.00000000
Se       0.72716210       0.19533825       3.89983154       0.19943568       0.09768702       0.00280829      -0.00000000
Se       0.85371531       4.43593073       3.98026850       0.23965784       0.28039461      -0.20606897      -0.00000000
Se       1.01274410       8.58606107       3.79047752       0.32431114      -0.56702346       0.34587624      -0.00000000
Se       4.85348446       0.28228660       3.92994115      -0.04438715       0.00497361      -0.05562585      -0.00000000
Se       5.19918357       4.10534115       3.93448525      -0.02509335       0.43063093       0.21155642      -0.00000000
Se       5.00416505       8.62136603       4.01094702       0.12378355       0.27271981       0.23105454      -0.00000000
Se       2.89401977       0.20843602       7.22672468      -0.17885003       0.32578584      -0.10991435      -0.00000000
Se      10.98623583       8.55332953       7.14098719      -0.14423519       0.20546357       0.17857721      -0.00000000
Se      11.40350568      10.59526796       1.51071527      -0.06181898      -0.32206027       0.44565890      -0.00000000
Se       2.79543411       2.28175511       1.68169323      -0.12582440       0.22262189      -0.46233203      -0.00000000
Se      11.12421585       2.35945082       1.63233448       0.54329265      -0.49960332      -0.85412533      -0.00000000
Se       9.25489338       4.37744443       3.97564634      -0.24948879      -0.27715293      -0.10033201      -0.00000000
Se       0.86409815       2.20647182       9.53549386      -0.19000796       0.29959571      -0.23695807      -0.00000000
Se       0.63975377       6.48385477       9.62623421      -0.39155125       0.09129874      -0.64290142      -0.00000000
Se       0.92078305      10.49114401       9.57820639      -0.82421409      -0.24693465      -0.74200459      -0.00000000
Se       4.84328855       2.42320937       9.43665964      -0.29713981      -0.32201592       0.24747349      -0.00000000
Se       5.16686196       6.31181715       9.49734133       0.00147660      -0.20079596       0.58221886      -0.00000000
Se       4.82140384      10.56232985       9.29139251       0.20622862      -0.22881224       0.61837290      -0.00000000
Se       9.26014233       2.11820315       9.53399683      -0.34561596       0.11507719       0.16423911      -0.00000000
Se       8.98607051       6.51253958       9.52443274       0.59578809      -0.27551464      -0.18744748      -0.00000000
Se       9.00701278      10.75779408       9.47535953      -0.18094926      -0.47955341       0.51331100      -0.00000000
Se       3.11907926       6.47874450       1.33902406       0.00928181      -0.36946696       0.25966060      -0.00000000
Se       3.00823176      10.58466558       1.66513218      -0.24623088       0.39997193       0.10552086      -0.00000000
Se       7.25680019       2.18327990       1.48348013       0.21452373      -0.06032698      -0.01038592      -0.00000000
Se       7.03589730       6.40986062       1.53632271      -0.17303615      -0.15042939       0.21591288      -0.00000000
Se       7.06453727      10.70377754       1.35341126      -0.08344130      -0.27477487       0.14116462      -0.00000000
Se      11.14483156       6.41847131       1.47145198       0.10072245       0.30531598       0.20870508      -0.00000000
Se       9.21897476       8.41732791       3.97479733      -0.13029770       0.66409722      -0.12276152      -0.00000000
72
Lattice="12.460631171054512 5.044510189e-07 1.5326064701e-06 5.065880563e-07 12.51342171975036 5.5503672672e-06 1.7546966554e-06 6.327864518e-06 11.08260023054945" Properties=species:S:1:pos:R:3:forces:R:3:magmoms:R:1 energy=-301.03825678 stress="-0.0010216939498110045 0.00033082162922546125 0.0009481087230205076 0.00033082162922546125 -0.006179521215992019 0.0001084547282391602 0.0009481087230205076 0.0001084547282391602 -0.011267682423792863" dipole="_JSON [[0.0, 0.0, 0.0]]" magmom=0.0016491 free_energy=-301.03825678 pbc="T T T"
Ge       0.64947610       0.70670408       1.38600041       1.60225509      -1.08720708       0.15028135       0.00000000
Ge       2.90947952      11.18446815       4.13507671      -0.34592282      -0.19290938       0.39356920       0.00000000
Ge       7.49570759       2.45561445       4.02332401      -0.65286140      -0.19740873       0.02697590       0.00000000
Ge       7.20563464       6.61406642       4.18152392      -0.12242243       0.68431158       0.18196556       0.00000000
Ge       7.60052105      10.76642937       4.04774474      -1.03771981      -0.53020646      -0.02265737      -0.00000000
Ge      11.25735544       2.66311653       4.07878276       0.41570525       0.14532136      -0.22676383       0.00000000
Ge      11.60797199       6.67219729       4.02134732       0.07536665       0.04923249       0.44179228       0.00000000
Ge      11.26169622      10.85966933       3.85378441       0.63281350      -0.34484207       0.56799847       0.00000000
Ge       0.93671325       1.85674706       7.03402948      -0.77370061       0.24275139      -0.66670064       0.00000000
Ge       0.59393146       6.15305559       6.99608450      -0.17803845      -0.03788688      -0.43305287       0.00000000
Ge       0.34519260      10.54365534       6.89263844       0.12403917      -0.21127292      -0.39938304       0.00000000
Ge       4.84020084       2.03063431       7.01950845       0.50776009       0.02544632       0.15905697       0.00000000