 vasp.6.4.1 05Apr23 (build May 18 2023 13:19:41) complex                         
 executed on    LinuxNV_CrayMPICH date 2023.11.09  00:37:48
 running  256 mpi-ranks, with    1 threads/rank, on   14 nodes
 distrk:  each k-point on   32 cores,    8 groups
 distr:  one band on NCORE=   2 cores,   16 groups


--------------------------------------------------------------------------------------------------------


 INCAR:
   SIGMA = 0.010000
   EDIFF = 1.00e-06
   ALGO = N
   GGA = PE
   PREC = Accurate
   SYSTEM = 03_BS
   ICHARG = 11
   ISMEAR = 0
   ISPIN = 1
   ISTART = 1
   KPAR = 8
   LORBIT = 11
   NBANDS = 896
   NELMIN = 5
   NPAR = 16
   IVDW = 11
   LCHARG = .TRUE.
   LWAVE = .TRUE.
   LREAL = .FALSE.

 POTCAR:   PAW_PBE C 08Apr2002                    
 POTCAR:   PAW_PBE C 08Apr2002                    
   VRHFIN =C: s2p2                                                                                  
   LEXCH  = PE                                                                                      
   EATOM  =   147.1560 eV,   10.8157 Ry                                                             
                                                                                                    
   TITEL  = PAW_PBE C 08Apr2002                                                                     
   LULTRA =        F    use ultrasoft PP ?                                                          
   IUNSCR =        0    unscreen: 0-lin 1-nonlin 2-no                                               
   RPACOR =     .000    partial core radius                                                         
   POMASS =   12.011; ZVAL   =    4.000    mass and valenz                                          
   RCORE  =    1.500    outmost cutoff radius                                                       
   RWIGS  =    1.630; RWIGS  =     .863    wigner-seitz radius (au A)                               
   ENMAX  =  400.000; ENMIN  =  300.000 eV                                                          
   ICORE  =        2    local potential                                                             
   LCOR   =        T    correct aug charges                                                         
   LPAW   =        T    paw PP                                                                      
   EAUG   =  644.873                                                                                
   DEXC   =     .000                                                                                
   RMAX   =    2.266    core radius for proj-oper                                                   
   RAUG   =    1.300    factor for augmentation sphere                                              
   RDEP   =    1.501    radius for radial grids                                                     
   RDEPT  =    1.300    core radius for aug-charge                                                  
   QCUT   =   -5.516; QGAM   =   11.032    optimization parameters                                  
                                                                                                    
   Description                                                                                      
     l     E      TYP  RCUT    TYP  RCUT                                                            
     0   .000     23  1.200                                                                         
     0   .000     23  1.200                                                                         
     1   .000     23  1.500                                                                         
     1  2.500     23  1.500                                                                         
     2   .000      7  1.500                                                                         
  local pseudopotential read in
  atomic valenz-charges read in
  non local Contribution for L=            0  read in
    real space projection operators read in
  non local Contribution for L=            0  read in
    real space projection operators read in
  non local Contribution for L=            1  read in
    real space projection operators read in
  non local Contribution for L=            1  read in
    real space projection operators read in
    PAW grid and wavefunctions read in
 
   number of l-projection  operators is LMAX  =            4
   number of lm-projection operators is LMMAX =            8
 
 -----------------------------------------------------------------------------
|                                                                             |
|               ----> ADVICE to this user running VASP <----                  |
|                                                                             |
|     You have a (more or less) 'large supercell' and for larger cells it     |
|     might be more efficient to use real-space projection operators.         |
|     Therefore, try LREAL= Auto in the INCAR file.                           |
|     Mind: If you want to do very accurate calculations, keep the            |
|     reciprocal projection scheme (i.e. LREAL=.FALSE.).                      |
|                                                                             |
 -----------------------------------------------------------------------------

 PAW_PBE C 08Apr2002                    :
 energy of atom  1       EATOM= -147.1560
 kinetic energy error for atom=    0.0288 (will be added to EATOM!!)
 
 
 POSCAR:  C
  positions in cartesian coordinates
  No initial velocities read in
 exchange correlation table for  LEXCH =        8
   RHO(1)=    0.500       N(1)  =     2000
   RHO(2)=  100.500       N(2)  =     4000
 


--------------------------------------------------------------------------------------------------------


 ion  position               nearest neighbor table
   1  0.371  0.538  0.002-  85 1.42 363 1.42 288 1.43
   2  0.369  0.544  0.063- 108 1.42  85 1.42   3 1.43
   3  0.338  0.595  0.061-   4 1.42   8 1.42   2 1.43
   4  0.321  0.611  0.030-   3 1.42 288 1.42   5 1.43
   5  0.278  0.629  0.028- 310 1.42  10 1.42   4 1.43
   6  0.367  0.549  0.123- 131 1.42 108 1.42   7 1.43
   7  0.335  0.599  0.121-   8 1.42  16 1.42   6 1.43
   8  0.317  0.614  0.090-   7 1.42   3 1.42   9 1.43
   9  0.274  0.629  0.089-  10 1.42  18 1.42   8 1.43
  10  0.254  0.627  0.057-   9 1.42   5 1.42  11 1.43
  11  0.212  0.603  0.056-  12 1.42  20 1.42  10 1.43
  12  0.196  0.584  0.024-  11 1.42 311 1.42  13 1.43
  13  0.168  0.528  0.023- 329 1.42  22 1.42  12 1.43
  14  0.364  0.555  0.184- 154 1.42 131 1.42  15 1.43
  15  0.331  0.602  0.182-  16 1.42  28 1.42  14 1.43
  16  0.313  0.617  0.151-  15 1.42   7 1.42  17 1.43
  17  0.270  0.629  0.149-  18 1.42  30 1.42  16 1.43
  18  0.250  0.626  0.118-  17 1.42   9 1.42  19 1.43
  19  0.209  0.600  0.116-  20 1.42  32 1.42  18 1.43
  20  0.193  0.580  0.085-  19 1.42  11 1.42  21 1.43
  21  0.166  0.522  0.083-  22 1.42  34 1.42  20 1.43
  22  0.159  0.492  0.052-  21 1.42  13 1.42  23 1.43
  23  0.155  0.420  0.050-  24 1.42  36 1.42  22 1.43
  24  0.159  0.388  0.019-  23 1.42 330 1.42  25 1.43
  25  0.178  0.324  0.017- 344 1.42  38 1.42  24 1.43
  26  0.362  0.560  0.244- 177 1.42 154 1.42  27 1.43
  27  0.328  0.605  0.242-  28 1.42  45 1.42  26 1.43
  28  0.309  0.619  0.211-  27 1.42  15 1.42  29 1.43
  29  0.266  0.629  0.209-  30 1.42  47 1.42  28 1.43
  30  0.246  0.624  0.178-  29 1.42  17 1.42  31 1.43
  31  0.205  0.596  0.176-  32 1.42  49 1.42  30 1.43
  32  0.190  0.575  0.145-  31 1.42  19 1.42  33 1.43
  33  0.164  0.516  0.143-  34 1.42  51 1.42  32 1.43
  34  0.158  0.485  0.112-  33 1.42  21 1.42  35 1.43
  35  0.155  0.414  0.110-  36 1.42  53 1.42  34 1.43
  36  0.160  0.382  0.079-  35 1.42  23 1.42  37 1.43
  37  0.181  0.319  0.078-  38 1.42  55 1.42  36 1.43
  38  0.195  0.295  0.046-  37 1.42  25 1.42  39 1.43
  39  0.233  0.260  0.045-  40 1.42  57 1.42  38 1.43
  40  0.253  0.252  0.013-  39 1.42 345 1.42  41 1.43
  41  0.297  0.254  0.012- 355 1.42  59 1.42  40 1.43
  42  0.371  0.538  0.336-  43 1.42  64 1.42 199 1.43
  43  0.359  0.565  0.305-  42 1.42 177 1.42  44 1.43
  44  0.324  0.608  0.303-  45 1.42  66 1.42  43 1.43
  45  0.305  0.621  0.272-  44 1.42  27 1.42  46 1.43
  46  0.262  0.628  0.270-  47 1.42  68 1.42  45 1.43
  47  0.242  0.623  0.239-  46 1.42  29 1.42  48 1.43
  48  0.202  0.592  0.237-  49 1.42  70 1.42  47 1.43
  49  0.187  0.570  0.206-  48 1.42  31 1.42  50 1.43
  50  0.163  0.510  0.204-  51 1.42  72 1.42  49 1.43
  51  0.157  0.479  0.173-  50 1.42  33 1.42  52 1.43
  52  0.156  0.407  0.171-  53 1.42  74 1.42  51 1.43
  53  0.161  0.375  0.140-  52 1.42  35 1.42  54 1.43
  54  0.183  0.314  0.138-  55 1.42  76 1.42  53 1.43
  55  0.198  0.291  0.107-  54 1.42  37 1.42  56 1.43
  56  0.237  0.258  0.105-  57 1.42  78 1.42  55 1.43
  57  0.257  0.251  0.074-  56 1.42  39 1.42  58 1.43
  58  0.301  0.255  0.072-  59 1.42  80 1.42  57 1.43
  59  0.320  0.266  0.041-  58 1.42  41 1.42  60 1.43
  60  0.356  0.308  0.039-  61 1.42  82 1.42  59 1.43
  61  0.368  0.334  0.008-  60 1.42 356 1.42  62 1.43
  62  0.386  0.399  0.006- 362 1.42  84 1.42  61 1.43
  63  0.369  0.544  0.396-  64 1.42  87 1.42 221 1.43
  64  0.356  0.569  0.365-  63 1.42  42 1.42  65 1.43
  65  0.321  0.611  0.363-  66 1.42  89 1.42  64 1.43
  66  0.302  0.623  0.332-  65 1.42  44 1.42  67 1.43
  67  0.258  0.628  0.330-  68 1.42  91 1.42  66 1.43
  68  0.238  0.621  0.299-  67 1.42  46 1.42  69 1.43
  69  0.199  0.588  0.297-  70 1.42  93 1.42  68 1.43
  70  0.184  0.566  0.266-  69 1.42  48 1.42  71 1.43
  71  0.161  0.504  0.264-  72 1.42  95 1.42  70 1.43
  72  0.156  0.472  0.233-  71 1.42  50 1.42  73 1.43
  73  0.157  0.401  0.231-  74 1.42  97 1.42  72 1.43
  74  0.163  0.369  0.200-  73 1.42  52 1.42  75 1.43
  75  0.186  0.309  0.198-  76 1.42  99 1.42  74 1.43
  76  0.201  0.287  0.167-  75 1.42  54 1.42  77 1.43
  77  0.241  0.256  0.165-  78 1.42 101 1.42  76 1.43
  78  0.261  0.250  0.134-  77 1.42  56 1.42  79 1.43
  79  0.305  0.257  0.132-  80 1.42 103 1.42  78 1.43
  80  0.324  0.269  0.101-  79 1.42  58 1.42  81 1.43
  81  0.358  0.313  0.099-  82 1.42 105 1.42  80 1.43
  82  0.371  0.339  0.068-  81 1.42  60 1.42  83 1.43
  83  0.386  0.406  0.067-  84 1.42 107 1.42  82 1.43
  84  0.388  0.439  0.035-  83 1.42  62 1.42  85 1.43
  85  0.380  0.509  0.034-   1 1.42   2 1.42  84 1.43
  86  0.367  0.549  0.457-  87 1.42 110 1.42 243 1.43
  87  0.353  0.574  0.425-  86 1.42  63 1.42  88 1.43
  88  0.317  0.614  0.424-  89 1.42 112 1.42  87 1.43
  89  0.298  0.624  0.392-  88 1.42  65 1.42  90 1.43
  90  0.254  0.627  0.391-  91 1.42 114 1.42  89 1.43
  91  0.234  0.619  0.360-  90 1.42  67 1.42  92 1.43
  92  0.196  0.584  0.358-  93 1.42 116 1.42  91 1.43
  93  0.181  0.561  0.327-  92 1.42  69 1.42  94 1.43
  94  0.160  0.498  0.325-  95 1.42 118 1.42  93 1.43
  95  0.156  0.466  0.294-  94 1.42  71 1.42  96 1.43
  96  0.158  0.394  0.292-  97 1.42 120 1.42  95 1.43
  97  0.164  0.363  0.261-  96 1.42  73 1.42  98 1.43
  98  0.189  0.304  0.259-  99 1.42 122 1.42  97 1.43
  99  0.205  0.283  0.228-  98 1.42  75 1.42 100 1.43
 100  0.245  0.254  0.226- 101 1.42 124 1.42  99 1.43
 101  0.265  0.250  0.195- 100 1.42  77 1.42 102 1.43
 102  0.308  0.259  0.193- 103 1.42 126 1.42 101 1.43
 103  0.327  0.272  0.162- 102 1.42  79 1.42 104 1.43
 104  0.361  0.318  0.160- 105 1.42 128 1.42 103 1.43
 105  0.373  0.345  0.129- 104 1.42  81 1.42 106 1.43
 106  0.387  0.412  0.127- 107 1.42 130 1.42 105 1.43
 107  0.388  0.445  0.096- 106 1.42  83 1.42 108 1.43
 108  0.378  0.515  0.094-   2 1.42   6 1.42 107 1.43
 109  0.364  0.554  0.517- 110 1.42 133 1.42 265 1.43
 110  0.351  0.579  0.486- 109 1.42  86 1.42 111 1.43
 111  0.313  0.616  0.484- 112 1.42 135 1.42 110 1.43
 112  0.294  0.626  0.453- 111 1.42  88 1.42 113 1.43
 113  0.250  0.626  0.451- 114 1.42 137 1.42 112 1.43
 114  0.230  0.617  0.420- 113 1.42  90 1.42 115 1.43
 115  0.193  0.580  0.418- 116 1.42 139 1.42 114 1.43
 116  0.179  0.555  0.387- 115 1.42  92 1.42 117 1.43
 117  0.159  0.492  0.385- 118 1.42 141 1.42 116 1.43
 118  0.155  0.459  0.354- 117 1.42  94 1.42 119 1.43
 119  0.159  0.388  0.352- 120 1.42 143 1.42 118 1.43
 120  0.166  0.357  0.321- 119 1.42  96 1.42 121 1.43
 121  0.192  0.300  0.319- 122 1.42 145 1.42 120 1.43
 122  0.208  0.280  0.288- 121 1.42  98 1.42 123 1.43
 123  0.249  0.253  0.286- 124 1.42 147 1.42 122 1.43
 124  0.269  0.249  0.255- 123 1.42 100 1.42 125 1.43
 125  0.312  0.261  0.253- 126 1.42 149 1.42 124 1.43
 126  0.331  0.276  0.222- 125 1.42 102 1.42 127 1.43
 127  0.364  0.323  0.220- 128 1.42 151 1.42 126 1.43
 128  0.375  0.350  0.189- 127 1.42 104 1.42 129 1.43
 129  0.387  0.419  0.187- 130 1.42 153 1.42 128 1.43
 130  0.388  0.452  0.156- 129 1.42 106 1.42 131 1.43
 131  0.377  0.521  0.154-   6 1.42  14 1.42 130 1.43
 132  0.362  0.560  0.578- 133 1.42 156 1.42 287 1.43
 133  0.348  0.583  0.546- 132 1.42 109 1.42 134 1.43
 134  0.309  0.619  0.545- 135 1.42 158 1.42 133 1.43
 135  0.290  0.627  0.513- 134 1.42 111 1.42 136 1.43
 136  0.246  0.624  0.512- 137 1.42 160 1.42 135 1.43
 137  0.226  0.615  0.480- 136 1.42 113 1.42 138 1.43
 138  0.190  0.575  0.479- 139 1.42 162 1.42 137 1.43
 139  0.177  0.550  0.447- 138 1.42 115 1.42 140 1.43
 140  0.158  0.485  0.446- 141 1.42 164 1.42 139 1.43
 141  0.155  0.453  0.414- 140 1.42 117 1.42 142 1.43
 142  0.160  0.382  0.413- 143 1.42 166 1.42 141 1.43
 143  0.168  0.351  0.382- 142 1.42 119 1.42 144 1.43
 144  0.195  0.295  0.380- 145 1.42 168 1.42 143 1.43
 145  0.211  0.276  0.349- 144 1.42 121 1.42 146 1.43
 146  0.253  0.252  0.347- 147 1.42 170 1.42 145 1.43
 147  0.273  0.249  0.316- 146 1.42 123 1.42 148 1.43
 148  0.316  0.264  0.314- 149 1.42 172 1.42 147 1.43
 149  0.334  0.279  0.283- 148 1.42 125 1.42 150 1.43
 150  0.366  0.328  0.281- 151 1.42 174 1.42 149 1.43
 151  0.376  0.356  0.250- 150 1.42 127 1.42 152 1.43
 152  0.388  0.425  0.248- 153 1.42 176 1.42 151 1.43
 153  0.388  0.458  0.217- 152 1.42 129 1.42 154 1.43
 154  0.375  0.527  0.215-  14 1.42  26 1.42 153 1.43
 155  0.359  0.565  0.638- 156 1.42 179 1.42 309 1.43
 156  0.344  0.587  0.607- 155 1.42 132 1.42 157 1.43
 157  0.306  0.621  0.605- 158 1.42 181 1.42 156 1.43
 158  0.286  0.628  0.574- 157 1.42 134 1.42 159 1.43
 159  0.242  0.623  0.572- 160 1.42 183 1.42 158 1.43
 160  0.223  0.612  0.541- 159 1.42 136 1.42 161 1.43
 161  0.187  0.570  0.539- 162 1.42 185 1.42 160 1.43
 162  0.174  0.545  0.508- 161 1.42 138 1.42 163 1.43
 163  0.157  0.479  0.506- 164 1.42 187 1.42 162 1.43
 164  0.155  0.446  0.475- 163 1.42 140 1.42 165 1.43
 165  0.161  0.376  0.473- 166 1.42 189 1.42 164 1.43
 166  0.170  0.346  0.442- 165 1.42 142 1.42 167 1.43
 167  0.198  0.291  0.440- 168 1.42 191 1.42 166 1.43
 168  0.215  0.273  0.409- 167 1.42 144 1.42 169 1.43
 169  0.257  0.251  0.407- 170 1.42 193 1.42 168 1.43
 170  0.277  0.249  0.376- 169 1.42 146 1.42 171 1.43
 171  0.320  0.266  0.374- 172 1.42 195 1.42 170 1.43
 172  0.337  0.283  0.343- 171 1.42 148 1.42 173 1.43
 173  0.368  0.333  0.341- 174 1.42 197 1.42 172 1.43
 174  0.378  0.362  0.310- 173 1.42 150 1.42 175 1.43
 175  0.388  0.432  0.308- 176 1.42 199 1.42 174 1.43
 176  0.387  0.465  0.277- 175 1.42 152 1.42 177 1.43
 177  0.373  0.532  0.275-  26 1.42  43 1.42 176 1.43
 178  0.356  0.569  0.699- 179 1.42 201 1.42 328 1.43
 179  0.341  0.591  0.667- 178 1.42 155 1.42 180 1.43
 180  0.302  0.623  0.666- 181 1.42 203 1.42 179 1.43
 181  0.282  0.628  0.634- 180 1.42 157 1.42 182 1.43
 182  0.238  0.621  0.633- 183 1.42 205 1.42 181 1.43
 183  0.219  0.609  0.601- 182 1.42 159 1.42 184 1.43
 184  0.184  0.566  0.600- 185 1.42 207 1.42 183 1.43
 185  0.172  0.539  0.568- 184 1.42 161 1.42 186 1.43
 186  0.156  0.473  0.567- 187 1.42 209 1.42 185 1.43
 187  0.154  0.440  0.535- 186 1.42 163 1.42 188 1.43
 188  0.163  0.369  0.534- 189 1.42 211 1.42 187 1.43
 189  0.172  0.340  0.502- 188 1.42 165 1.42 190 1.43
 190  0.201  0.287  0.501- 191 1.42 213 1.42 189 1.43
 191  0.218  0.270  0.469- 190 1.42 167 1.42 192 1.43
 192  0.261  0.250  0.468- 193 1.42 215 1.42 191 1.43
 193  0.281  0.250  0.436- 192 1.42 169 1.42 194 1.43
 194  0.323  0.269  0.435- 195 1.42 217 1.42 193 1.43
 195  0.341  0.286  0.403- 194 1.42 171 1.42 196 1.43
 196  0.370  0.339  0.402- 197 1.42 219 1.42 195 1.43
 197  0.380  0.368  0.371- 196 1.42 173 1.42 198 1.43
 198  0.388  0.438  0.369- 199 1.42 221 1.42 197 1.43
 199  0.386  0.471  0.338- 198 1.42 175 1.42  42 1.43
 200  0.354  0.574  0.759- 201 1.42 223 1.42 343 1.43
 201  0.338  0.595  0.728- 200 1.42 178 1.42 202 1.43
 202  0.298  0.624  0.726- 203 1.42 225 1.42 201 1.43
 203  0.278  0.629  0.695- 202 1.42 180 1.42 204 1.43
 204  0.234  0.619  0.693- 205 1.42 227 1.42 203 1.43
 205  0.216  0.606  0.662- 204 1.42 182 1.42 206 1.43
 206  0.181  0.561  0.660- 207 1.42 229 1.42 205 1.43
 207  0.170  0.534  0.629- 206 1.42 184 1.42 208 1.43
 208  0.156  0.466  0.627- 209 1.42 231 1.42 207 1.43
 209  0.155  0.433  0.596- 208 1.42 186 1.42 210 1.43
 210  0.164  0.363  0.594- 211 1.42 233 1.42 209 1.43
 211  0.174  0.335  0.563- 210 1.42 188 1.42 212 1.43
 212  0.205  0.283  0.561- 213 1.42 235 1.42 211 1.43
 213  0.222  0.267  0.530- 212 1.42 190 1.42 214 1.43
 214  0.265  0.250  0.528- 215 1.42 237 1.42 213 1.43
 215  0.285  0.251  0.497- 214 1.42 192 1.42 216 1.43
 216  0.327  0.272  0.495- 217 1.42 239 1.42 215 1.43
 217  0.344  0.290  0.464- 216 1.42 194 1.42 218 1.43
 218  0.373  0.345  0.462- 219 1.42 241 1.42 217 1.43
 219  0.381  0.374  0.431- 218 1.42 196 1.42 220 1.43
 220  0.388  0.445  0.429- 221 1.42 243 1.42 219 1.43
 221  0.386  0.478  0.398- 220 1.42 198 1.42  63 1.43
 222  0.351  0.579  0.819- 223 1.42 245 1.42 354 1.43
 223  0.335  0.599  0.788- 222 1.42 200 1.42 224 1.43
 224  0.294  0.626  0.786- 225 1.42 247 1.42 223 1.43
 225  0.274  0.629  0.755- 224 1.42 202 1.42 226 1.43
 226  0.230  0.617  0.754- 227 1.42 249 1.42 225 1.43
 227  0.212  0.603  0.722- 226 1.42 204 1.42 228 1.43
 228  0.179  0.556  0.721- 229 1.42 251 1.42 227 1.43
 229  0.168  0.528  0.689- 228 1.42 206 1.42 230 1.43
 230  0.155  0.460  0.688- 231 1.42 253 1.42 229 1.43
 231  0.155  0.427  0.656- 230 1.42 208 1.42 232 1.43
 232  0.166  0.357  0.655- 233 1.42 255 1.42 231 1.43
 233  0.176  0.329  0.623- 232 1.42 210 1.42 234 1.43
 234  0.208  0.280  0.622- 235 1.42 257 1.42 233 1.43
 235  0.226  0.264  0.590- 234 1.42 212 1.42 236 1.43
 236  0.269  0.249  0.589- 237 1.42 259 1.42 235 1.43
 237  0.289  0.251  0.557- 236 1.42 214 1.42 238 1.43
 238  0.330  0.275  0.556- 239 1.42 261 1.42 237 1.43
 239  0.347  0.294  0.524- 238 1.42 216 1.42 240 1.43
 240  0.375  0.350  0.523- 241 1.42 263 1.42 239 1.43
 241  0.382  0.381  0.491- 240 1.42 218 1.42 242 1.43
 242  0.388  0.452  0.490- 243 1.42 265 1.42 241 1.43
 243  0.385  0.484  0.458- 242 1.42 220 1.42  86 1.43
 244  0.348  0.583  0.880- 245 1.42 267 1.42 361 1.43
 245  0.331  0.602  0.849- 244 1.42 222 1.42 246 1.43
 246  0.290  0.627  0.847- 247 1.42 269 1.42 245 1.43
 247  0.270  0.629  0.816- 246 1.42 224 1.42 248 1.43
 248  0.227  0.615  0.814- 249 1.42 271 1.42 247 1.43
 249  0.209  0.599  0.783- 248 1.42 226 1.42 250 1.43
 250  0.177  0.550  0.781- 251 1.42 273 1.42 249 1.43
 251  0.166  0.522  0.750- 250 1.42 228 1.42 252 1.43
 252  0.155  0.453  0.748- 253 1.42 275 1.42 251 1.43
 253  0.155  0.420  0.717- 252 1.42 230 1.42 254 1.43
 254  0.168  0.352  0.715- 255 1.42 277 1.42 253 1.43
 255  0.178  0.324  0.684- 254 1.42 232 1.42 256 1.43
 256  0.211  0.276  0.682- 257 1.42 279 1.42 255 1.43
 257  0.230  0.262  0.651- 256 1.42 234 1.42 258 1.43
 258  0.273  0.249  0.649- 259 1.42 281 1.42 257 1.43
 259  0.293  0.253  0.618- 258 1.42 236 1.42 260 1.43
 260  0.334  0.279  0.616- 261 1.42 283 1.42 259 1.43
 261  0.350  0.299  0.585- 260 1.42 238 1.42 262 1.43
 262  0.376  0.356  0.583- 263 1.42 285 1.42 261 1.43
 263  0.384  0.387  0.552- 262 1.42 240 1.42 264 1.43
 264  0.388  0.458  0.550- 265 1.42 287 1.42 263 1.43
 265  0.384  0.490  0.519- 264 1.42 242 1.42 109 1.43
 266  0.345  0.587  0.940- 267 1.42 289 1.42 364 1.43
 267  0.328  0.606  0.909- 266 1.42 244 1.42 268 1.43
 268  0.286  0.628  0.907- 269 1.42 291 1.42 267 1.43
 269  0.266  0.629  0.876- 268 1.42 246 1.42 270 1.43
 270  0.223  0.612  0.874- 271 1.42 293 1.42 269 1.43
 271  0.205  0.596  0.843- 270 1.42 248 1.42 272 1.43
 272  0.174  0.545  0.841- 273 1.42 295 1.42 271 1.43
 273  0.164  0.516  0.810- 272 1.42 250 1.42 274 1.43
 274  0.154  0.446  0.808- 275 1.42 297 1.42 273 1.43
 275  0.155  0.414  0.777- 274 1.42 252 1.42 276 1.43
 276  0.169  0.346  0.776- 277 1.42 299 1.42 275 1.43
 277  0.181  0.319  0.744- 276 1.42 254 1.42 278 1.43
 278  0.215  0.273  0.743- 279 1.42 301 1.42 277 1.43
 279  0.233  0.260  0.711- 278 1.42 256 1.42 280 1.43
 280  0.277  0.249  0.710- 281 1.42 303 1.42 279 1.43
 281  0.297  0.254  0.678- 280 1.42 258 1.42 282 1.43
 282  0.337  0.282  0.677- 283 1.42 305 1.42 281 1.43
 283  0.353  0.303  0.645- 282 1.42 260 1.42 284 1.43
 284  0.378  0.362  0.644- 285 1.42 307 1.42 283 1.43
 285  0.385  0.393  0.612- 284 1.42 262 1.42 286 1.43
 286  0.387  0.465  0.611- 287 1.42 309 1.42 285 1.43
 287  0.383  0.497  0.579- 286 1.42 264 1.42 132 1.43
 288  0.341  0.591  0.001- 289 1.42   4 1.42   1 1.43
 289  0.324  0.609  0.970- 288 1.42 266 1.42 290 1.43
 290  0.282  0.628  0.968- 291 1.42 310 1.42 289 1.43
 291  0.262  0.628  0.937- 290 1.42 268 1.42 292 1.43
 292  0.219  0.609  0.935- 293 1.42 312 1.42 291 1.43
 293  0.202  0.592  0.904- 292 1.42 270 1.42 294 1.43
 294  0.172  0.539  0.902- 295 1.42 314 1.42 293 1.43
 295  0.163  0.510  0.871- 294 1.42 272 1.42 296 1.43
 296  0.154  0.440  0.869- 297 1.42 316 1.42 295 1.43
 297  0.156  0.407  0.838- 296 1.42 274 1.42 298 1.43
 298  0.172  0.340  0.836- 299 1.42 318 1.42 297 1.43
 299  0.184  0.314  0.805- 298 1.42 276 1.42 300 1.43
 300  0.218  0.270  0.803- 301 1.42 320 1.42 299 1.43
 301  0.237  0.258  0.772- 300 1.42 278 1.42 302 1.43
 302  0.281  0.250  0.770- 303 1.42 322 1.42 301 1.43
 303  0.301  0.255  0.739- 302 1.42 280 1.42 304 1.43
 304  0.341  0.286  0.737- 305 1.42 324 1.42 303 1.43
 305  0.356  0.308  0.706- 304 1.42 282 1.42 306 1.43
 306  0.380  0.368  0.704- 307 1.42 326 1.42 305 1.43
 307  0.386  0.400  0.673- 306 1.42 284 1.42 308 1.43
 308  0.386  0.471  0.671- 309 1.42 328 1.42 307 1.43
 309  0.381  0.503  0.640- 308 1.42 286 1.42 155 1.43
 310  0.258  0.628  0.997-   5 1.42 290 1.42 311 1.43
 311  0.216  0.606  0.995- 312 1.42  12 1.42 310 1.43
 312  0.199  0.588  0.964- 311 1.42 292 1.42 313 1.43
 313  0.170  0.534  0.962- 314 1.42 329 1.42 312 1.43
 314  0.161  0.504  0.931- 313 1.42 294 1.42 315 1.43
 315  0.154  0.433  0.929- 316 1.42 331 1.42 314 1.43
 316  0.157  0.401  0.898- 315 1.42 296 1.42 317 1.43
 317  0.174  0.335  0.896- 318 1.42 333 1.42 316 1.43
 318  0.186  0.309  0.865- 317 1.42 298 1.42 319 1.43
 319  0.222  0.267  0.863- 320 1.42 335 1.42 318 1.43
 320  0.241  0.256  0.832- 319 1.42 300 1.42 321 1.43
 321  0.285  0.251  0.830- 322 1.42 337 1.42 320 1.43
 322  0.305  0.257  0.799- 321 1.42 302 1.42 323 1.43
 323  0.344  0.290  0.797- 324 1.42 339 1.42 322 1.43
 324  0.359  0.313  0.766- 323 1.42 304 1.42 325 1.43
 325  0.381  0.374  0.765- 326 1.42 341 1.42 324 1.43
 326  0.386  0.406  0.733- 325 1.42 306 1.42 327 1.43
 327  0.386  0.477  0.732- 328 1.42 343 1.42 326 1.43
 328  0.380  0.509  0.700- 327 1.42 308 1.42 178 1.43
 329  0.160  0.498  0.991-  13 1.42 313 1.42 330 1.43
 330  0.155  0.427  0.990- 331 1.42  24 1.42 329 1.43
 331  0.158  0.394  0.959- 330 1.42 315 1.42 332 1.43
 332  0.176  0.329  0.957- 333 1.42 344 1.42 331 1.43
 333  0.189  0.304  0.926- 332 1.42 317 1.42 334 1.43
 334  0.226  0.264  0.924- 335 1.42 346 1.42 333 1.43
 335  0.245  0.254  0.893- 334 1.42 319 1.42 336 1.43
 336  0.289  0.251  0.891- 337 1.42 348 1.42 335 1.43
 337  0.309  0.259  0.860- 336 1.42 321 1.42 338 1.43
 338  0.347  0.294  0.858- 339 1.42 350 1.42 337 1.43
 339  0.361  0.318  0.827- 338 1.42 323 1.42 340 1.43
 340  0.382  0.380  0.825- 341 1.42 352 1.42 339 1.43
 341  0.387  0.412  0.794- 340 1.42 325 1.42 342 1.43
 342  0.385  0.484  0.792- 343 1.42 354 1.42 341 1.43
 343  0.378  0.515  0.761- 342 1.42 327 1.42 200 1.43
 344  0.192  0.300  0.986-  25 1.42 332 1.42 345 1.43
 345  0.229  0.262  0.984- 346 1.42  40 1.42 344 1.43
 346  0.249  0.253  0.953- 345 1.42 334 1.42 347 1.43
 347  0.293  0.252  0.951- 348 1.42 355 1.42 346 1.43
 348  0.312  0.261  0.920- 347 1.42 336 1.42 349 1.43
 349  0.350  0.299  0.918- 350 1.42 357 1.42 348 1.43
 350  0.364  0.323  0.887- 349 1.42 338 1.42 351 1.43
 351  0.384  0.387  0.885- 352 1.42 359 1.42 350 1.43
 352  0.387  0.419  0.854- 351 1.42 340 1.42 353 1.43
 353  0.384  0.490  0.852- 354 1.42 361 1.42 352 1.43
 354  0.377  0.521  0.821- 353 1.42 342 1.42 222 1.43
 355  0.316  0.264  0.981-  41 1.42 347 1.42 356 1.43
 356  0.353  0.303  0.979- 357 1.42  61 1.42 355 1.43
 357  0.366  0.328  0.948- 356 1.42 349 1.42 358 1.43
 358  0.385  0.393  0.946- 359 1.42 362 1.42 357 1.43
 359  0.388  0.426  0.915- 358 1.42 351 1.42 360 1.43
 360  0.383  0.497  0.913- 361 1.42 364 1.42 359 1.43
 361  0.375  0.527  0.882- 360 1.42 353 1.42 244 1.43
 362  0.388  0.432  0.975-  62 1.42 358 1.42 363 1.43
 363  0.381  0.503  0.973- 364 1.42   1 1.42 362 1.43
 364  0.373  0.533  0.942- 363 1.42 360 1.42 266 1.43
 
  LATTYP: Found a simple orthorhombic cell.
 ALAT       =    19.9214134216
 B/A-ratio  =     1.6250001197
 C/A-ratio  =     2.0303804144
  
  Lattice vectors:
  
 A1 = (   0.0000000000, -19.9214134216,   0.0000000000)
 A2 = (  32.3722991943,   0.0000000000,   0.0000000000)
 A3 = (   0.0000000000,   0.0000000000,  40.4480476379)


Analysis of symmetry for initial positions (statically):
=====================================================================
 Subroutine PRICEL returns:
 Original cell was already a primitive cell.
 

 Routine SETGRP: Setting up the symmetry group for a 
 simple orthorhombic supercell.


 Subroutine GETGRP returns: Found  1 space group operations
 (whereof  1 operations were pure point group operations)
 out of a pool of  8 trial point group operations.


The static configuration has the point symmetry C_1 .


Analysis of symmetry for dynamics (positions and initial velocities):
=====================================================================
 Subroutine PRICEL returns:
 Original cell was already a primitive cell.
 

 Routine SETGRP: Setting up the symmetry group for a 
 simple orthorhombic supercell.


 Subroutine GETGRP returns: Found  1 space group operations
 (whereof  1 operations were pure point group operations)
 out of a pool of  8 trial point group operations.


The dynamic configuration has the point symmetry C_1 .


 Subroutine INISYM returns: Found  1 space group operations
 (whereof  1 operations are pure point group operations),
 and found     1 'primitive' translations


----------------------------------------------------------------------------------------

                                     Primitive cell                                     

  volume of cell :   26085.0250

  direct lattice vectors                    reciprocal lattice vectors
    32.372299194  0.000000000  0.000000000     0.030890608  0.000000000  0.000000000
     0.000000000 19.921413422  0.000000000     0.000000000  0.050197241  0.000000000
     0.000000000  0.000000000 40.448047638     0.000000000  0.000000000  0.024723072

  length of vectors
    32.372299194 19.921413422 40.448047638     0.030890608  0.050197241  0.024723072

  position of ions in fractional coordinates (direct lattice)
     0.370993369  0.538358225  0.002462495
     0.368830357  0.543875659  0.062855227
     0.338091388  0.595048527  0.061055778
     0.320513377  0.611466485  0.029922734
     0.277828976  0.628836977  0.028113045
     0.366543734  0.549268481  0.123253579
     0.334736933  0.598685571  0.121454703
     0.316822509  0.614105360  0.090318808
     0.273792551  0.629059151  0.088503999
     0.253562776  0.626917825  0.057371821
     0.212106401  0.602950170  0.055565672
     0.195581757  0.583869422  0.024429782
     0.168023102  0.528121533  0.022622329
     0.364128595  0.554526693  0.183666072
     0.331293380  0.602128753  0.181865315
     0.313074044  0.616532127  0.150722022
     0.269753360  0.629064609  0.148904796
     0.249586380  0.625783771  0.117766924
     0.208664984  0.599505711  0.115964052
     0.192554319  0.579518937  0.084824755
     0.166195892  0.522263622  0.083013894
     0.158933258  0.491512467  0.051879630
     0.154984048  0.420293028  0.050067559
     0.158741802  0.387919483  0.018932915
     0.178381990  0.323927477  0.017129201
     0.361605508  0.559649637  0.244095285
     0.327779661  0.605379728  0.242289963
     0.309267160  0.618752482  0.211139152
     0.265709512  0.628855982  0.209320005
     0.245629991  0.624444584  0.178172796
     0.205291226  0.595885746  0.176371853
     0.189617592  0.575008889  0.145228397
     0.164490265  0.516309056  0.143413282
     0.157892624  0.485167313  0.112274573
     0.155456364  0.413771241  0.110465966
     0.159899259  0.381632111  0.079325659
     0.180880452  0.318778374  0.077518636
     0.195038932  0.295201085  0.046386507
     0.233195058  0.259581064  0.044568595
     0.252864770  0.251584292  0.013437071
     0.296846927  0.253807335  0.011634276
     0.370985646  0.538136767  0.335712396
     0.358976708  0.564637894  0.304543825
     0.324204616  0.608450676  0.302731840
     0.305419958  0.620763954  0.271572947
     0.261673652  0.628423139  0.269754316
     0.241702829  0.622889648  0.238597936
     0.201992913  0.592091841  0.236795298
     0.186781742  0.570336079  0.205645683
     0.162925395  0.510257633  0.203826395
     0.156992713  0.478767626  0.172682189
     0.156074800  0.407280986  0.170876056
     0.161186696  0.375413649  0.139730909
     0.183490468  0.313775803  0.137917550
     0.198143706  0.291014268  0.106781066
     0.237033587  0.257565448  0.104964917
     0.256859053  0.250673304  0.073829569
     0.300767056  0.255366880  0.072025309
     0.319866778  0.266409278  0.040894057
     0.355729296  0.307841531  0.039074998
     0.368427706  0.333528495  0.007944320
     0.385593841  0.399366104  0.006143012
     0.368819577  0.543671527  0.396185453
     0.356247642  0.569473968  0.365010693
     0.320570474  0.611316338  0.363192661
     0.301539558  0.622572354  0.332025661
     0.257657951  0.627770632  0.330210737
     0.237818887  0.621112998  0.299044436
     0.198788290  0.588108127  0.297237937
     0.184042921  0.565526526  0.266080428
     0.161481978  0.504139740  0.264259827
     0.156226728  0.472335240  0.233107053
     0.156835614  0.400841993  0.231302281
     0.162621745  0.369282438  0.200151730
     0.186218214  0.308932594  0.198332972
     0.201334631  0.287005140  0.167187890
     0.240908497  0.255753574  0.165375620
     0.260866372  0.249984301  0.134232608
     0.304646159  0.257138102  0.132424896
     0.323504338  0.269237901  0.101290297
     0.358468606  0.312649357  0.099471905
     0.370613505  0.339030181  0.068337667
     0.386377379  0.405787511  0.066538541
     0.388199670  0.438604836  0.035405929
     0.380042663  0.508871014  0.033591929
     0.366537222  0.549086430  0.456667752
     0.353436570  0.574177945  0.425488848
     0.316890697  0.613995362  0.423667112
     0.297626989  0.624169242  0.392494008
     0.253660835  0.626893579  0.390683429
     0.233973594  0.619132750  0.359509225
     0.195671204  0.583945547  0.357697446
     0.181423536  0.560544233  0.326531344
     0.160181780  0.497930951  0.324712702
     0.155600845  0.465863226  0.293548106
     0.157729906  0.394447557  0.291743818
     0.164181660  0.363235055  0.260585421
     0.189045100  0.304243775  0.258763977
     0.204618127  0.283176832  0.227610408
     0.244828697  0.254150135  0.225802264
     0.264888718  0.249505842  0.194649126
     0.308489401  0.259114514  0.192838421
     0.327070997  0.272273238  0.161695837
     0.361094765  0.317616812  0.159881423
     0.372677788  0.344652969  0.128739726
     0.387010683  0.412255533  0.126939331
     0.388142566  0.445149968  0.095803574
     0.378499939  0.514917065  0.093987273
     0.364142953  0.554363992  0.517152429
     0.350512051  0.578702214  0.485973872
     0.313147369  0.616450946  0.484150995
     0.293684238  0.625540356  0.452973125
     0.249685283  0.625791291  0.451167434
     0.230182626  0.616921850  0.419988728
     0.192655114  0.579599760  0.418171151
     0.178913021  0.555422142  0.386998385
     0.159004916  0.491662846  0.385183082
     0.155109288  0.459359854  0.354009688
     0.158750791  0.388105928  0.352202417
     0.165868023  0.357284850  0.321036153
     0.191967143  0.299721571  0.319214128
     0.207972534  0.279537987  0.288050606
     0.248774683  0.252777636  0.286245710
     0.268920852  0.249256753  0.255085174
     0.312290447  0.261316542  0.253269833
     0.330576253  0.275501372  0.222116609
     0.363615333  0.322728696  0.220307324
     0.374612194  0.350392844  0.189155838
     0.387499332  0.418760684  0.187352325
     0.387929618  0.451690304  0.156209538
     0.376806453  0.520870660  0.154393886
     0.361648074  0.559511142  0.577635143
     0.347511298  0.583077108  0.546459497
     0.309364775  0.618706019  0.544639324
     0.289715087  0.626690068  0.513460153
     0.245739106  0.624464684  0.511655014
     0.226432800  0.614510082  0.480475789
     0.189717684  0.575107365  0.478654486
     0.176504582  0.550167898  0.447477118
     0.157963577  0.485331705  0.445666254
     0.154759045  0.452832352  0.414486814
     0.159917277  0.381828201  0.412674242
     0.167674273  0.351423709  0.381501600
     0.194982804  0.295363829  0.379681703
     0.211404358  0.276096733  0.348509433
     0.252747192  0.251639548  0.346704474
     0.272952603  0.249247151  0.315537042
     0.316038468  0.263730795  0.313717677
     0.334010470  0.278931869  0.282556581
     0.366025467  0.327986250  0.280751181
     0.376423819  0.356242527  0.249590030
     0.387847205  0.425291890  0.247781535
     0.387578079  0.458215377  0.216629274
     0.374990676  0.526730216  0.214815421
     0.359041376  0.564517019  0.638109788
     0.344405938  0.587265085  0.606939023
     0.305523725  0.620723156  0.605124211
     0.285721589  0.627610421  0.573945964
     0.241819742  0.622915669  0.572139800
     0.222742590  0.611878283  0.540962578
     0.186886120  0.570443685  0.539139882
     0.174205203  0.544781608  0.507961775
     0.157051995  0.478945276  0.506154643
     0.154539687  0.446288827  0.474973421
     0.161197776  0.375616076  0.473155650
     0.169607729  0.345674772  0.441979650
     0.198087053  0.291176374  0.440163569
     0.214907504  0.272843600  0.408984535
     0.256744620  0.250719457  0.407176443
     0.276984139  0.249463754  0.376003527
     0.319735255  0.266357222  0.374182894
     0.337367733  0.282555782  0.343013306
     0.368315803  0.333378839  0.341210185
     0.378109627  0.362196251  0.310042619
     0.388054446  0.431844060  0.308227476
     0.387084318  0.464725795  0.277066557
     0.373050913  0.532489977  0.275255226
     0.356335358  0.569378972  0.698571671
     0.341217578  0.591286397  0.667408514
     0.301647354  0.622548939  0.665599601
     0.281707858  0.628309445  0.634426646
     0.237930911  0.621156031  0.632616597
     0.219097671  0.609057315  0.601444160
     0.184136159  0.565647461  0.599623955
     0.172016444  0.539281583  0.568446789
     0.156267025  0.472525818  0.566641825
     0.154456011  0.439743059  0.535463632
     0.162610736  0.369487197  0.533642170
     0.171645785  0.340029181  0.502464719
     0.201270167  0.287166998  0.500654122
     0.218468634  0.269782585  0.469472030
     0.260750631  0.250016101  0.467659889
     0.281004923  0.249896188  0.436482845
     0.323372926  0.269172514  0.434663101
     0.340649630  0.286358280  0.403486863
     0.370495925  0.338889750  0.401683606
     0.379664000  0.368239756  0.370510378
     0.388121530  0.438400579  0.368690338
     0.386451646  0.471204418  0.337521775
     0.353534410  0.574100812  0.759017074
     0.337951427  0.595141980  0.727861591
     0.297739123  0.624166975  0.726058493
     0.277680363  0.628803635  0.694894506
     0.234080331  0.619205641  0.693080975
     0.215511983  0.606042359  0.661915488
     0.181496401  0.560693522  0.660101192
     0.169935025  0.533667190  0.628927350
     0.155612125  0.466066451  0.627120740
     0.154501550  0.433196862  0.595947907
     0.164148179  0.363441962  0.594125286
     0.173809358  0.334508866  0.562950384
     0.204535950  0.283333000  0.561143974
     0.222097331  0.266935831  0.529963764
     0.264771092  0.249542646  0.528146661
     0.285015436  0.250556784  0.496968206
     0.326947634  0.272192854  0.495152393
     0.343849227  0.290329731  0.463970862
     0.372560375  0.344509271  0.462164994
     0.381095264  0.374361120  0.430989657
     0.388055642  0.444956384  0.429167973
     0.385689567  0.477640266  0.397992344
     0.350628666  0.578650034  0.819444468
     0.334604903  0.598814302  0.788296716
     0.293799079  0.625563021  0.786497405
     0.273648479  0.629069817  0.755344381
     0.230276225  0.617029282  0.753530034
     0.211995373  0.602838858  0.722372480
     0.178964527  0.555601499  0.720564652
     0.167979894  0.527937513  0.689398269
     0.155097140  0.459573198  0.687588193
     0.154685254  0.426658113  0.656421262
     0.165812459  0.357487084  0.654600299
     0.176082856  0.329109134  0.623429430
     0.207873285  0.279677713  0.621625179
     0.225775356  0.264267717  0.590451360
     0.268796018  0.249288263  0.588630327
     0.289008961  0.251439264  0.557455400
     0.330458261  0.275414622  0.555644476
     0.346965022  0.294480458  0.524461942
     0.374502877  0.350241335  0.522650013
     0.382395347  0.380555280  0.491473336
     0.387847704  0.451500021  0.489652962
     0.384793434  0.484036496  0.458473879
     0.347637209  0.583038809  0.879859326
     0.331192213  0.602297988  0.848718170
     0.289839955  0.626736935  0.846918986
     0.269620641  0.629108248  0.815776209
     0.226530402  0.614630738  0.813960268
     0.208551153  0.599420639  0.782812998
     0.176540244  0.550360105  0.781009821
     0.166153367  0.522093453  0.749852018
     0.154726956  0.453046465  0.748038348
     0.155007721  0.420127573  0.716879299
     0.167591677  0.351615198  0.715063229
     0.178466945  0.323834847  0.683897725
     0.211290554  0.276220866  0.682092352
     0.229509497  0.261819378  0.650926472
     0.272823660  0.249267056  0.649105710
     0.292978551  0.252550910  0.617935355
     0.333891776  0.278845973  0.616128356
     0.349986387  0.298825740  0.584951525
     0.376330920  0.356090737  0.583133498
     0.383569196  0.386819887  0.551956927
     0.387513687  0.458027753  0.550140684
     0.383760676  0.490370096  0.518960344
     0.344547939  0.587231798  0.940263092
     0.327700873  0.605570548  0.909127309
     0.285854329  0.627679339  0.907325305
     0.265593522  0.628918060  0.876189868
     0.222839345  0.612020676  0.874373589
     0.205191117  0.595806454  0.843234501
     0.174236036  0.544985633  0.841433128
     0.164441971  0.516147464  0.810287741
     0.154491880  0.446496949  0.808469296
     0.155470625  0.413605571  0.777320033
     0.169498734  0.345836280  0.775509339
     0.180954446  0.318679513  0.744350974
     0.214770902  0.272933746  0.742541590
     0.233294327  0.259575742  0.711385198
     0.276851138  0.249474261  0.709565061
     0.296930731  0.253889285  0.678402235
     0.337261725  0.282464013  0.676596694
     0.352921295  0.303335898  0.645427767
     0.378041900  0.362036136  0.643606210
     0.384628411  0.393159150  0.612435547
     0.387056331  0.464547875  0.610624250
     0.382616292  0.496656478  0.579446272
     0.341365104  0.591230227  0.000660662
     0.324144454  0.608631139  0.969527071
     0.281852668  0.628383810  0.967721417
     0.261573949  0.628496164  0.936590791
     0.219202705  0.609209480  0.934776141
     0.201907258  0.592011325  0.903641809
     0.172053847  0.539479909  0.901839723
     0.162876583  0.510106878  0.870704029
     0.154409275  0.439943034  0.868883003
     0.156079111  0.407115203  0.837743395
     0.171535888  0.340171981  0.835936327
     0.183557918  0.313661903  0.804788319
     0.218334512  0.269854572  0.802974265
     0.237126531  0.257544905  0.771825771
     0.280874125  0.249903839  0.770009036
     0.300846360  0.255453229  0.738853279
     0.340548199  0.286267491  0.737045915
     0.355759670  0.308013462  0.705888062
     0.379621324  0.368084216  0.704065624
     0.385546756  0.399556271  0.672901994
     0.386461089  0.471039096  0.671095273
     0.381339107  0.502880058  0.639925104
     0.257564984  0.627825703  0.996982479
     0.215628112  0.606178184  0.995171927
     0.198706274  0.588029191  0.964038440
     0.169984155  0.533856618  0.962233985
     0.161436275  0.503981764  0.931103902
     0.154465000  0.433382524  0.929283573
     0.156835408  0.400669475  0.898149522
     0.173705214  0.334631278  0.896346014
     0.186282917  0.308809788  0.865205949
     0.221967597  0.266977479  0.863388335
     0.241014389  0.255733175  0.832247023
     0.284898004  0.250544775  0.830435764
     0.304740067  0.257214190  0.799286702
     0.343769689  0.290225494  0.797477835
     0.358504706  0.312825964  0.766328873
     0.381075826  0.374203422  0.764509357
     0.386329269  0.406000345  0.733354391
     0.385731857  0.477494178  0.731551339
     0.379932347  0.509031448  0.700389982
     0.160122068  0.497779816  0.991492383
     0.154655499  0.426827651  0.989675180
     0.157722081  0.394261619  0.958543149
     0.175986561  0.329206267  0.956741043
     0.189106364  0.304100540  0.925606531
     0.225660033  0.264288300  0.923787905
     0.244936129  0.254118986  0.892651491
     0.288906584  0.251400108  0.890846227
     0.308598119  0.259178621  0.859703724
     0.346906274  0.294362679  0.857893021
     0.361153244  0.317784642  0.826751181
     0.382402462  0.380397339  0.824936603
     0.386977291  0.412478732  0.793788283
     0.384863979  0.483899588  0.791985772
     0.378404333  0.515111933  0.760835469
     0.192030327  0.299568630  0.985998151
     0.229406695  0.261825107  0.984179377
     0.248887157  0.252728909  0.953046371
     0.292892052  0.252482524  0.951245248
     0.312408351  0.261373231  0.920108100
     0.349941979  0.298692725  0.918294213
     0.363689033  0.322895781  0.887157698
     0.383593610  0.386664172  0.885348466
     0.387483294  0.418990562  0.854206463
     0.383847689  0.490250625  0.852402698
     0.376729116  0.521082165  0.821260204
     0.316174494  0.263768812  0.980502709
     0.352894337  0.303175408  0.978685572
     0.366117040  0.328145709  0.947553422
     0.384665442  0.392985164  0.945748839
     0.387862659  0.425520461  0.914612336
     0.382719181  0.496536458  0.912805028
     0.374942276  0.526963459  0.881671132
     0.388106885  0.432060144  0.975009620
     0.381451971  0.502744821  0.973199126
     0.373034003  0.532724019  0.942069896

  ion indices of the primitive-cell ions
   primitive index   ion index
                 1           1
                 2           2
                 3           3
                 4           4
                 5           5
                 6           6
                 7           7
                 8           8
                 9           9
                10          10
                11          11
                12          12
                13          13
                14          14
                15          15
                16          16
                17          17
                18          18
                19          19
                20          20
                21          21
                22          22
                23          23
                24          24
                25          25
                26          26
                27          27
                28          28
                29          29
                30          30
                31          31
                32          32
                33          33
                34          34
                35          35
                36          36
                37          37
                38          38
                39          39
                40          40
                41          41
                42          42
                43          43
                44          44
                45          45
                46          46
                47          47
                48          48
                49          49
                50          50
                51          51
                52          52
                53          53
                54          54
                55          55
                56          56
                57          57
                58          58
                59          59
                60          60
                61          61
                62          62
                63          63
                64          64
                65          65
                66          66
                67          67
                68          68
                69          69
                70          70
                71          71
                72          72
                73          73
                74          74
                75          75
                76          76
                77          77
                78          78
                79          79
                80          80
                81          81
                82          82
                83          83
                84          84
                85          85
                86          86
                87          87
                88          88
                89          89
                90          90
                91          91
                92          92
                93          93
                94          94
                95          95
                96          96
                97          97
                98          98
                99          99
               100         100
               101         101
               102         102
               103         103
               104         104
               105         105
               106         106
               107         107
               108         108
               109         109
               110         110
               111         111
               112         112
               113         113
               114         114
               115         115
               116         116
               117         117
               118         118
               119         119
               120         120
               121         121
               122         122
               123         123
               124         124
               125         125
               126         126
               127         127
               128         128
               129         129
               130         130
               131         131
               132         132
               133         133
               134         134
               135         135
               136         136
               137         137
               138         138
               139         139
               140         140
               141         141
               142         142
               143         143
               144         144
               145         145
               146         146
               147         147
               148         148
               149         149
               150         150
               151         151
               152         152
               153         153
               154         154
               155         155
               156         156
               157         157
               158         158
               159         159
               160         160
               161         161
               162         162
               163         163
               164         164
               165         165
               166         166
               167         167
               168         168
               169         169
               170         170
               171         171
               172         172
               173         173
               174         174
               175         175
               176         176
               177         177
               178         178
               179         179
               180         180
               181         181
               182         182
               183         183
               184         184
               185         185
               186         186
               187         187
               188         188
               189         189
               190         190
               191         191
               192         192
               193         193
               194         194
               195         195
               196         196
               197         197
               198         198
               199         199
               200         200
               201         201
               202         202
               203         203
               204         204
               205         205
               206         206
               207         207
               208         208
               209         209
               210         210
               211         211
               212         212
               213         213
               214         214
               215         215
               216         216
               217         217
               218         218
               219         219
               220         220
               221         221
               222         222
               223         223
               224         224
               225         225
               226         226
               227         227
               228         228
               229         229
               230         230
               231         231
               232         232
               233         233
               234         234
               235         235
               236         236
               237         237
               238         238
               239         239
               240         240
               241         241
               242         242
               243         243
               244         244
               245         245
               246         246
               247         247
               248         248
               249         249
               250         250
               251         251
               252         252
               253         253
               254         254
               255         255
               256         256
               257         257
               258         258
               259         259
               260         260
               261         261
               262         262
               263         263
               264         264
               265         265
               266         266
               267         267
               268         268
               269         269
               270         270
               271         271
               272         272
               273         273
               274         274
               275         275
               276         276
               277         277
               278         278
               279         279
               280         280
               281         281
               282         282
               283         283
               284         284
               285         285
               286         286
               287         287
               288         288
               289         289
               290         290
               291         291
               292         292
               293         293
               294         294
               295         295
               296         296
               297         297
               298         298
               299         299
               300         300
               301         301
               302         302
               303         303
               304         304
               305         305
               306         306
               307         307
               308         308
               309         309
               310         310
               311         311
               312         312
               313         313
               314         314
               315         315
               316         316
               317         317
               318         318
               319         319
               320         320
               321         321
               322         322
               323         323
               324         324
               325         325
               326         326
               327         327
               328         328
               329         329
               330         330
               331         331
               332         332
               333         333
               334         334
               335         335
               336         336
               337         337
               338         338
               339         339
               340         340
               341         341
               342         342
               343         343
               344         344
               345         345
               346         346
               347         347
               348         348
               349         349
               350         350
               351         351
               352         352
               353         353
               354         354
               355         355
               356         356
               357         357
               358         358
               359         359
               360         360
               361         361
               362         362
               363         363
               364         364

----------------------------------------------------------------------------------------

 
 
 KPOINTS: KPOINTS created by Atomic Simulation Env

Read explicit list of k-points.

 Found     16 k-points:

 Following reciprocal coordinates:
            Coordinates               Weight
  0.000000  0.000000  0.000000      0.062500
  0.000000  0.000000 -0.033333      0.062500
  0.000000  0.000000 -0.066667      0.062500
  0.000000  0.000000 -0.100000      0.062500
  0.000000  0.000000 -0.133333      0.062500
  0.000000  0.000000 -0.166667      0.062500
  0.000000  0.000000 -0.200000      0.062500
  0.000000  0.000000 -0.233333      0.062500
  0.000000  0.000000 -0.266667      0.062500
  0.000000  0.000000 -0.300000      0.062500
  0.000000  0.000000 -0.333333      0.062500
  0.000000  0.000000 -0.366667      0.062500
  0.000000  0.000000 -0.400000      0.062500
  0.000000  0.000000 -0.433333      0.062500
  0.000000  0.000000 -0.466667      0.062500
  0.000000  0.000000 -0.500000      0.062500

 Following cartesian coordinates:
            Coordinates               Weight
  0.000000  0.000000  0.000000      0.062500
  0.000000  0.000000 -0.000824      0.062500
  0.000000  0.000000 -0.001648      0.062500
  0.000000  0.000000 -0.002472      0.062500
  0.000000  0.000000 -0.003296      0.062500
  0.000000  0.000000 -0.004121      0.062500
  0.000000  0.000000 -0.004945      0.062500
  0.000000  0.000000 -0.005769      0.062500
  0.000000  0.000000 -0.006593      0.062500
  0.000000  0.000000 -0.007417      0.062500
  0.000000  0.000000 -0.008241      0.062500
  0.000000  0.000000 -0.009065      0.062500
  0.000000  0.000000 -0.009889      0.062500
  0.000000  0.000000 -0.010713      0.062500
  0.000000  0.000000 -0.011537      0.062500
  0.000000  0.000000 -0.012362      0.062500
 


--------------------------------------------------------------------------------------------------------




 Dimension of arrays:
   k-points           NKPTS =     16   k-points in BZ     NKDIM =     16   number of bands    NBANDS=    896
   number of dos      NEDOS =    301   number of ions     NIONS =    364
   non local maximal  LDIM  =      4   non local SUM 2l+1 LMDIM =      8
   total plane-waves  NPLWV = ******
   max r-space proj   IRMAX =      1   max aug-charges    IRDMAX=   3893
   dimension x,y,z NGX =   216 NGY =  140 NGZ =  270
   dimension x,y,z NGXF=   432 NGYF=  280 NGZF=  540
   support grid    NGXF=   432 NGYF=  280 NGZF=  540
   ions per type =             364
   NGX,Y,Z   is equivalent  to a cutoff of  11.09, 11.68, 11.10 a.u.
   NGXF,Y,Z  is equivalent  to a cutoff of  22.19, 23.37, 22.19 a.u.

 SYSTEM =  03_BS                                   
 POSCAR =   C                                      

 Startparameter for this run:
   NWRITE =      2    write-flag & timer
   PREC   = accura    normal or accurate (medium, high low for compatibility)
   ISTART =      1    job   : 0-new  1-cont  2-samecut
   ICHARG =     11    charge: 1-file 2-atom 10-const
   ISPIN  =      1    spin polarized calculation?
   LNONCOLLINEAR =      F non collinear calculations
   LSORBIT =      F    spin-orbit coupling
   INIWAV =      1    electr: 0-lowe 1-rand  2-diag
   LASPH  =      F    aspherical Exc in radial PAW
 Electronic Relaxation 1
   ENCUT  =  400.0 eV  29.40 Ry    5.42 a.u.  52.79 32.49 65.96*2*pi/ulx,y,z
   ENINI  =  400.0     initial cutoff
   ENAUG  =  644.9 eV  augmentation charge cutoff
   NELM   =     60;   NELMIN=  5; NELMDL=  0     # of ELM steps 
   EDIFF  = 0.1E-05   stopping-criterion for ELM
   LREAL  =      F    real-space projection
   NLSPLINE    = F    spline interpolate recip. space projectors
   LCOMPAT=      F    compatible to vasp.4.4
   GGA_COMPAT  = T    GGA compatible to vasp.4.4-vasp.4.6
   LMAXPAW     = -100 max onsite density
   LMAXMIX     =    2 max onsite mixed and CHGCAR
   VOSKOWN=      0    Vosko Wilk Nusair interpolation
   ROPT   =    0.00000
 Ionic relaxation
   EDIFFG = 0.1E-04   stopping-criterion for IOM
   NSW    =      0    number of steps for IOM
   NBLOCK =      1;   KBLOCK =      1    inner block; outer block 
   IBRION =     -1    ionic relax: 0-MD 1-quasi-New 2-CG
   NFREE  =      0    steps in history (QN), initial steepest desc. (CG)
   ISIF   =      2    stress and relaxation
   IWAVPR =     10    prediction:  0-non 1-charg 2-wave 3-comb
   ISYM   =      2    0-nonsym 1-usesym 2-fastsym
   LCORR  =      T    Harris-Foulkes like correction to forces

   POTIM  = 0.5000    time-step for ionic-motion
   TEIN   =    0.0    initial temperature
   TEBEG  =    0.0;   TEEND  =   0.0 temperature during run
   SMASS  =  -3.00    Nose mass-parameter (am)
   estimated Nose-frequenzy (Omega)   =  0.10E-29 period in steps = 0.13E+47 mass=  -0.239E-25a.u.
   SCALEE = 1.0000    scale energy and forces
   NPACO  =    256;   APACO  = 10.0  distance and # of slots for P.C.
   PSTRESS=    0.0 pullay stress

  Mass of Ions in am
   POMASS =  12.01
  Ionic Valenz
   ZVAL   =   4.00
  Atomic Wigner-Seitz radii
   RWIGS  =  -1.00
  virtual crystal weights 
   VCA    =   1.00
   NELECT =    1456.0000    total number of electrons
   NUPDOWN=      -1.0000    fix difference up-down

 DOS related values:
   EMIN   =  10.00;   EMAX   =-10.00  energy-range for DOS
   EFERMI =   0.00;   METHOD = LEGACY      
   ISMEAR =     0;   SIGMA  =   0.01  broadening in eV -4-tet -1-fermi 0-gaus

 Electronic relaxation 2 (details)
   IALGO  =     38    algorithm
   LDIAG  =      T    sub-space diagonalisation (order eigenvalues)
   LSUBROT=      F    optimize rotation matrix (better conditioning)
   TURBO    =      0    0=normal 1=particle mesh
   IRESTART =      0    0=no restart 2=restart with 2 vectors
   NREBOOT  =      0    no. of reboots
   NMIN     =      0    reboot dimension
   EREF     =   0.00    reference energy to select bands
   IMIX   =      4    mixing-type and parameters
     AMIX     =   0.40;   BMIX     =  1.00
     AMIX_MAG =   1.60;   BMIX_MAG =  1.00
     AMIN     =   0.10
     WC   =   100.;   INIMIX=   1;  MIXPRE=   1;  MAXMIX= -45

 Intra band minimization:
   WEIMIN = 0.0000     energy-eigenvalue tresh-hold
   EBREAK =  0.28E-09  absolut break condition
   DEPER  =   0.30     relativ break condition  

   TIME   =   0.40     timestep for ELM

  volume/ion in A,a.u.               =      71.66       483.60
  Fermi-wavevector in a.u.,A,eV,Ry     =   0.625650  1.182307  5.325838  0.391438
  Thomas-Fermi vector in A             =   1.686629
 
 Write flags
   LWAVE        =      T    write WAVECAR
   LDOWNSAMPLE  =      F    k-point downsampling of WAVECAR
   LCHARG       =      T    write CHGCAR
   LVTOT        =      F    write LOCPOT, total local potential
   LVHAR        =      F    write LOCPOT, Hartree potential only
   LELF         =      F    write electronic localiz. function (ELF)
   LORBIT       =     11    0 simple, 1 ext, 2 COOP (PROOUT), +10 PAW based schemes


 Dipole corrections
   LMONO  =      F    monopole corrections only (constant potential shift)
   LDIPOL =      F    correct potential (dipole corrections)
   IDIPOL =      0    1-x, 2-y, 3-z, 4-all directions 
   EPSILON=  1.0000000 bulk dielectric constant

 Exchange correlation treatment:
   GGA     =    PE    GGA type
   LEXCH   =     8    internal setting for exchange type
   LIBXC   =     F    Libxc                    
   VOSKOWN =     0    Vosko Wilk Nusair interpolation
   LHFCALC =     F    Hartree Fock is set to
   LHFONE  =     F    Hartree Fock one center treatment
   AEXX    =    0.0000 exact exchange contribution

 Linear response parameters
   LEPSILON=     F    determine dielectric tensor
   LRPA    =     F    only Hartree local field effects (RPA)
   LNABLA  =     F    use nabla operator in PAW spheres
   LVEL    =     F    velocity operator in full k-point grid
   CSHIFT  =0.1000    complex shift for real part using Kramers Kronig
   OMEGAMAX=  -1.0    maximum frequency
   DEG_THRESHOLD= 0.2000000E-02 threshold for treating states as degnerate
   RTIME   =   -0.100 relaxation time in fs
  (WPLASMAI=    0.000 imaginary part of plasma frequency in eV, 0.658/RTIME)
   DFIELD  = 0.0000000 0.0000000 0.0000000 field for delta impulse in time
 
  Optional k-point grid parameters
   LKPOINTS_OPT  =     F    use optional k-point grid
   KPOINTS_OPT_MODE=     1    mode for optional k-point grid
 
 Orbital magnetization related:
   ORBITALMAG=     F  switch on orbital magnetization
   LCHIMAG   =     F  perturbation theory with respect to B field
   DQ        =  0.001000  dq finite difference perturbation B field
   LLRAUG    =     F  two centre corrections for induced B field
   LBONE     =     F  B-component reconstruction in AE one-centre
   LVGVCALC  =     T  calculate vGv susceptibility
   LVGVAPPL  =     F  apply vGv susceptibility instead of pGv for G=0

 Random number generation:
   RANDOM_GENERATOR = DEFAULT
   PCG_SEED         = not used


--------------------------------------------------------------------------------------------------------


 Static calculation
 charge density and potential remain constant during run
 non-spin polarized calculation
 Variant of blocked Davidson
 Davidson routine will perform the subspace rotation
 perform sub-space diagonalisation
    after iterative eigenvector-optimisation
 no mixing
 using additional bands           168
 reciprocal scheme for non local part
 calculate Harris-corrections to forces 
   (improved forces if not selfconsistent)
 use gradient corrections 
 WARNING: stress and forces are not correct
  (second derivative of E(xc) not defined)
 use of overlap-Matrix (Vanderbilt PP)
 Gauss-broadening in eV      SIGMA  =   0.01


--------------------------------------------------------------------------------------------------------


  energy-cutoff  :      400.00
  volume of cell :    26085.03
      direct lattice vectors                 reciprocal lattice vectors
    32.372299194  0.000000000  0.000000000     0.030890608  0.000000000  0.000000000
     0.000000000 19.921413422  0.000000000     0.000000000  0.050197241  0.000000000
     0.000000000  0.000000000 40.448047638     0.000000000  0.000000000  0.024723072

  length of vectors
    32.372299194 19.921413422 40.448047638     0.030890608  0.050197241  0.024723072


 
 old parameters found on file WAVECAR:
  energy-cutoff  :      400.00
  volume of cell :    26085.03
      direct lattice vectors                 reciprocal lattice vectors
    32.372299194  0.000000000  0.000000000     0.030890608  0.000000000  0.000000000
     0.000000000 19.921413422  0.000000000     0.000000000  0.050197241  0.000000000
     0.000000000  0.000000000 40.448047638     0.000000000  0.000000000  0.024723072

  length of vectors

 
 k-points in units of 2pi/SCALE and weight: KPOINTS created by Atomic Simulation Env
   0.00000000  0.00000000  0.00000000       0.063
   0.00000000  0.00000000 -0.00082409       0.063
   0.00000000  0.00000000 -0.00164821       0.063
   0.00000000  0.00000000 -0.00247231       0.063
   0.00000000  0.00000000 -0.00329640       0.063
   0.00000000  0.00000000 -0.00412052       0.063
   0.00000000  0.00000000 -0.00494461       0.063
   0.00000000  0.00000000 -0.00576871       0.063
   0.00000000  0.00000000 -0.00659283       0.063
   0.00000000  0.00000000 -0.00741692       0.063
   0.00000000  0.00000000 -0.00824102       0.063
   0.00000000  0.00000000 -0.00906513       0.063
   0.00000000  0.00000000 -0.00988923       0.063
   0.00000000  0.00000000 -0.01071332       0.063
   0.00000000  0.00000000 -0.01153744       0.063
   0.00000000  0.00000000 -0.01236154       0.063
 
 k-points in reciprocal lattice and weights: KPOINTS created by Atomic Simulation Env
   0.00000000  0.00000000  0.00000000       0.063
   0.00000000  0.00000000 -0.03333300       0.063
   0.00000000  0.00000000 -0.06666700       0.063
   0.00000000  0.00000000 -0.10000000       0.063
   0.00000000  0.00000000 -0.13333300       0.063
   0.00000000  0.00000000 -0.16666700       0.063
   0.00000000  0.00000000 -0.20000000       0.063
   0.00000000  0.00000000 -0.23333300       0.063
   0.00000000  0.00000000 -0.26666700       0.063
   0.00000000  0.00000000 -0.30000000       0.063
   0.00000000  0.00000000 -0.33333300       0.063
   0.00000000  0.00000000 -0.36666700       0.063
   0.00000000  0.00000000 -0.40000000       0.063
   0.00000000  0.00000000 -0.43333300       0.063
   0.00000000  0.00000000 -0.46666700       0.063
   0.00000000  0.00000000 -0.50000000       0.063
 
 position of ions in fractional coordinates (direct lattice) 
   0.37099337  0.53835823  0.00246250
   0.36883036  0.54387566  0.06285523
   0.33809139  0.59504853  0.06105578
   0.32051338  0.61146648  0.02992273
   0.27782898  0.62883698  0.02811305
   0.36654373  0.54926848  0.12325358
   0.33473693  0.59868557  0.12145470
   0.31682251  0.61410536  0.09031881
   0.27379255  0.62905915  0.08850400
   0.25356278  0.62691782  0.05737182
   0.21210640  0.60295017  0.05556567
   0.19558176  0.58386942  0.02442978
   0.16802310  0.52812153  0.02262233
   0.36412859  0.55452669  0.18366607
   0.33129338  0.60212875  0.18186531
   0.31307404  0.61653213  0.15072202
   0.26975336  0.62906461  0.14890480
   0.24958638  0.62578377  0.11776692
   0.20866498  0.59950571  0.11596405
   0.19255432  0.57951894  0.08482475
   0.16619589  0.52226362  0.08301389
   0.15893326  0.49151247  0.05187963
   0.15498405  0.42029303  0.05006756
   0.15874180  0.38791948  0.01893292
   0.17838199  0.32392748  0.01712920
   0.36160551  0.55964964  0.24409529
   0.32777966  0.60537973  0.24228996
   0.30926716  0.61875248  0.21113915
   0.26570951  0.62885598  0.20932001
   0.24562999  0.62444458  0.17817280
   0.20529123  0.59588575  0.17637185
   0.18961759  0.57500889  0.14522840
   0.16449027  0.51630906  0.14341328
   0.15789262  0.48516731  0.11227457
   0.15545636  0.41377124  0.11046597
   0.15989926  0.38163211  0.07932566
   0.18088045  0.31877837  0.07751864
   0.19503893  0.29520109  0.04638651
   0.23319506  0.25958106  0.04456859
   0.25286477  0.25158429  0.01343707
   0.29684693  0.25380734  0.01163428
   0.37098565  0.53813677  0.33571240
   0.35897671  0.56463789  0.30454383
   0.32420462  0.60845068  0.30273184
   0.30541996  0.62076395  0.27157295
   0.26167365  0.62842314  0.26975432
   0.24170283  0.62288965  0.23859794
   0.20199291  0.59209184  0.23679530
   0.18678174  0.57033608  0.20564568
   0.16292540  0.51025763  0.20382640
   0.15699271  0.47876763  0.17268219
   0.15607480  0.40728099  0.17087606
   0.16118670  0.37541365  0.13973091
   0.18349047  0.31377580  0.13791755
   0.19814371  0.29101427  0.10678107
   0.23703359  0.25756545  0.10496492
   0.25685905  0.25067330  0.07382957
   0.30076706  0.25536688  0.07202531
   0.31986678  0.26640928  0.04089406
   0.35572930  0.30784153  0.03907500
   0.36842771  0.33352850  0.00794432
   0.38559384  0.39936610  0.00614301
   0.36881958  0.54367153  0.39618545
   0.35624764  0.56947397  0.36501069
   0.32057047  0.61131634  0.36319266
   0.30153956  0.62257235  0.33202566
   0.25765795  0.62777063  0.33021074
   0.23781889  0.62111300  0.29904444
   0.19878829  0.58810813  0.29723794
   0.18404292  0.56552653  0.26608043
   0.16148198  0.50413974  0.26425983
   0.15622673  0.47233524  0.23310705
   0.15683561  0.40084199  0.23130228
   0.16262174  0.36928244  0.20015173
   0.18621821  0.30893259  0.19833297
   0.20133463  0.28700514  0.16718789
   0.24090850  0.25575357  0.16537562
   0.26086637  0.24998430  0.13423261
   0.30464616  0.25713810  0.13242490
   0.32350434  0.26923790  0.10129030
   0.35846861  0.31264936  0.09947190
   0.37061351  0.33903018  0.06833767
   0.38637738  0.40578751  0.06653854
   0.38819967  0.43860484  0.03540593
   0.38004266  0.50887101  0.03359193
   0.36653722  0.54908643  0.45666775
   0.35343657  0.57417794  0.42548885
   0.31689070  0.61399536  0.42366711
   0.29762699  0.62416924  0.39249401
   0.25366083  0.62689358  0.39068343
   0.23397359  0.61913275  0.35950923
   0.19567120  0.58394555  0.35769745
   0.18142354  0.56054423  0.32653134
   0.16018178  0.49793095  0.32471270
   0.15560084  0.46586323  0.29354811
   0.15772991  0.39444756  0.29174382
   0.16418166  0.36323506  0.26058542
   0.18904510  0.30424378  0.25876398
   0.20461813  0.28317683  0.22761041
   0.24482870  0.25415014  0.22580226
   0.26488872  0.24950584  0.19464913
   0.30848940  0.25911451  0.19283842
   0.32707100  0.27227324  0.16169584
   0.36109476  0.31761681  0.15988142
   0.37267779  0.34465297  0.12873973
   0.38701068  0.41225553  0.12693933
   0.38814257  0.44514997  0.09580357
   0.37849994  0.51491706  0.09398727
   0.36414295  0.55436399  0.51715243
   0.35051205  0.57870221  0.48597387
   0.31314737  0.61645095  0.48415099
   0.29368424  0.62554036  0.45297312
   0.24968528  0.62579129  0.45116743
   0.23018263  0.61692185  0.41998873
   0.19265511  0.57959976  0.41817115
   0.17891302  0.55542214  0.38699839
   0.15900492  0.49166285  0.38518308
   0.15510929  0.45935985  0.35400969
   0.15875079  0.38810593  0.35220242
   0.16586802  0.35728485  0.32103615
   0.19196714  0.29972157  0.31921413
   0.20797253  0.27953799  0.28805061
   0.24877468  0.25277764  0.28624571
   0.26892085  0.24925675  0.25508517
   0.31229045  0.26131654  0.25326983
   0.33057625  0.27550137  0.22211661
   0.36361533  0.32272870  0.22030732
   0.37461219  0.35039284  0.18915584
   0.38749933  0.41876068  0.18735232
   0.38792962  0.45169030  0.15620954
   0.37680645  0.52087066  0.15439389
   0.36164807  0.55951114  0.57763514
   0.34751130  0.58307711  0.54645950
   0.30936477  0.61870602  0.54463932
   0.28971509  0.62669007  0.51346015
   0.24573911  0.62446468  0.51165501
   0.22643280  0.61451008  0.48047579
   0.18971768  0.57510736  0.47865449
   0.17650458  0.55016790  0.44747712
   0.15796358  0.48533171  0.44566625
   0.15475905  0.45283235  0.41448681
   0.15991728  0.38182820  0.41267424
   0.16767427  0.35142371  0.38150160
   0.19498280  0.29536383  0.37968170
   0.21140436  0.27609673  0.34850943
   0.25274719  0.25163955  0.34670447
   0.27295260  0.24924715  0.31553704
   0.31603847  0.26373079  0.31371768
   0.33401047  0.27893187  0.28255658
   0.36602547  0.32798625  0.28075118
   0.37642382  0.35624253  0.24959003
   0.38784721  0.42529189  0.24778154
   0.38757808  0.45821538  0.21662927
   0.37499068  0.52673022  0.21481542
   0.35904138  0.56451702  0.63810979
   0.34440594  0.58726508  0.60693902
   0.30552372  0.62072316  0.60512421
   0.28572159  0.62761042  0.57394596
   0.24181974  0.62291567  0.57213980
   0.22274259  0.61187828  0.54096258
   0.18688612  0.57044368  0.53913988
   0.17420520  0.54478161  0.50796178
   0.15705199  0.47894528  0.50615464
   0.15453969  0.44628883  0.47497342
   0.16119778  0.37561608  0.47315565
   0.16960773  0.34567477  0.44197965
   0.19808705  0.29117637  0.44016357
   0.21490750  0.27284360  0.40898453
   0.25674462  0.25071946  0.40717644
   0.27698414  0.24946375  0.37600353
   0.31973525  0.26635722  0.37418289
   0.33736773  0.28255578  0.34301331
   0.36831580  0.33337884  0.34121019
   0.37810963  0.36219625  0.31004262
   0.38805445  0.43184406  0.30822748
   0.38708432  0.46472580  0.27706656
   0.37305091  0.53248998  0.27525523
   0.35633536  0.56937897  0.69857167
   0.34121758  0.59128640  0.66740851
   0.30164735  0.62254894  0.66559960
   0.28170786  0.62830945  0.63442665
   0.23793091  0.62115603  0.63261660
   0.21909767  0.60905732  0.60144416
   0.18413616  0.56564746  0.59962396
   0.17201644  0.53928158  0.56844679
   0.15626702  0.47252582  0.56664183
   0.15445601  0.43974306  0.53546363
   0.16261074  0.36948720  0.53364217
   0.17164579  0.34002918  0.50246472
   0.20127017  0.28716700  0.50065412
   0.21846863  0.26978259  0.46947203
   0.26075063  0.25001610  0.46765989
   0.28100492  0.24989619  0.43648285
   0.32337293  0.26917251  0.43466310
   0.34064963  0.28635828  0.40348686
   0.37049593  0.33888975  0.40168361
   0.37966400  0.36823976  0.37051038
   0.38812153  0.43840058  0.36869034
   0.38645165  0.47120442  0.33752177
   0.35353441  0.57410081  0.75901707
   0.33795143  0.59514198  0.72786159
   0.29773912  0.62416698  0.72605849
   0.27768036  0.62880363  0.69489451
   0.23408033  0.61920564  0.69308098
   0.21551198  0.60604236  0.66191549
   0.18149640  0.56069352  0.66010119
   0.16993502  0.53366719  0.62892735
   0.15561213  0.46606645  0.62712074
   0.15450155  0.43319686  0.59594791
   0.16414818  0.36344196  0.59412529
   0.17380936  0.33450887  0.56295038
   0.20453595  0.28333300  0.56114397
   0.22209733  0.26693583  0.52996376
   0.26477109  0.24954265  0.52814666
   0.28501544  0.25055678  0.49696821
   0.32694763  0.27219285  0.49515239
   0.34384923  0.29032973  0.46397086
   0.37256038  0.34450927  0.46216499
   0.38109526  0.37436112  0.43098966
   0.38805564  0.44495638  0.42916797
   0.38568957  0.47764027  0.39799234
   0.35062867  0.57865003  0.81944447
   0.33460490  0.59881430  0.78829672
   0.29379908  0.62556302  0.78649741
   0.27364848  0.62906982  0.75534438
   0.23027622  0.61702928  0.75353003
   0.21199537  0.60283886  0.72237248
   0.17896453  0.55560150  0.72056465
   0.16797989  0.52793751  0.68939827
   0.15509714  0.45957320  0.68758819
   0.15468525  0.42665811  0.65642126
   0.16581246  0.35748708  0.65460030
   0.17608286  0.32910913  0.62342943
   0.20787329  0.27967771  0.62162518
   0.22577536  0.26426772  0.59045136
   0.26879602  0.24928826  0.58863033
   0.28900896  0.25143926  0.55745540
   0.33045826  0.27541462  0.55564448
   0.34696502  0.29448046  0.52446194
   0.37450288  0.35024133  0.52265001
   0.38239535  0.38055528  0.49147334
   0.38784770  0.45150002  0.48965296
   0.38479343  0.48403650  0.45847388
   0.34763721  0.58303881  0.87985933
   0.33119221  0.60229799  0.84871817
   0.28983996  0.62673693  0.84691899
   0.26962064  0.62910825  0.81577621
   0.22653040  0.61463074  0.81396027
   0.20855115  0.59942064  0.78281300
   0.17654024  0.55036011  0.78100982
   0.16615337  0.52209345  0.74985202
   0.15472696  0.45304646  0.74803835
   0.15500772  0.42012757  0.71687930
   0.16759168  0.35161520  0.71506323
   0.17846694  0.32383485  0.68389773
   0.21129055  0.27622087  0.68209235
   0.22950950  0.26181938  0.65092647
   0.27282366  0.24926706  0.64910571
   0.29297855  0.25255091  0.61793535
   0.33389178  0.27884597  0.61612836
   0.34998639  0.29882574  0.58495153
   0.37633092  0.35609074  0.58313350
   0.38356920  0.38681989  0.55195693
   0.38751369  0.45802775  0.55014068
   0.38376068  0.49037010  0.51896034
   0.34454794  0.58723180  0.94026309
   0.32770087  0.60557055  0.90912731
   0.28585433  0.62767934  0.90732530
   0.26559352  0.62891806  0.87618987
   0.22283935  0.61202068  0.87437359
   0.20519112  0.59580645  0.84323450
   0.17423604  0.54498563  0.84143313
   0.16444197  0.51614746  0.81028774
   0.15449188  0.44649695  0.80846930
   0.15547062  0.41360557  0.77732003
   0.16949873  0.34583628  0.77550934
   0.18095445  0.31867951  0.74435097
   0.21477090  0.27293375  0.74254159
   0.23329433  0.25957574  0.71138520
   0.27685114  0.24947426  0.70956506
   0.29693073  0.25388929  0.67840224
   0.33726172  0.28246401  0.67659669
   0.35292129  0.30333590  0.64542777
   0.37804190  0.36203614  0.64360621
   0.38462841  0.39315915  0.61243555
   0.38705633  0.46454788  0.61062425
   0.38261629  0.49665648  0.57944627
   0.34136510  0.59123023  0.00066066
   0.32414445  0.60863114  0.96952707
   0.28185267  0.62838381  0.96772142
   0.26157395  0.62849616  0.93659079
   0.21920270  0.60920948  0.93477614
   0.20190726  0.59201133  0.90364181
   0.17205385  0.53947991  0.90183972
   0.16287658  0.51010688  0.87070403
   0.15440927  0.43994303  0.86888300
   0.15607911  0.40711520  0.83774340
   0.17153589  0.34017198  0.83593633
   0.18355792  0.31366190  0.80478832
   0.21833451  0.26985457  0.80297427
   0.23712653  0.25754491  0.77182577
   0.28087412  0.24990384  0.77000904
   0.30084636  0.25545323  0.73885328
   0.34054820  0.28626749  0.73704592
   0.35575967  0.30801346  0.70588806
   0.37962132  0.36808422  0.70406562
   0.38554676  0.39955627  0.67290199
   0.38646109  0.47103910  0.67109527
   0.38133911  0.50288006  0.63992510
   0.25756498  0.62782570  0.99698248
   0.21562811  0.60617818  0.99517193
   0.19870627  0.58802919  0.96403844
   0.16998416  0.53385662  0.96223398
   0.16143627  0.50398176  0.93110390
   0.15446500  0.43338252  0.92928357
   0.15683541  0.40066948  0.89814952
   0.17370521  0.33463128  0.89634601
   0.18628292  0.30880979  0.86520595
   0.22196760  0.26697748  0.86338834
   0.24101439  0.25573318  0.83224702
   0.28489800  0.25054478  0.83043576
   0.30474007  0.25721419  0.79928670
   0.34376969  0.29022549  0.79747783
   0.35850471  0.31282596  0.76632887
   0.38107583  0.37420342  0.76450936
   0.38632927  0.40600035  0.73335439
   0.38573186  0.47749418  0.73155134
   0.37993235  0.50903145  0.70038998
   0.16012207  0.49777982  0.99149238
   0.15465550  0.42682765  0.98967518
   0.15772208  0.39426162  0.95854315
   0.17598656  0.32920627  0.95674104
[...]
  171              fft3d_mpi                             0.028753                      1   6
  172                fftbrc_mpi                            0.027282                    1   7
  173                  fftbas_plan_mpi                       0.027282                  1   8
  174                    dfftw_execute                         0.009940                3   9
  175                    map_backward                          0.017267                2   9
  176                      map_gather                            0.005669              2  10
  177                      m_alltoallv_z                         0.010763              2  10
  178                      map_scatter                           0.000820              2  10
  179          depsum                                0.037596                          1   4
  180            m_alltoall_d                          0.036052                        4   5
  181          augmentation_charge                   0.081649                          1   4
  182            m_alltoall_d                          0.000068                        4   5
  183            fft3d_mpi                             0.071191                        1   5
  184              fftbrc_mpi                            0.069045                      1   6
  185                fftbas_plan_mpi                       0.069044                    1   7
  186                  dfftw_execute                         0.016303                  3   8
  187                  map_backward                          0.052697                  2   8
  188                    map_gather                            0.009155                1   9
  189                    m_alltoallv_z                         0.037712                1   9
  190                    map_scatter                           0.005819                1   9
  191        forloc                                1.208704                            1   3
  192          m_sumb_d                              0.000099                          1   4
  193        fornl                               351.929857                            1   3
  194          phase                                 2.537607                          2   4
  195          m_sumb_d                              0.010203                        450   4
  196        fordep                                0.016427                            1   3
  197          setdij_                               0.016356                          6   4
  198            m_alltoall_d                          0.001782                       12   5
  199          m_sumb_d                              0.000010                          1   4
  200        setdij_                               0.053706                           20   3
  201          m_alltoall_d                          0.005946                         40   4
  202        set_dd_magatom                        0.000000                            1   3
  203        set_dd_paw                            0.001558                            1   3
  204          set_rsgf_all                          0.000000                          1   4
  205          m_alltoall_d                          0.000511                          4   4
  206          m_sumb_d                              0.000433                          6   4
  207        strkin                                0.148230                            1   3
  208          m_sumb_d                              0.000024                          1   4
  209        strelo                                0.045023                            1   3
  210          m_sumb_d                              0.000804                          2   4
  211        strenl                              838.782472                            1   3
  212          spher                                 7.440643                         19   4
  213          phase                                22.841728                         18   4
  214          proj1                               585.686546                       1008   4
  215            crexp_mul_wave                      231.634979                   366912   5
  216            m_sumb_d                              0.051913                     1008   5
  217          m_sumb_d                            222.783551                          1   4
  218        m_sumb_d                              0.000007                            1   3
  219        chggra                                0.192425                            1   3
  220          fft3d_mpi                             0.138951                          3   4
  221            fftbrc_mpi                            0.135902                        3   5
  222              fftbas_plan_mpi                       0.135901                      3   6
  223                dfftw_execute                         0.044889                    9   7
  224                map_backward                          0.024195                    2   7
  225                  map_gather                            0.007677                  1   8
  226                  m_alltoallv_z                         0.010010                  1   8
  227                  map_scatter                           0.006497                  1   8
  228                map_forward                           0.066713                    4   7
  229                  map_gather                            0.013298                  2   8
  230                  m_alltoallv_z                         0.036479                  2   8
  231                  map_scatter                           0.016910                  2   8
  232          m_sumb_d                              0.000015                          2   4
  233          pothar                                0.013116                          1   4
  234            m_sumb_d                              0.000984                        1   5
  235        forhar                                1.214053                            1   3
  236          m_sumb_d                              0.000052                          1   4
  237        m_bcast_d                             0.188978                            2   3
  238      potlok                                1.053186                              1   2
  239        fft3d_mpi                             0.529020                           13   3
  240          fftbrc_mpi                            0.510653                         13   4
  241            fftbas_plan_mpi                       0.510640                       13   5
  242              dfftw_execute                         0.194585                     39   6
  243              map_forward                           0.190001                     14   6
  244                map_gather                            0.029950                    8   7
  245                m_alltoallv_z                         0.106456                    8   7
  246                map_scatter                           0.053515                    8   7
  247              map_backward                          0.125711                     12   6
  248                map_gather                            0.041117                    6   7
  249                m_alltoallv_z                         0.049129                    6   7
  250                map_scatter                           0.035401                    6   7
  251        ggaall_grid                           0.361270                            1   3
  252        m_sumb_d                              0.000236                            5   3
  253        pothar                                0.012243                            1   3
  254          m_sumb_d                              0.000273                          1   4
  255        m_bcast_d                             0.006502                            1   3
  256      potlok_metagga                        0.000001                              1   2
  257      set_dd_magatom                        0.000000                              1   2
  258      set_dd_paw                            0.023065                              1   2
  259        set_rsgf_all                          0.000000                            1   3
  260        m_alltoall_d                          0.022010                            4   3
  261        m_sumb_d                              0.000433                            6   3
  262      m_alltoall_d                        116.829788                         339058   2
  263      densta                                0.078922                              1   2
  264        m_sumb_d                              0.010763                           10   3
  265        m_alltoall_d                          0.044851                           52   3
 
 Flat profile
 ============
 
             routine name                   CPU           calls
 ---------------------------------------------------------------
 m_alltoall_d                          985.875238      357701
 proj1                                 967.687176        2445
 gemm                                  788.214231      726908
 eddav                                 663.677238           6
 crexp_mul_wave                        576.646571      889980
 work_mul_crexp                        541.304828      726908
 fornl                                 349.382047           1
 total_time                            337.825219           1
 m_bcast_z                             284.105982       31576
 m_sumb_d                              227.883138       26758
 dfftw_execute                         209.240489       12360
 orth1                                  97.939277        6047
 ggemm                                  83.534514        2669
 phase                                  43.295545          35
 vhamil                                 37.903712        1997
 lincom                                 28.157652          14
 m_alltoallv_z                          26.658745        4123
 map_gather                             19.033676        4123
 fftext_mpi                             18.109900        1997
 map_scatter                            14.869532        4123
 fftwav_mpi                             11.558068        2089
 map_forward                             8.586642        4214
 spher                                   7.874432          20
 sphpro_fast                             6.253437           2
 redis_pw                                5.396245        5347
 eccp                                    5.369348         672
 w1_copy                                 2.823652        5991
 stufak                                  2.256643           2
 force_and_stress                        2.141326           1
 vnlac0                                  2.007010        1997
 pdssyex_zheevx                          1.536217          12
 kinhamil                                1.485557        1997
 forhar                                  1.214001           1
 forloc                                  1.208605           1
 lapack                                  0.870218        1997
 pw_charge                               0.862299          92
 apply_precond                           0.850029        1325
 setup_precond                           0.758961         672
 ggaall_grid                             0.700495           2
 m_bcast_d                               0.517309        4543
 hamiltmu                                0.424803        1997
 potlok                                  0.296245           2
 inisym                                  0.249309           1
 fftbas_plan_mpi                         0.161485        4120
 strkin                                  0.148206           1
 choleski                                0.118010           2
 setdij_                                 0.070093          29
 overl                                   0.069308        3324
 overl1                                  0.063248        1997
 fft3d_mpi                               0.057630        4120
 elmin                                   0.055200           1
 soft_charge                             0.049582           1
 strelo                                  0.044219           1
 redis_proj                              0.041087        6674
 chggra                                  0.040343           1
 pothar                                  0.036264           3
 strenl                                  0.030004           1
 map_backward                            0.028324        4026
 densta                                  0.024116           7
 orthch                                  0.017521           1
 augmentation_charge                     0.010390           1
 newband                                 0.009087        2009
 w1_projall                              0.008776        1325
 rsp                                     0.004414           1
 fftbas_mpi                              0.004104        4086
 set_dd_paw                              0.001975           3
 fft_gq                                  0.001673           1
 depsum                                  0.001544           1
 set_charge                              0.001412           1
 fewald                                  0.001367           1
 truncate_high_frequency_w1              0.000771        2669
 proj                                    0.000594           2
 rcp                                     0.000296           1
 posmap                                  0.000161           2
 fordep                                  0.000061           1
 crpa_reader                             0.000027           1
 fftbrc_mpi                              0.000026          34
 proall                                  0.000016           1
 FERMAT_RAZOR                            0.000012           1
 set_rsgf_all                            0.000004           3
 potlok_metagga                          0.000002           2
 rotate_active_occupied_orbital          0.000001           1
 vectorpot                               0.000000           2
 redis_pw_over_bands                     0.000000           1
 set_dd_magatom                          0.000000           3
 ---------------------------------------------------------------
  summed up times     6367.686913967133     
 
 Accumulative profile
 ====================
 
             routine name                   CPU           calls
 ---------------------------------------------------------------
 total_time                           6367.686914           1
 elmin                                4312.275250           1
 eddav                                4310.878429           6
 proj1                                1544.468196        2445
 hamiltmu                             1528.447223        1997
 vnlac0                               1331.621473        1997
 force_and_stress                     1202.734842           1
 m_alltoall_d                          985.875238      357701
 w1_projall                            868.116050        1325
 strenl                                838.782472           1
 gemm                                  788.214231      726908
 redis_proj                            599.366938        6674
 crexp_mul_wave                        576.646571      889980
 work_mul_crexp                        541.304828      726908
 fornl                                 351.929857           1
 m_bcast_z                             284.105982       31576
 fft3d_mpi                             278.640652        4120
 fftbas_plan_mpi                       278.578893        4120
 fftbas_mpi                            277.191091        4086
 redis_pw                              257.260100        5347
 m_sumb_d                              227.883138       26758
 dfftw_execute                         209.240489       12360
 kinhamil                              158.433987        1997
 fftext_mpi                            156.948430        1997
 fftwav_mpi                            149.919834        2089
 orth1                                  97.939277        6047
 proall                                 93.305798           1
 proj                                   90.674970           2
 ggemm                                  83.534514        2669
 newband                                54.741363        2009
 map_forward                            45.861564        4214
 phase                                  43.295545          35
 vhamil                                 37.903712        1997
 lincom                                 28.157652          14
 m_alltoallv_z                          26.658745        4123
 map_backward                           23.315355        4026
 map_gather                             19.033676        4123
 map_scatter                            14.869532        4123
 spher                                   7.874432          20
 orthch                                  7.355501           1
 sphpro_fast                             7.160197           2
 set_charge                              6.812076           1
 soft_charge                             6.691419           1
 eccp                                    5.374180         672
 w1_copy                                 2.823652        5991
 stufak                                  2.256643           2
 potlok                                  2.162597           2
 pdssyex_zheevx                          1.536229          12
 fftbrc_mpi                              1.391932          34
 forhar                                  1.214053           1
 forloc                                  1.208704           1
 lapack                                  0.870218        1997
 pw_charge                               0.862299          92
 apply_precond                           0.850029        1325
 setup_precond                           0.761351         672
 fewald                                  0.747996           1
 ggaall_grid                             0.700495           2
 m_bcast_d                               0.517309        4543
 inisym                                  0.249470           1
 chggra                                  0.192425           1
 strkin                                  0.148230           1
 densta                                  0.132296           7
 choleski                                0.118010           2
 setdij_                                 0.108837          29
 augmentation_charge                     0.081649           1
 set_dd_paw                              0.069380           3
 overl                                   0.069308        3324
 overl1                                  0.063248        1997
 strelo                                  0.045023           1
 pothar                                  0.038062           3
 depsum                                  0.037596           1
 fft_gq                                  0.030426           1
 fordep                                  0.016427           1
 rsp                                     0.004414           1
 truncate_high_frequency_w1              0.000771        2669
 rcp                                     0.000296           1
 posmap                                  0.000161           2
 crpa_reader                             0.000027           1
 FERMAT_RAZOR                            0.000012           1
 set_rsgf_all                            0.000004           3
 potlok_metagga                          0.000002           2
 rotate_active_occupied_orbital          0.000001           1
 vectorpot                               0.000000           2
 redis_pw_over_bands                     0.000000           1
 set_dd_magatom                          0.000000           3
 ---------------------------------------------------------------
 
Profiling took   1.317239  0.510139  0.004022  0.003997 seconds
Profiling took   1.132613 seconds
