72
Lattice="12.406826193392364 -4.3774780198e-06 -4.2960300678e-06 -4.4172117962e-06 12.519439147035646 2.629202841e-07 -4.9385402866e-06 2.995236588e-07 11.079551312901373" Properties=species:S:1:pos:R:3:forces:R:3:magmoms:R:1 energy=-300.7906063 stress="0.007885803041921408 0.0013971655502514246 -0.0001810837058994988 0.0013971655502514246 -0.0045437303138058625 -0.0003696836555412056 -0.0001810837058994988 -0.0003696836555412056 -0.01019830834370892" dipole="_JSON [[0.0, 0.0, 0.0]]" magmom=0.0018904 free_energy=-300.7906063 pbc="T T T"
Ge       0.69051095       0.51303864       1.47685288       0.11039221       0.10914646      -0.17703499       0.00000000
Ge       2.81794085      10.92827121       4.09097143      -0.05866982       0.48510501      -0.24261686       0.00000000
Ge       7.00071161       2.68774637       4.21757294      -0.01068290       0.36140365       0.27948948       0.00000000
Ge       6.84695215       6.99637602       4.09572909       0.28657513      -0.35913653      -0.20065313       0.00000000
Ge       7.00749441      11.07974975       4.11838515       0.01140246       0.30610451       0.00334488       0.00000000
Ge      11.21782959       2.65558518       4.08355771      -0.60264774      -0.09327662      -0.53150194      -0.00000000
Ge      11.14868765       7.05261415       4.41508753      -0.41417894      -0.38381244      -0.18957596       0.00000000
Ge      11.08650472      10.98268340       4.04105338       0.06057025       0.11257151      -0.23690527       0.00000000
Ge       0.80358164       1.88541403       6.97197709       0.40885655       0.22045428       0.10999468       0.00000000
Ge       0.85343007       5.99264390       6.85973284       0.36134614       0.13842036       0.32886385       0.00000000
Ge       1.07507221      10.00923586       6.89989447      -0.54083825       0.80204658      -0.16628960       0.00000000
Ge       4.90639749       1.88176207       7.11717333      -0.05036078      -0.37565096      -0.15366649       0.00000000
Ge       5.06911237       5.98051908       6.70705817       0.04162475      -0.12025554       0.18389554       0.00000000
Ge       5.04510402      10.18237106       6.75314585       0.13915724      -0.12174192       0.49232022       0.00000000
Ge       9.17587370       1.97735460       7.04911570      -0.34994526      -0.39477247       0.31368432      -0.00000000
Ge       9.08188630       5.89480802       7.03206543      -0.08357907       0.52589548      -0.48028324       0.00000000
Ge       2.83260873       6.98941314       4.27390031       0.10523866      -0.17571473      -0.49100448       0.00000000
Ge       2.88803749       2.74906711       4.27840650       0.07133245      -0.03722048      -0.36108203       0.00000000
Ge       8.97702731      10.36228240       6.88226780       0.07522697      -0.29070718       0.56889303      -0.00000000
Ge      11.28935411       7.98685876       9.69859606      -0.16496956       0.30458425      -0.38509436       0.00000000
Ge      11.28053221      12.22903430       9.42559472       0.10276240      -0.18506935       1.01955987       0.00000000
Ge       0.85388485       4.78883393       1.47911130       0.23814254      -0.02400477      -0.09572960       0.00000000
Ge       0.61123487       8.68283764       1.48551006      -0.26288084      -0.11196350       0.21228949       0.00000000
Ge       4.66179879       0.55404091       1.60379860       0.27904696      -0.33976587      -0.11427380       0.00000000
Ge       4.79080031       4.78453181       1.38996447       0.37875582      -0.06864089      -0.86722533       0.00000000
Ge       9.01696119       0.57047741       1.60668619       0.29829346       0.08828087      -0.26603891       0.00000000
Ge       8.71638785       4.45397199       1.40006439       0.23813504       0.23104325       0.08595802       0.00000000
Ge       4.96343637       9.05769866       1.31391263      -0.06398590       0.08026277      -0.07177516       0.00000000
Ge       3.04310903       3.70254291       9.54240915      -0.35322315       0.51017847       0.39058635       0.00000000
Ge       2.96866353       7.89436654       9.58912972       0.31370709       0.44597749       0.16479319       0.00000000
Ge       2.79792352      12.22389366       9.69253889       0.11231579      -0.14674983      -0.55605573       0.00000000
Ge       7.18770933       3.93786963       9.50895918      -0.34429759      -0.07753714       0.67810606       0.00000000
Ge       6.97076096       8.25796578       9.69183406      -0.00050914      -0.42682586      -0.10923231       0.00000000
Ge       6.96438418      12.29012936       9.70367916      -0.01813499      -0.22275540      -0.41402691      -0.00000000
Ge      11.06827244       3.99749574       9.51622724       0.25383926       0.05334552       1.29003666       0.00000000
Ge       8.97735402       8.99823763       1.37241002      -0.20099816      -0.23202281       0.19407183       0.00000000
Se      11.21968634       0.32884165       7.08039573      -0.29449814      -0.56910607      -0.85022897      -0.00000000
Se       3.07379222       4.28810901       7.01767725      -0.32551880       0.07382622      -0.12614912      -0.00000000
Se       2.98101656       8.40248894       7.05668622       0.50909747      -0.41975624      -0.16337120      -0.00000000
Se       6.97770137       0.12477786       7.11366873       0.34949151       0.26396932       0.21605581      -0.00000000
Se       7.09490831       4.09568477       7.04647447      -0.01825132       0.45989602      -0.34480100      -0.00000000
Se       7.13948811       8.43458061       7.18086639      -0.12503049       0.53764054      -0.38159257      -0.00000000
Se      11.24196431       4.43306129       7.13601102      -0.23377792      -0.60641441      -1.11909785      -0.00000000
Se       9.14377508       0.30444789       4.10296811      -0.10889703      -0.41126290       0.06080801      -0.00000000
Se       0.78822663       0.18193959       3.98286537      -0.02922281      -0.30781097       0.01587710      -0.00000000
Se       0.75723111       4.24092590       3.98176517       0.70818105       0.59955855       0.14717260      -0.00000000
Se       0.80100354       8.65622716       4.12676303       0.39225751       0.28203699      -0.56696655      -0.00000000
Se       4.97866928       0.28044078       4.12180672       0.05452535      -0.14484372       0.01250961      -0.00000000
Se       4.98487684       4.51109497       3.79122313      -0.07421647      -0.60817022       1.16190188      -0.00000000
Se       4.84231189       8.65127486       3.85766790       0.25258788       0.03658039       0.22387200      -0.00000000
Se       2.80800810       0.16258335       7.03570396       0.23027796       0.11133328       0.52569798      -0.00000000
Se      11.20727176       8.71971600       7.14270128      -0.08788588      -0.55115148       0.15250907      -0.00000000
Se      11.05491910      10.50616613       1.41143183       0.37175554       0.34164201       0.53061532      -0.00000000
Se       2.79414356       2.22431954       1.66085647      -0.25695657       0.24038667       0.11223622      -0.00000000
Se      11.15537695       2.24845082       1.43057110       0.03815427      -0.02083870       0.73979085      -0.00000000
Se       9.29380676       4.51818174       3.88311213      -0.20164321      -0.39126940       0.26738249      -0.00000000
Se       0.74545583       2.31522659       9.51311338       0.43964710      -0.25475999      -0.16523856      -0.00000000
Se       0.91531895       6.37801437       9.45226901      -0.21210262      -0.44373003      -0.26443221      -0.00000000
Se       1.00164570      10.37664232       9.38913838      -0.29184301       0.39027427       0.40865099      -0.00000000
Se       5.02237106       2.07641134       9.63689519       0.25066715       0.17511575      -0.05803740      -0.00000000
Se       5.11137803       6.35093003       9.21428501      -0.00094836       0.12088198       0.47806751      -0.00000000
Se       4.88531176      10.54047595       9.34562581       0.32654997       0.17288613       0.06280285      -0.00000000
Se       9.15307543       2.18703701       9.68392979      -0.09562836       0.01208154      -0.74686453      -0.00000000
Se       9.21910409       6.36774090       9.48474369      -0.35232457       0.14218497       0.47085931      -0.00000000
Se       9.11777098      10.64500055       9.49242800      -0.09168966       0.05845949      -0.42928686      -0.00000000
Se       2.99765247       6.54273046       1.57463941      -0.64124901       0.10298764       0.34037304      -0.00000000
Se       3.06400101      10.81905450       1.49394005      -0.14858394      -0.15638048       0.21158529      -0.00000000
Se       7.15169555       2.36108934       1.79372346      -0.28943881      -0.08735193      -0.83231414      -0.00000000
Se       6.99691270       6.41545759       1.54251907      -0.24316837       0.00108006       0.12933425      -0.00000000
Se       7.00598720      10.78375154       1.56768367       0.11134214      -0.23757710      -0.01821944      -0.00000000
Se      11.44211535       6.48467751       1.84067714      -0.35657192       0.59165041      -0.25424042      -0.00000000
Se       9.02954437       8.63508489       3.97516552       0.07809329      -0.09124476      -0.15308270      -0.00000000
