72
Lattice="12.413391326817928 -4.3797943839e-06 -4.2983033333e-06 -4.4160022717e-06 12.516011064004545 2.62848291e-07 -4.9363405247e-06 2.993902427e-07 11.074616175496143" Properties=species:S:1:pos:R:3:forces:R:3:magmoms:R:1 energy=-300.57292467 stress="0.007676680167670064 -0.0016922896607030557 0.0004063497816332635 -0.0016922896607030557 -0.004567397373671627 0.0013414649871290895 0.0004063497816332635 0.0013414649871290895 -0.008607409021555984" dipole="_JSON [[0.0, 0.0, 0.0]]" magmom=0.0018537 free_energy=-300.57292467 pbc="T T T"
Ge       0.78826752       0.51646950       1.44740262      -0.21319735       0.17887140      -0.24480950      -0.00000000
Ge       2.74042489      10.87568320       3.91380974       0.10740899      -0.09378526       0.08975696       0.00000000
Ge       7.13330067       2.73575054       4.18419909      -0.71424149      -0.66832999      -0.33624318       0.00000000
Ge       7.03169500       6.59671793       3.94557577      -0.33334413       0.12820338      -0.36944020       0.00000000
Ge       7.05983348      11.11203092       4.22074976      -0.27265751       0.31368650      -0.45184896       0.00000000
Ge      11.05582636       2.72592820       3.97500237       0.63921347      -0.10758893       0.30690164       0.00000000
Ge      10.91768676       6.72950090       4.13217794       0.34580085      -0.01770199      -0.13828815       0.00000000
Ge      11.19702608      11.02410183       4.10699786      -0.23713991       0.01196493      -0.19962406       0.00000000
Ge       0.77728121       1.82728063       6.93134057      -0.00604077       0.00212423       0.15494388       0.00000000
Ge       0.82183939       5.88668228       6.83788088      -0.04073869       0.01176697      -0.31845794       0.00000000
Ge       0.93546866      10.19751507       6.80307479       0.05241452      -0.21364827       0.31944891       0.00000000
Ge       5.05268815       1.84383720       7.09175430       0.03711064       0.50329384       0.01686791       0.00000000
Ge       5.14530674       5.91881243       6.99636281      -0.71087520       0.41857977       0.42852152       0.00000000
Ge       4.99646801      10.27192591       6.97822443      -0.31151159      -0.43110782       0.27589581       0.00000000
Ge       9.10319092       1.90137049       7.02753332       0.62800224       0.15024411      -0.39116776       0.00000000
Ge       9.16410466       6.26721982       6.91972410       0.17162913      -0.35412240       0.07286899       0.00000000
Ge       3.11162861       7.05119799       4.18194545      -0.16469839      -0.29623721       0.21541111       0.00000000
Ge       2.84006752       2.74532565       4.10831100       0.02657906       0.10861267      -0.18023896      -0.00000000
Ge       9.08201701      10.38348303       7.11018434       0.16952083      -0.27892091       0.20383518       0.00000000
Ge      11.00304851       8.23593523       9.75195916       0.23053845       0.05852683      -0.27621986       0.00000000
Ge      11.30656629      12.21889680       9.61475715      -0.17684637       0.22787317      -0.46680860       0.00000000
Ge       0.84298918       5.13147508       1.38885370      -0.25543824      -0.58578123       0.16272033      -0.00000000
Ge       0.59122438       8.73587890       1.55492736       0.00907231       0.23416924      -0.18475697       0.00000000
Ge       4.59746064       0.40955059       1.56472648       0.24421359       0.01871614       0.10957010      -0.00000000
Ge       4.80093395       4.75299185       1.25934315      -0.05226284      -0.11641024       0.38291383      -0.00000000
Ge       9.06884533       0.43557018       1.41602847      -0.17516904       0.25098164      -0.21560491       0.00000000
Ge       8.76212434       4.28080612       1.37092954      -0.24046300      -0.00466268      -0.44638138       0.00000000
Ge       4.94998975       9.04179922       1.39693668       0.18285460      -0.39318929      -0.43293264      -0.00000000
Ge       2.66919453       3.95079113       9.72576969       0.25697702       0.08965498      -0.04528699      -0.00000000
Ge       2.75300800       8.01067268       9.63185510       0.27945523       0.00043820      -0.19038915      -0.00000000
Ge       2.99421088      12.46757341       9.61804140      -0.15470194      -0.19670439       0.58149712      -0.00000000
Ge       7.15994941       3.86950724       9.74513366       0.05738656       0.06203137      -0.35032877       0.00000000
Ge       6.96822470       8.10910466       9.55255849      -0.17975042       0.15222361       0.28703220       0.00000000
Ge       6.82482869      12.14987046       9.69593400       0.61517150       0.78678335       0.66239179       0.00000000
Ge      11.15939243       4.07781810       9.75758148      -0.01789728      -0.55279330      -0.79810481       0.00000000
Ge       9.08418422       8.83188438       1.57776409       0.11536041       0.15220814      -0.78973565       0.00000000
Se      11.25878360      -0.05064004       6.92149826      -0.20621076       0.67842479       0.61204891      -0.00000000
Se       2.91663435       4.29695251       7.22797470       0.14160533      -0.12729260      -0.34408795      -0.00000000
Se       3.09277720       8.34082820       7.08284655      -0.19959620       0.72341591       0.04775162      -0.00000000
Se       7.19835860       0.28619509       7.26333276      -0.58560317      -0.77627710      -0.52259619      -0.00000000
Se       7.23976521       4.51087899       7.13247288       0.13093262      -0.62471473       0.16846774      -0.00000000
Se       7.01874676       8.52809569       7.05612199       0.14303662       0.01247768      -0.03536148      -0.00000000
Se      11.16143767       4.19081306       6.90798781       0.20704067       0.47675833       0.87205752      -0.00000000
Se       9.11607845       0.28622578       3.91876136       0.15233896      -0.26339939       0.37397083      -0.00000000
Se       0.81238475       0.10541296       3.93083320       0.03052527       0.28125013       0.26653149      -0.00000000
Se       0.90528811       4.53785250       3.90050226      -0.30039805      -0.42046986      -0.11424435      -0.00000000
Se       1.01700099       8.66871525       4.06063941      -0.25087537      -0.11417164       0.00756202      -0.00000000
Se       5.00722288       0.39413532       4.09858329       0.18285738      -0.53713366      -0.29024234      -0.00000000
Se       5.04562215       4.28191898       3.93275799      -0.31665261       0.29391778      -0.12575716      -0.00000000
Se       5.23299265       8.55787919       3.83799038      -0.33547981      -0.00181950       0.51253261      -0.00000000
Se       3.13184742       0.18216353       7.20484596      -0.30052699       0.00314710      -0.76976622      -0.00000000
Se      11.28374223       8.61960393       7.22391234      -0.28878529       0.08482049      -0.12248377      -0.00000000
Se      11.13663170      10.65042407       1.52759581      -0.05145660      -0.31647881       0.23385484      -0.00000000
Se       2.78329960       2.25095345       1.53807642       0.00180790      -0.06609250       0.33080664      -0.00000000
Se      11.08557202       2.24836704       1.52122087       0.32674038      -0.13081146      -0.36401194      -0.00000000
Se       9.10768435       4.40203162       3.85059377       0.27010930       0.47837894       0.27451148      -0.00000000
Se       0.82489751       2.12382638       9.49959783      -0.32398037       0.38843453      -0.10995595      -0.00000000
Se       0.76552308       6.32777087       9.32438393      -0.01078834       0.16706305       0.63617281      -0.00000000
Se       1.00773240      10.77057023       9.31574036       0.10031504      -0.53206784       0.28639136      -0.00000000
Se       5.11021771       2.34937208       9.64617811      -0.28262344      -0.25315713      -0.25925206      -0.00000000
Se       4.93856155       6.37826702       9.66774601       0.10130515       0.04714949      -0.73762312      -0.00000000
Se       4.96086740      10.53755207       9.60992536      -0.34732282      -0.37689275      -0.62650573      -0.00000000
Se       9.22954950       2.21596757       9.47222659       0.12074875       0.19133638       0.52085654      -0.00000000
Se       9.12083840       6.50543458       9.43279938       0.24291955      -0.17710020       0.05112775      -0.00000000
Se       9.08448320      10.66523663       9.66343726       0.26064236      -0.41200341      -0.40363431      -0.00000000
Se       2.88837651       6.58784830       1.66019092       0.45785968       0.24941821      -0.38895696      -0.00000000
Se       2.85155635      10.56451397       1.37904580       0.15191617       0.50443423       0.40936362      -0.00000000
Se       6.99624754       2.21873099       1.53801441       0.53339354       0.20569735       0.39769441      -0.00000000
Se       6.95896939       6.18502772       1.34579538       0.20505341       0.41941825       0.56351924      -0.00000000
Se       7.13798167      10.51920798       1.58626565      -0.18238084       0.64261436       0.47257574      -0.00000000
Se      11.17882537       6.75680824       1.58787698       0.33430591      -0.53415320       0.10663863      -0.00000000
Se       8.99164558       8.38571960       3.98497350      -0.02450855       0.26590820       0.62613486      -0.00000000
