72
Lattice="12.421621946357599 -4.3826983785e-06 -4.3011532958e-06 -4.4136096258e-06 12.509229730947492 2.627058765e-07 -4.9305380033e-06 2.990383184e-07 11.061598293845513" Properties=species:S:1:pos:R:3:forces:R:3:magmoms:R:1 energy=-300.46840928 stress="0.0010518633764350584 -0.0021641186589457942 -0.0015310670297854843 -0.0021641186589457942 -0.008812537754389383 -4.502614696997581e-05 -0.0015310670297854843 -4.502614696997581e-05 -0.01156183376383968" dipole="_JSON [[0.0, 0.0, 0.0]]" magmom=0.0018729 free_energy=-300.46840928 pbc="T T T"
Ge       0.91532794       0.32378409       1.34274705      -0.49559280       0.02464816       0.25641832       0.00000000
Ge       2.59255210      10.62652888       4.29224874      -0.30869273       0.00826887      -0.39189266      -0.00000000
Ge       6.76572810       2.31915832       4.08716495      -0.27568548       0.02984760       0.25533900       0.00000000
Ge       6.94385913       6.88692805       4.41207605       0.40776222      -0.06488759      -0.10679690       0.00000000
Ge       7.14053203      10.93896687       4.08925124       0.03824157       0.18385251      -0.15038568       0.00000000
Ge      11.15925965       2.72908775       4.09317822       0.22111875      -0.19780554       0.24992757       0.00000000
Ge      11.12771010       6.50427598       3.99997674      -0.48094797       0.16632070       0.27957866      -0.00000000
Ge      10.99832664      10.98950616       4.16122346       0.21014823      -0.34978619       0.24533877       0.00000000
Ge       0.85158803       1.89559397       6.98912873       0.47387341       0.55995073      -0.57592564       0.00000000
Ge       0.73940470       6.38532177       6.93576836       0.31309609      -0.51866625       0.32235147      -0.00000000
Ge       0.60849718      10.56696782       7.03986067       0.40381842      -0.32566300       0.57017917      -0.00000000
Ge       5.01723540       1.87133112       7.06276445      -0.30527322       0.03903750      -0.13450824       0.00000000
Ge       4.87890956       6.27610501       6.85801207      -0.24506958       0.29373380      -0.13880205       0.00000000
Ge       5.07856042      10.28340262       6.91699495       0.04815441      -0.25542214      -0.08592807       0.00000000
Ge       9.03640614       2.04982920       6.78465757      -0.11998162      -0.21216454       0.29500064       0.00000000
Ge       8.86336666       5.89643026       6.91164066       0.83300719       0.82587216       0.28684202       0.00000000
Ge       2.70782202       6.79459714       4.06259603       0.33948669      -0.18670117      -0.00522886      -0.00000000
Ge       2.80461478       2.39659787       4.00668984      -0.03548867       0.17132169       0.71172917       0.00000000
Ge       9.00684193      10.31038185       6.79588910      -0.07075049      -0.38544972       0.03627309       0.00000000
Ge      11.23861759       8.06887376       9.43193255      -0.09345977       0.26065051       0.87441334       0.00000000
Ge      11.04024162      12.39457122       9.69735894       0.10198487      -0.28959115       0.30357692       0.00000000
Ge       1.00901932       4.62107258       1.35102108      -0.43205009      -0.04778413       0.37552165       0.00000000
Ge       0.52518144       8.57983898       1.34732990       0.49091960       0.37326602       0.14298739      -0.00000000
Ge       4.66206225       0.19724011       1.39230392       0.15918596      -0.61486369      -0.55669288       0.00000000
Ge       5.04421056       4.63100444       1.48895459      -0.54686636      -0.39242323      -0.36663875       0.00000000
Ge       9.14317977       0.80314406       1.53635798       0.71658917      -0.71423300       0.10476334       0.00000000
Ge       8.91131829       4.56529709       1.41659078      -0.25839373       0.04768671       0.48911885       0.00000000
Ge       5.12129586       9.03757026       1.54937718      -0.11217149      -0.60117509       0.21790126      -0.00000000
Ge       2.99524465       3.90139110       9.50822448      -0.20954947       0.76362699      -0.11891475       0.00000000
Ge       3.05616293       8.29974129       9.75413080      -0.09896351      -0.01945765      -0.29972641      -0.00000000
Ge       2.90684207      12.48312328       9.51091951      -0.15867335      -0.39929989       0.43687655       0.00000000
Ge       6.94950492       4.15223038       9.38582260      -0.02499091       0.02058366       0.72758977       0.00000000
Ge       7.08730351       8.13859030       9.76484456       0.25550005       0.14214107       0.05038406       0.00000000
Ge       7.05371767      12.41015521       9.55718694      -0.00512623      -0.05080138      -0.37958281       0.00000000
Ge      11.05284115       3.96670285       9.53412670       0.00266160       0.11180029       1.10434537       0.00000000
Ge       9.15711463       8.78148902       1.26305417      -0.48040676      -0.06698956       0.56363419       0.00000000
Se      11.48209499       0.20192821       7.23580927      -1.21907818      -0.04800910      -0.34464904      -0.00000000
Se       2.96043283       4.60617839       6.95699251      -0.23950942      -0.32199048       0.43572443      -0.00000000
Se       3.09898097       8.68574276       7.20625633      -0.34949596      -0.22991569      -0.00159965      -0.00000000
Se       7.10379702       0.24244366       6.85667944       0.00173227       0.17774744       0.72150456      -0.00000000
Se       6.89941949       4.42384207       6.93700029      -0.31557483      -0.82284723      -0.36328819      -0.00000000
Se       7.18097687       8.44205850       7.24860831       0.05251077       0.53312154      -0.40474488      -0.00000000
Se      11.26926784       4.43473533       7.20893949      -0.04974803       0.24149684      -1.27885586      -0.00000000
Se       9.27701389       0.33288234       4.15374898      -0.52270497      -0.21377050      -0.63604396      -0.00000000
Se       0.70167198      -0.03679589       3.89843087       0.31896240       0.00761323       0.01051725      -0.00000000
Se       0.90984109       4.26374405       4.00524618       0.15889525       0.21794509      -0.45793276      -0.00000000
Se       0.84167688       8.53201032       3.92860693       0.40853675       0.20765875       0.03538063      -0.00000000
Se       5.15527033       0.15716209       3.79640467       0.20729012       0.19857406       0.84166626      -0.00000000
Se       4.81548515       4.09177435       3.92705187       0.06841184      -0.14646200       0.19541306      -0.00000000
Se       5.02389211       8.51836607       4.18030141      -0.14325647       0.29566890      -0.71423216      -0.00000000
Se       2.86704280       0.14797583       7.06733874       0.41411265       0.16626576      -0.39856809      -0.00000000
Se      11.21930501       8.72354991       7.06260535      -0.20531907      -0.26509951      -0.62796841      -0.00000000
Se      11.08978119      10.33366473       1.68830669      -0.01932027       0.70328973      -0.40677603      -0.00000000
Se       2.87380759       1.96073878       1.56582889      -0.30237356       0.65310698      -0.46211488      -0.00000000
Se      11.34194822       2.25224975       1.62384935      -0.13936228      -0.00364252      -0.33452315      -0.00000000
Se       9.27876370       4.48790595       4.00088453       0.20276366       0.04337628      -0.36387969      -0.00000000
Se       0.97946237       2.34057609       9.41928527      -0.09999142      -0.22125996       0.51414085      -0.00000000
Se       0.99182556       6.57981813       9.49155985      -0.10240514      -0.05195058      -0.31517611      -0.00000000
Se       0.72155920      10.67450291       9.69037462       0.25293476       0.19343778      -0.60822861      -0.00000000
Se       4.98355801       2.26496456       9.57984846       0.27582647      -0.16794480      -0.30720202      -0.00000000
Se       5.13035612       6.59704253       9.36481783      -0.42196666      -0.48449342       0.47740280      -0.00000000
Se       5.08546965      10.70119608       9.39498249      -0.09906540       0.15895009       0.40233173      -0.00000000
Se       8.92624535       2.40819806       9.38268239       0.45343775      -0.33281683      -0.22084463      -0.00000000
Se       9.09797510       6.34315492       9.56983396       0.06672160      -0.02878845      -0.39552499      -0.00000000
Se       9.02504796      10.70658902       9.27573936       0.38340968       0.14372256       0.47427065      -0.00000000
Se       2.93165629       6.23940260       1.54599705       0.43060607       0.63023849       0.14449716      -0.00000000
Se       3.00487305      10.49491237       1.72061917       0.16748027       0.62473249       0.03567232      -0.00000000
Se       7.29117667       2.41781326       1.65000167      -0.37820092       0.37694458      -0.49871148      -0.00000000
Se       6.87071864       6.22074524       1.90152824       0.63307088       0.59399053      -0.27418712      -0.00000000
Se       7.11551832      10.61833963       1.54799950       0.51356295       0.13665714       0.04488230      -0.00000000
Se      11.49188565       6.54249339       1.52068171      -0.51713963      -0.87006439      -0.20084642      -0.00000000
Se       9.11123649       8.43269478       3.90571735      -0.14316795      -0.42492686      -0.30657270      -0.00000000
72
Lattice="12.42378805645067 -4.3834626432e-06 -4.3019033405e-06 -4.4118491684e-06 12.504240171977447 2.626010909e-07 -4.9283100552e-06 2.989031928e-07 11.05659992094233" Properties=species:S:1:pos:R:3:forces:R:3:magmoms:R:1 energy=-300.86364848 stress="0.004376828577425214 0.00022953727150029824 0.002083826094237313 0.00022953727150029824 -0.0033545075743998776 0.0006896332686768912 0.002083826094237313 0.0006896332686768912 -0.008704973215147791" dipole="_JSON [[0.0, 0.0, 0.0]]" magmom=0.0017469 free_energy=-300.86364848 pbc="T T T"
Ge       0.62774817       0.34946447       1.55132561       0.23714075       0.06389689      -0.34804808      -0.00000000
Ge       2.56166219      10.67950676       4.12754106       0.31516431      -0.01114102      -0.29432648      -0.00000000
Ge       6.96310227       2.50639538       4.04811930      -0.13031433      -0.33529620      -0.05471694       0.00000000
Ge       6.93325306       6.96901596       4.33526058      -0.11659662      -0.29816305       0.20060426       0.00000000
Ge       7.16270312      11.11847365       4.00263123      -0.26770990      -0.58240141       0.54095366       0.00000000
Ge      11.29140515       2.71161376       4.23145920      -0.04759602       0.19038362      -0.60940505      -0.00000000
Ge      10.93994546       6.65717247       4.24303309       0.12182897      -0.39000892      -0.19660300       0.00000000
Ge      11.05396059      10.77601327       3.99240842      -0.06980706       0.32351306      -0.31431845       0.00000000
Ge       0.73696409       2.13005953       6.98693419       0.13095017      -0.80042705      -0.29744548      -0.00000000
Ge       0.87186624       6.05707440       6.92641469      -0.03385021       0.63968880       0.30412117       0.00000000
Ge       0.72200456      10.26072838       6.94145718       0.19056226       0.04775732      -0.13206338      -0.00000000
Ge       4.82281007       1.98809683       6.98125700      -0.00343950      -0.51716194      -0.08742336      -0.00000000
Ge       4.85732177       6.18870597       6.84032061       0.32718512      -0.26013496       0.22332341       0.00000000
Ge       5.08031562      10.16851411       6.87879794      -0.50649820       0.64448421      -0.13767898      -0.00000000
Ge       9.13468947       2.14623774       6.93259159      -0.26053474      -0.23846103       0.34490598       0.00000000
Ge       9.09074189       6.24865294       6.96185672      -0.23409891      -0.35589455      -0.85044687       0.00000000
Ge       3.01393770       6.73297476       4.15925709       0.13049680       0.38998381      -0.33423886       0.00000000
Ge       2.89354908       2.42488263       4.19435841       0.04472479       0.07954704      -0.38199142      -0.00000000
Ge       9.08203990      10.30820546       6.82773187       0.25618672       0.24533459      -0.21049820      -0.00000000
Ge      11.09680249       8.16103605       9.76635721       0.44924603      -0.10406510      -0.56987125       0.00000000
Ge      11.08993657      12.38677448       9.62362703       0.24650012       0.16429444      -0.32676747       0.00000000
Ge       0.93490519       4.67984692       1.53617617       0.24639467       0.07873818      -0.76136476       0.00000000
Ge       0.47050314       8.59822264       1.53054592       0.12153843      -0.10049110      -0.21576332       0.00000000
Ge       4.59841271       0.10415478       1.51868828       0.33524825       0.63477713      -0.08059643      -0.00000000
Ge       4.82838889       4.57966369       1.30998890       0.11554471       0.22481767       0.01859653       0.00000000
Ge       9.26233562       0.42350153       1.44276587      -0.19914918       0.45601282      -0.04341228       0.00000000
Ge       8.73707414       4.52848520       1.59156760       0.32796118      -0.17543804      -0.10701512       0.00000000
Ge       5.13822729       8.79131817       1.40404179      -0.24277956       0.35756396      -0.13436424       0.00000000
Ge       3.02410610       4.05674608       9.57865078      -0.11719567      -0.21530878      -0.05565203       0.00000000
Ge       3.22659817       8.17054319       9.58188327      -0.63385063       0.31024637       0.37827657       0.00000000
Ge       2.70800362      12.35015754       9.72042083       0.40189184       0.07460163      -0.79505914      -0.00000000
Ge       6.95767169       4.01681711       9.52301055       0.03111690      -0.16931406       0.01084800       0.00000000
Ge       7.25552203       8.10639517       9.80453933      -0.35424415      -0.09526280      -0.64622841       0.00000000
Ge       7.04336830      12.36988202       9.52975185      -0.24518617      -0.19426665      -0.25068221      -0.00000000
Ge      11.10918095       4.12385821       9.59006408       0.73781584       0.20708763       0.08848200       0.00000000
Ge       8.95303321       8.59223086       1.30418350       0.17491922       0.41235272       0.15002742       0.00000000
Se      11.04220287       0.33900819       7.06287091       0.54719757       0.08793519       0.23925070      -0.00000000
Se       2.92779879       4.43115213       7.00753467       0.18143560      -0.12449214       0.25862277      -0.00000000
Se       2.94229285       8.57069932       7.12080882       0.05496373      -0.17184363      -0.47235098      -0.00000000
Se       7.03913065       0.38640484       6.98537246       0.10970290      -0.06602742       0.41138980      -0.00000000
Se       7.00660889       4.33855149       7.01558687       0.01870467       0.47214756       0.01747744      -0.00000000
Se       7.12362591       8.67955268       7.14516136       0.19252430      -0.80082022       0.53826313      -0.00000000
Se      11.20265357       4.53453743       7.02669573      -0.12158388      -0.37051594       0.07981655      -0.00000000
Se       9.13479924       0.16985582       3.95958623       0.80065631       0.18857136      -0.03761950      -0.00000000
Se       0.73257855      -0.02353252       4.03421370      -0.34900216       0.03084402       0.05101941      -0.00000000
Se       1.06831482       4.33116168       3.94762297      -0.25461450      -0.15638593       0.73332808      -0.00000000
Se       1.04192419       8.55736903       4.03362997      -0.19246295      -0.12712368      -0.07088841      -0.00000000
Se       5.32181507       0.37625436       4.01824386      -0.38191610      -0.21174166      -0.28083363      -0.00000000
Se       4.92836848       4.06788223       3.77432710      -0.24424699       0.40767178       0.34432758      -0.00000000
Se       5.04734539       8.65328672       3.90748839      -0.17777045      -0.15144429       0.34719071      -0.00000000
Se       2.74418294       0.13604912       7.05242268       0.24168234       0.72744292       0.47775312      -0.00000000
Se      11.09616346       8.58322026       7.15222273       0.09969337      -0.04675268       0.27312401      -0.00000000
Se      11.05761071      10.58163734       1.34810589       0.06496125      -0.69286951       0.74413650      -0.00000000
Se       2.75345674       2.00411166       1.64468541       0.14742678      -0.08663861       0.10386723      -0.00000000
Se      11.23167246       2.16641016       1.52039674       0.11781752       0.27974255       0.69822014      -0.00000000
Se       9.35628869       4.49589141       4.10535514       0.00447486      -0.21357404      -0.20903427      -0.00000000
Se       0.95924675       2.42387767       9.42145562      -0.25349106      -0.00765863       0.45286432      -0.00000000
Se       0.86497001       6.61201069       9.48069678      -0.03489297      -0.13060265      -0.10909450      -0.00000000
Se       0.80670133      10.71968310       9.38084335      -0.54255124      -0.36821578       0.44087952      -0.00000000
Se       4.99834507       2.18233321       9.48659271      -0.11092139       0.43250753       0.10047160      -0.00000000
Se       5.08530406       6.42181774       9.43181524       0.38205375       0.01216980      -0.15634369      -0.00000000
Se       4.88153827      10.54694819       9.36643052       0.41446854       0.56071295       0.37304369      -0.00000000
Se       9.25580604       2.45971774       9.54614464      -0.71145279      -0.47583035      -0.40805309      -0.00000000
Se       9.19944953       6.33653782       9.37217587      -0.25542921       0.29859858       1.14589397      -0.00000000
Se       9.16719756      10.70235585       9.31086579      -0.39893930      -0.14302490       0.27920438      -0.00000000
Se       3.10159781       6.50164088       1.59031839      -0.38009118      -0.29238145       0.15758399      -0.00000000
Se       3.05932189      10.61604890       1.49214880      -0.09660310      -0.42964634       0.47366878      -0.00000000
Se       7.30376686       2.32303086       1.55979332       0.09466399       0.10806984      -0.10305167      -0.00000000
Se       6.90686796       6.39125915       1.85760857      -0.01492775      -0.40856489      -0.53754633      -0.00000000
Se       7.26706913      10.49742712       1.52441179      -0.44559960       0.04264114      -0.41526254      -0.00000000
Se      11.40162069       6.31271249       1.71578578      -0.05718527       0.71265610      -0.02337730      -0.00000000
Se       9.08682064       8.36138696       3.84631100       0.07168816       0.41259816       0.05790073      -0.00000000
72
Lattice="12.415166165952392 -4.3804205972e-06 -4.2989178952e-06 -4.4155950986e-06 12.514857037812451 2.628240554e-07 -4.9356234356e-06 2.993467511e-07 11.073007395408741" Properties=species:S:1:pos:R:3:forces:R:3:magmoms:R:1 energy=-300.67493286 stress="0.006159427201648005 0.00019744485463908724 0.0006075668483503065 0.00019744485463908724 -0.005374223364775241 0.0005029064645804624 0.0006075668483503065 0.0005029064645804624 -0.008847889811874605" dipole="_JSON [[0.0, 0.0, 0.0]]" magmom=0.0017616 free_energy=-300.67493286 pbc="T T T"
Ge       0.86375093       0.54469352       1.42940714      -0.64609428       0.12190147      -0.29771247      -0.00000000
Ge       2.70768238      10.86664400       3.94865866       0.03548965      -0.08522584       0.01443047       0.00000000
Ge       6.98143315       2.62101289       4.07544128      -0.33294868      -0.41530027       0.03285227       0.00000000
Ge       7.02260099       6.56264035       3.89706006      -0.00732190      -0.08608308      -0.13916797       0.00000000
Ge       7.04887999      11.05795512       4.16981652      -0.12264172       0.44296625      -0.02084386       0.00000000
Ge      11.20604135       2.72785952       4.09043484      -0.02912591       0.10684133      -0.68835801       0.00000000
Ge      10.93079399       6.60780952       4.00370761      -0.11160929       0.17023050      -0.02572398       0.00000000
Ge      11.20045260      10.99730817       4.19383552      -0.29531664       0.17401256      -0.56981441       0.00000000
Ge       0.77002148       1.78709290       6.89935224       0.58491356       0.09704100       0.31461882       0.00000000
Ge       0.81788064       5.84182531       6.81091085       0.03972254       0.29867618       0.15890545       0.00000000
Ge       0.86809367      10.17385210       6.91940444       0.28453163       0.25641289      -0.15377601       0.00000000
Ge       5.17445531       1.94177532       7.06844501      -0.50070044       0.15695494      -0.15284258       0.00000000
Ge       4.96574686       5.95899958       7.16395475      -0.04725168       0.30714153       0.19791211       0.00000000
Ge       5.00355951      10.25626867       7.09484243      -0.37016814      -0.07075781      -0.09435421       0.00000000
Ge       9.10448288       1.91577449       6.92684107       0.08529729      -0.14633895       0.22409091       0.00000000
Ge       9.21992965       6.26494010       6.97363265       0.25593114      -0.15131763      -0.55084235       0.00000000
Ge       3.16076025       7.01180875       4.16666690      -0.27056417      -0.30170416      -0.12361315      -0.00000000
Ge       2.72709320       2.64865035       4.08530079       0.30327362       0.30122277      -0.31071674       0.00000000
Ge       9.23622886      10.36551091       7.16776121      -0.14271658      -0.38930830       0.01821222       0.00000000
Ge      10.99758258       8.27339055       9.75020923       0.29311133       0.04193008      -0.54624619       0.00000000
Ge      11.20000341      12.30518101       9.57725721       0.30522994      -0.12803952       0.09747427       0.00000000
Ge       0.79928682       5.15319474       1.38658251       0.06512644      -0.82016626      -0.23609482      -0.00000000
Ge       0.55468604       8.79540833       1.48313239       0.18235291       0.04564964       0.15567619      -0.00000000
Ge       4.59377615       0.39772963       1.51774839       0.57994883      -0.38015180       0.01841132      -0.00000000
Ge       4.80404420       4.78232262       1.37659763       0.02229468      -0.47856197      -0.03975067      -0.00000000
Ge       8.96746118       0.45596716       1.33860451       0.58876252       0.10369545      -0.01386435       0.00000000
Ge       8.74047282       4.32227201       1.33933326       0.03290732      -0.05254321      -0.19975383       0.00000000
Ge       4.95653176       9.02105484       1.42533596       0.35944218      -0.69693789      -0.40531025      -0.00000000
Ge       2.56383389       4.09455311       9.73448368       0.37630576       0.08098740       0.26909462      -0.00000000
Ge       2.71344325       8.04961018       9.57082546       0.39087007       0.23599346       0.44159428      -0.00000000
Ge       3.07405243      12.44878145       9.70754214      -0.32246963      -0.19531958      -0.70225794      -0.00000000
Ge       7.18935664       3.87002476       9.70825038      -0.34302789       0.19007388      -0.18205794      -0.00000000
Ge       7.00144630       8.12347132       9.57707883      -0.37162250      -0.00761773      -0.09644051      -0.00000000
Ge       6.89277518      12.24342217       9.81068174       0.29411964       0.30768256      -0.15579425      -0.00000000
Ge      11.20476950       4.01391459       9.62336627       0.16851394      -0.26115704       0.06000715       0.00000000
Ge       9.12828684       8.82359385       1.59052363      -0.10132942       0.27413254      -0.98017439       0.00000000
Se      11.39090511      -0.07302957       7.03570966      -0.88043463       0.58847261      -0.05843515      -0.00000000
Se       2.85386424       4.28659055       7.27961183       0.14521566      -0.05503881      -0.63879967      -0.00000000
Se       2.89223170       8.47850968       7.11628621       0.47039068       0.05715190      -0.39748183      -0.00000000
Se       7.10163678       0.23008997       7.20572276       0.19706671      -0.37369333       0.15912710      -0.00000000
Se       7.33673021       4.60017248       7.17967521      -0.65704365      -0.84565202      -0.00334978      -0.00000000
Se       6.89226849       8.49553240       7.03389772       0.53658101       0.00387002       0.32226993      -0.00000000
Se      11.20198302       4.20823547       7.06992569      -0.03302149       0.32300473      -0.06284722      -0.00000000
Se       9.17907169       0.28025766       3.84871382       0.02533407      -0.44668207       0.47633324      -0.00000000
Se       0.78076970       0.16421037       3.93634611       0.18441311      -0.01610643       0.20342086      -0.00000000
Se       0.89506166       4.56089293       3.88142585      -0.21291704      -0.52751810       0.24330020      -0.00000000
Se       1.06432282       8.60152968       4.05275548      -0.25487721       0.10990040      -0.37536641      -0.00000000
Se       4.99188438       0.37866180       4.02321712       0.22218740      -0.45326029      -0.11971322      -0.00000000
Se       5.03485589       4.30540274       3.93759085      -0.46277285       0.03977913       0.10742176      -0.00000000
Se       5.29091104       8.45679893       3.86909799      -0.64685004       0.42821119       0.42593595      -0.00000000
Se       3.10180188       0.27438005       7.08486107      -0.11533906      -0.02494017       0.39357213      -0.00000000
Se      11.29991619       8.58430992       7.11025833      -0.53071692      -0.07491963       0.42244778      -0.00000000
Se      11.13150355      10.62786748       1.56341901       0.03476123      -0.22095563       0.50947638      -0.00000000
Se       2.86277217       2.19005850       1.48925274      -0.34688750       0.50801616       0.52656900      -0.00000000
Se      11.15118051       2.30246236       1.47861898       0.28569960      -0.31293572       0.42249592      -0.00000000
Se       9.05144888       4.36354061       3.85200079       0.64951883       0.14562932       0.26130635      -0.00000000
Se       0.90520791       2.17900422       9.49000048      -0.68831968       0.04455714      -0.22494201      -0.00000000
Se       0.77795023       6.43580118       9.42073863      -0.27072697      -0.28812004      -0.01696522      -0.00000000
Se       0.98747129      10.70598912       9.37259624      -0.04504302       0.01139440       0.63651222      -0.00000000
Se       4.99384143       2.35121709       9.55670312       0.32962979      -0.04331753       0.05505060      -0.00000000
Se       4.88071682       6.33749126       9.71601360       0.28886796       0.30451868      -0.74283109      -0.00000000
Se       5.00967017      10.55251454       9.65648729      -0.06943431       0.00580359      -0.33426168      -0.00000000
Se       9.21973060       2.27075509       9.48645118       0.11153887      -0.32043145      -0.24061626      -0.00000000
Se       9.11861954       6.54426827       9.39059176       0.22203072      -0.09627775       0.74837323      -0.00000000
Se       9.17374843      10.54534501       9.71785664      -0.09000025       0.09753430      -0.49291461      -0.00000000
Se       2.94307615       6.54182980       1.56038469       0.14575591       0.55365166       0.30045575      -0.00000000
Se       2.96959895      10.54234571       1.37097582      -0.42695605       0.71501176       0.61460818      -0.00000000
Se       7.09859757       2.16503292       1.53018785      -0.21456397       0.55164992       0.04308508      -0.00000000
Se       6.93848854       6.23694419       1.32822831       0.27722786       0.28116321       0.43457595      -0.00000000
Se       7.06447907      10.53715827       1.67242413       0.27077996       0.48612075      -0.11993919      -0.00000000
Se      11.17564071       6.69741958       1.47378709       0.06949990      -0.14162139       0.20798745      -0.00000000
Se       8.98618628       8.37860785       3.94314368       0.24616922      -0.06098589       0.99636912      -0.00000000
72
Lattice="12.411240839395285 -4.3790356313e-06 -4.2975586982e-06 -4.4163910768e-06 12.51711303118176 2.628714334e-07 -4.937080207e-06 2.994351046e-07 11.076275643141223" Properties=species:S:1:pos:R:3:forces:R:3:magmoms:R:1 energy=-300.59543967 stress="0.008901964474352665 -0.0017866487270115582 4.9628560901292616e-05 -0.0017866487270115582 -0.004710324712035643 0.0008116177100067194 4.9628560901292616e-05 0.0008116177100067194 -0.008844143196225574" dipole="_JSON [[0.0, 0.0, 0.0]]" magmom=0.0019211 free_energy=-300.59543967 pbc="T T T"
Ge       0.67120228       0.52695765       1.42211889       0.39184646      -0.05201896       0.22656430       0.00000000
Ge       2.79099416      10.87251935       3.90766851      -0.06200733      -0.04878680       0.47902419       0.00000000
Ge       7.14638475       2.73315228       4.23991596      -0.34700192      -0.20836253      -0.41498422      -0.00000000
Ge       6.97682252       6.67259144       3.93761419      -0.11918913       0.33176784       0.22465770       0.00000000
Ge       7.01764865      11.22286888       4.19134115      -0.00938808      -0.62363745      -0.13547342      -0.00000000
Ge      11.02749404       2.70864364       3.91716472       0.67315700      -0.12063824       0.83962396       0.00000000
Ge      10.96745439       6.85693754       4.23439453       0.32473766      -0.10478475      -0.01279598       0.00000000
Ge      11.14679037      11.05225466       3.98771415       0.05111568      -0.24063851       0.62080378      -0.00000000
Ge       0.78952081       1.86484166       6.98793868      -0.17694599      -0.09208737      -0.27310513       0.00000000
Ge       0.81787193       5.93576914       6.81231870      -0.00573498      -0.11200146      -0.02463281       0.00000000
Ge       1.01541339      10.17659049       6.75053142      -0.11930935      -0.33448356       0.46559956      -0.00000000
Ge       4.93136926       1.84016529       7.11221834       0.47745467       0.32671094       0.00272867       0.00000000