72
Lattice="12.440852552118384 -4.3894834783e-06 -4.3078121511e-06 -4.4051954736e-06 12.485382002590237 2.622050512e-07 -4.916355665e-06 2.981781561e-07 11.029780400966718" Properties=species:S:1:pos:R:3:forces:R:3:magmoms:R:1 energy=-299.39509072 stress="0.008891308401995627 -6.512556021938428e-05 -8.136652870075384e-05 -6.512556021938428e-05 -0.0035560243833511816 0.0007656083193796158 -8.136652870075384e-05 0.0007656083193796158 -0.014384318764115124" dipole="_JSON [[0.0, 0.0, 0.0]]" magmom=0.0017648 free_energy=-299.39509072 pbc="T T T"
Ge       0.77365591       0.67973740       1.46393444      -0.38229125       0.05976033      -1.17111893      -0.00000000
Ge       2.62567435      10.71666970       3.99459419       0.07999190       0.47174290       1.78120360       0.00000000
Ge       6.94370485       2.63822867       4.00330366      -0.19498341      -0.02282311       0.20919430      -0.00000000
Ge       7.04063763       7.24319667       4.45045128       0.16585459      -0.36799443       0.12181049       0.00000000
Ge       7.11086169      10.96037313       4.11669393      -0.11722968       0.66072867      -0.04746333       0.00000000
Ge      11.18910348       2.90523716       4.00660972       0.00130172      -0.36515259       0.17873899      -0.00000000
Ge      11.18743358       6.81397358       4.03459554      -0.27991596       0.00872231       0.01876135       0.00000000
Ge      11.28571440      11.01357232       4.27205785      -0.33542102       0.17964002      -0.35680102      -0.00000000
Ge       0.82896396       1.87641575       6.93266772      -0.21669120      -0.38177404       0.44486637      -0.00000000
Ge       0.82648198       6.03556531       6.92121615      -1.07302042       0.41783864       0.01437785       0.00000000
Ge       0.86159793      10.06114134       7.10496391      -0.70090772       0.03737017      -0.15922936       0.00000000
Ge       4.92328043       1.80904583       6.98434986       0.06367542      -0.20445676      -0.03872411       0.00000000
Ge       4.67917425       6.06165606       6.79823142       0.68613553       0.04589588       0.31701714       0.00000000
Ge       4.88543079      10.10227106       6.82467842       0.21295394      -0.11336089       0.29964133       0.00000000
Ge       9.21977871       1.87705624       6.99655225       0.40963445       0.32059431      -0.01609398      -0.00000000
Ge       8.90675494       6.05331389       6.74345111       0.28449054      -0.16641941       0.23361543       0.00000000
Ge       2.80694278       6.91518948       4.05226500       0.10328822      -0.22401054      -0.15443809       0.00000000
Ge       3.01422371       2.74911534       4.18988472      -0.17525808      -0.19557994      -0.70726930      -0.00000000
Ge       9.11737189      10.20740640       6.77041736       0.18449434      -0.48343738       0.19190641      -0.00000000
Ge      11.22007145       7.99185615       9.67508697      -0.00169390      -0.28575255      -0.68812325       0.00000000
Ge      11.19776200      12.15800621       9.64170066       0.18053665       0.23095879       0.65112617      -0.00000000
Ge       0.91428682       4.75731907       1.36832100       0.00879104      -0.08476362      -0.27278031      -0.00000000
Ge       0.98403836       8.83141889       1.45286469      -0.46203879       0.21856473      -0.30427889       0.00000000
Ge       5.16589811       0.51880187       1.41697744      -0.57994630       0.18363148       0.70495796       0.00000000
Ge       4.96900072       4.70075581       1.39537213      -0.18517350       0.12888175       0.37751163       0.00000000
Ge       8.99703602       0.65776990       1.46254499       0.58636258      -0.04809887      -0.04577695       0.00000000
Ge       9.01984579       4.95828415       1.47052898       0.67259987      -0.53331099      -0.10199845      -0.00000000
Ge       4.99130554       8.83371023       1.41476311       0.01212896       0.32466767       0.52956019       0.00000000
Ge       2.92658386       4.03034948       9.40481228      -0.11201960       0.06827229       0.69830640       0.00000000
Ge       2.96913252       8.05746455       9.62582698       0.02640889      -0.20157030      -0.14973846       0.00000000
Ge       3.00329362      12.02931623       9.58366476      -0.16707766       0.42798623       1.42073092       0.00000000
Ge       7.17930782       3.83293706       9.53598654      -0.39689572       0.22638479      -0.56597142       0.00000000
Ge       7.33232813       7.63707578       9.99942817      -0.11139412      -0.06569293      -0.42536994       0.00000000
Ge       7.07057559      12.17439204       9.42194921       0.36150735       0.13154086       0.48376893       0.00000000
Ge      11.48814926       3.98784549       9.48090072      -0.32820715      -0.04749075       0.25751179      -0.00000000
Ge       9.13165081       9.02584639       1.31806913       0.28862540       0.22722922       0.33463134       0.00000000
Se      11.32407506       0.02808754       7.22524160       0.03949799       0.66194832      -0.86786194      -0.00000000
Se       2.72416146       4.44139268       6.94025883       0.70841278      -0.96858172      -0.40743153      -0.00000000
Se       2.82067413       8.38269240       7.04055174       0.39351952      -0.13798534       0.08479620      -0.00000000
Se       7.27268658       0.26358093       7.01021682      -1.06248759      -0.62718935      -0.35551812      -0.00000000
Se       7.13809675       4.20670321       6.80563911      -0.47456466       0.06609011       0.78815436      -0.00000000
Se       7.18406606       8.48822906       7.15482202      -0.29769983       0.08034426       0.11015244      -0.00000000
Se      11.17516194       4.25589012       6.99136746       0.30435871       0.05155281      -0.31207053      -0.00000000
Se       9.02415959       0.32151281       3.98489236       0.10950290      -0.24046967       0.13309803      -0.00000000
Se       0.82444693       0.14803372       3.82239132       0.02745396       0.05755250       1.32245759      -0.00000000
Se       0.88796736       4.45645264       3.83827094      -0.01946696       0.05425184       0.46684143      -0.00000000
Se       0.73769545       8.66022579       3.94803595       0.23800546      -0.24913096       0.40533916      -0.00000000
Se       5.07967192       0.43456696       4.18405554       0.17265185      -0.34775240      -0.99866562      -0.00000000
Se       4.77003543       4.58577622       3.99489278       0.41324760      -0.53613554      -0.43408125      -0.00000000
Se       4.88165110       8.63177156       4.08398376       0.09048018       0.03618753      -0.52779343      -0.00000000
Se       2.88369891       0.01453400       7.25548705       0.08311135       0.35095777      -1.58058207      -0.00000000
Se      11.21465044       8.17726285       7.03200824       0.04759103       1.04909165       0.40795377      -0.00000000
Se      11.24175571      10.62796113       1.72231032      -0.35718705      -0.23390640      -0.39804516      -0.00000000
Se       2.84849781       2.19623656       1.42993583       0.45179237       0.30023267       0.85814495      -0.00000000
Se      11.00344482       2.45462471       1.52244974       0.35006006      -0.35088145      -0.16729916      -0.00000000
Se       9.22320506       4.53229744       3.96511523      -0.14538038       0.02060895      -0.00724326      -0.00000000
Se       0.96148701       2.30602478       9.50684355       0.01916404      -0.35164034      -0.54897453      -0.00000000
Se       0.79502988       6.18658183       9.48954590       0.06675335       0.65650470       0.04996391      -0.00000000
Se       0.83587019      10.45274136       9.61364936      -0.01497618      -0.25652608      -0.03435949      -0.00000000
Se       4.84522669       2.35290469       9.44355160       0.63274540      -0.48496219       0.12868963      -0.00000000
Se       4.88257832       6.28326709       9.39375678       0.42221862       0.23058200       0.05121653      -0.00000000
Se       4.97135394      10.39168790       9.42045084       0.16374335      -0.22686854      -0.20552095      -0.00000000
Se       8.95731679       2.08977668       9.50305415       0.59638880      -0.03295799       0.17866299      -0.00000000
Se       9.31647371       6.04145067       9.34608838      -0.64533887       0.71086722       0.34370391      -0.00000000
Se       9.25110913      10.52416475       9.30616100      -0.47012330      -0.18020222       0.26456521      -0.00000000
Se       2.89661738       6.57212275       1.45845547       0.11165214      -0.07636583       0.20767047      -0.00000000
Se       2.97958002      10.64291871       1.70779395       0.35411248      -0.22523266      -1.98413476      -0.00000000
Se       7.00777391       2.36326492       1.45545932      -0.09926327       0.27049132      -0.06907273      -0.00000000
Se       6.96441643       6.34627198       1.83338688      -0.37744663       0.74028559      -0.48053948      -0.00000000
Se       7.02252315      10.64797978       1.54488315      -0.09842382      -0.04502974      -0.01839566      -0.00000000
Se      11.36162909       6.50340452       1.53703368      -0.36714573       0.19295727      -0.22597738      -0.00000000
Se       9.09479641       8.75697677       3.90151490       0.12442447      -0.53741006      -0.24190635      -0.00000000
