 running  128 mpi-ranks, with    1 threads/rank, on    2 nodes
 distrk:  each k-point on   64 cores,    2 groups
 distr:  one band on    8 cores,    8 groups
 vasp.6.4.2 20Jul23 (build Oct 12 2023 10:31:02) complex                         
 POSCAR found type information on POSCAR GeSe
 POSCAR found :  2 types and      72 ions
 Reading from existing POTCAR
 -----------------------------------------------------------------------------
|                                                                             |
|           W    W    AA    RRRRR   N    N  II  N    N   GGGG   !!!           |
|           W    W   A  A   R    R  NN   N  II  NN   N  G    G  !!!           |
|           W    W  A    A  R    R  N N  N  II  N N  N  G       !!!           |
|           W WW W  AAAAAA  RRRRR   N  N N  II  N  N N  G  GGG   !            |
|           WW  WW  A    A  R   R   N   NN  II  N   NN  G    G                |
|           W    W  A    A  R    R  N    N  II  N    N   GGGG   !!!           |
|                                                                             |
|     You use a magnetic or noncollinear calculation, but did not specify     |
|     the initial magnetic moment with the MAGMOM tag. Note that a            |
|     default of 1 will be used for all atoms. This ferromagnetic setup       |
|     may break the symmetry of the crystal, in particular it may rule        |
|     out finding an antiferromagnetic solution. Thence, we recommend         |
|     setting the initial magnetic moment manually or verifying carefully     |
|     that this magnetic setup is desired.                                    |
|                                                                             |
 -----------------------------------------------------------------------------

 scaLAPACK will be used
 Reading from existing POTCAR
 -----------------------------------------------------------------------------
|                                                                             |
|               ----> ADVICE to this user running VASP <----                  |
|                                                                             |
|     You have a (more or less) 'large supercell' and for larger cells it     |
|     might be more efficient to use real-space projection operators.         |
|     Therefore, try LREAL= Auto in the INCAR file.                           |
|     Mind: For very accurate calculation, you might also keep the            |
|     reciprocal projection scheme (i.e. LREAL=.FALSE.).                      |
|                                                                             |
 -----------------------------------------------------------------------------

 LDA part: xc-table for Pade appr. of Perdew
 -----------------------------------------------------------------------------
|                                                                             |
|           W    W    AA    RRRRR   N    N  II  N    N   GGGG   !!!           |
|           W    W   A  A   R    R  NN   N  II  NN   N  G    G  !!!           |
|           W    W  A    A  R    R  N N  N  II  N N  N  G       !!!           |
|           W WW W  AAAAAA  RRRRR   N  N N  II  N  N N  G  GGG   !            |
|           WW  WW  A    A  R   R   N   NN  II  N   NN  G    G                |
|           W    W  A    A  R    R  N    N  II  N    N   GGGG   !!!           |
|                                                                             |
|     The number of bands has been changed from the values supplied in        |
|     the INCAR file. This is a result of running the parallel version.       |
|     The orbitals not found in the WAVECAR file will be initialized with     |
|     random numbers, which is usually adequate. For correlated               |
|     calculations, however, you should redo the groundstate calculation.     |
|     I found NBANDS = 220. Now, NBANDS = 224.                                |
|                                                                             |
 -----------------------------------------------------------------------------

 POSCAR, INCAR and KPOINTS ok, starting setup
 FFT: planning ... GRIDC
 FFT: planning ... GRID_SOFT
 FFT: planning ... GRID
 WAVECAR not read
 WARNING: random wavefunctions but no delay for mixing, default for NELMDL
 entering main loop
       N       E                     dE             d eps       ncg     rms          rms(c)
DAV:   1     0.181541112079E+04    0.18154E+04   -0.14197E+05  7168   0.135E+03
DAV:   2    -0.641271711308E+02   -0.18795E+04   -0.18046E+04  8512   0.205E+02
DAV:   3    -0.281509835856E+03   -0.21738E+03   -0.21122E+03  8552   0.690E+01
DAV:   4    -0.289476261088E+03   -0.79664E+01   -0.78773E+01  8832   0.130E+01
DAV:   5    -0.289755210753E+03   -0.27895E+00   -0.27816E+00  9000   0.209E+00    0.292E+01
DAV:   6    -0.289357713861E+03    0.39750E+00   -0.26654E+01  7928   0.760E+00    0.173E+01
DAV:   7    -0.296660588023E+03   -0.73029E+01   -0.86733E+00  8024   0.447E+00    0.909E+00
DAV:   8    -0.299874131239E+03   -0.32135E+01   -0.17132E+00  8192   0.223E+00    0.327E+00
DAV:   9    -0.300252879305E+03   -0.37875E+00   -0.42277E-01  9080   0.101E+00    0.147E+00
DAV:  10    -0.300356193744E+03   -0.10331E+00   -0.95130E-02  8104   0.463E-01    0.725E-01
DAV:  11    -0.300387011192E+03   -0.30817E-01   -0.35290E-02  8904   0.276E-01    0.280E-01
DAV:  12    -0.300390289833E+03   -0.32786E-02   -0.46447E-03  8544   0.118E-01    0.987E-02
DAV:  13    -0.300390381282E+03   -0.91448E-04   -0.52868E-04  9856   0.361E-02    0.400E-02
DAV:  14    -0.300390394990E+03   -0.13708E-04   -0.89201E-05  8320   0.178E-02    0.155E-02
DAV:  15    -0.300390397389E+03   -0.23992E-05   -0.12652E-05  8576   0.801E-03    0.720E-03
DAV:  16    -0.300390398093E+03   -0.70398E-06   -0.13415E-06  4808   0.245E-03
   1 F= -.30039040E+03 E0= -.30039040E+03  d E =-.155661E-13  mag=     0.0004
