 vasp.6.4.1 05Apr23 (build May 18 2023 13:19:41) complex                         
 executed on    LinuxNV_CrayMPICH date 2023.11.06  14:05:01
 running  256 mpi-ranks, with    1 threads/rank, on    7 nodes
 distrk:  each k-point on  128 cores,    2 groups
 distr:  one band on NCORE=   4 cores,   32 groups


--------------------------------------------------------------------------------------------------------


 INCAR:
   SIGMA = 0.010000
   EDIFF = 1.00e-06
   ALGO = N
   GGA = PE
   PREC = Accurate
   SYSTEM = 02_SCF
   ICHARG = 0
   ISMEAR = 0
   ISPIN = 2
   ISTART = 1
   KPAR = 2
   LORBIT = 11
   NBANDS = 896
   NELMIN = 5
   NPAR = 32
   IVDW = 11
   LCHARG = .TRUE.
   LWAVE = .TRUE.
   LREAL = .FALSE.

 POTCAR:    PAW_PBE S 17Jan2003                   
 POTCAR:   PAW_PBE O 08Apr2002                    
 -----------------------------------------------------------------------------
|                                                                             |
|           W    W    AA    RRRRR   N    N  II  N    N   GGGG   !!!           |
|           W    W   A  A   R    R  NN   N  II  NN   N  G    G  !!!           |
|           W    W  A    A  R    R  N N  N  II  N N  N  G       !!!           |
|           W WW W  AAAAAA  RRRRR   N  N N  II  N  N N  G  GGG   !            |
|           WW  WW  A    A  R   R   N   NN  II  N   NN  G    G                |
|           W    W  A    A  R    R  N    N  II  N    N   GGGG   !!!           |
|                                                                             |
|     You use a magnetic or noncollinear calculation, but did not specify     |
|     the initial magnetic moment with the MAGMOM tag. Note that a            |
|     default of 1 will be used for all atoms. This ferromagnetic setup       |
|     may break the symmetry of the crystal, in particular it may rule        |
|     out finding an antiferromagnetic solution. Thence, we recommend         |
|     setting the initial magnetic moment manually or verifying carefully     |
|     that this magnetic setup is desired.                                    |
|                                                                             |
 -----------------------------------------------------------------------------

 POTCAR:    PAW_PBE S 17Jan2003                   
   VRHFIN =S : s2p4                                                                                 
   LEXCH  = PE                                                                                      
   EATOM  =   276.8230 eV,   20.3459 Ry                                                             
                                                                                                    
   TITEL  = PAW_PBE S 17Jan2003                                                                     
   LULTRA =        F    use ultrasoft PP ?                                                          
   IUNSCR =        1    unscreen: 0-lin 1-nonlin 2-no                                               
   RPACOR =    1.500    partial core radius                                                         
   POMASS =   32.066; ZVAL   =    6.000    mass and valenz                                          
   RCORE  =    1.900    outmost cutoff radius                                                       
   RWIGS  =    2.200; RWIGS  =    1.164    wigner-seitz radius (au A)                               
   ENMAX  =  280.000; ENMIN  =  194.016 eV                                                          
   ICORE  =        2    local potential                                                             
   LCOR   =        T    correct aug charges                                                         
   LPAW   =        T    paw PP                                                                      
   EAUG   =  335.092                                                                                
   DEXC   =     .000                                                                                
   RMAX   =    2.867    core radius for proj-oper                                                   
   RAUG   =    1.300    factor for augmentation sphere                                              
   RDEP   =    1.954    radius for radial grids                                                     
   QCUT   =   -4.360; QGAM   =    8.721    optimization parameters                                  
                                                                                                    
   Description                                                                                      
     l     E      TYP  RCUT    TYP  RCUT                                                            
     0   .000     23  1.900                                                                         
     0   .000     23  1.900                                                                         
     1   .000     23  1.900                                                                         
     1   .000     23  1.900                                                                         
     2   .000     23  1.900                                                                         
  local pseudopotential read in
  partial core-charges read in
  atomic valenz-charges read in
  non local Contribution for L=            0  read in
    real space projection operators read in
  non local Contribution for L=            0  read in
    real space projection operators read in
  non local Contribution for L=            1  read in
    real space projection operators read in
  non local Contribution for L=            1  read in
    real space projection operators read in
    PAW grid and wavefunctions read in
 
   number of l-projection  operators is LMAX  =            4
   number of lm-projection operators is LMMAX =            8
 
 POTCAR:   PAW_PBE O 08Apr2002                    
   VRHFIN =O: s2p4                                                                                  
   LEXCH  = PE                                                                                      
   EATOM  =   432.3788 eV,   31.7789 Ry                                                             
                                                                                                    
   TITEL  = PAW_PBE O 08Apr2002                                                                     
   LULTRA =        F    use ultrasoft PP ?                                                          
   IUNSCR =        0    unscreen: 0-lin 1-nonlin 2-no                                               
   RPACOR =     .000    partial core radius                                                         
   POMASS =   16.000; ZVAL   =    6.000    mass and valenz                                          
   RCORE  =    1.520    outmost cutoff radius                                                       
   RWIGS  =    1.550; RWIGS  =     .820    wigner-seitz radius (au A)                               
   ENMAX  =  400.000; ENMIN  =  300.000 eV                                                          
   ICORE  =        2    local potential                                                             
   LCOR   =        T    correct aug charges                                                         
   LPAW   =        T    paw PP                                                                      
   EAUG   =  605.392                                                                                
   DEXC   =     .000                                                                                
   RMAX   =    2.264    core radius for proj-oper                                                   
   RAUG   =    1.300    factor for augmentation sphere                                              
   RDEP   =    1.550    radius for radial grids                                                     
   QCUT   =   -5.520; QGAM   =   11.041    optimization parameters                                  
                                                                                                    
   Description                                                                                      
     l     E      TYP  RCUT    TYP  RCUT                                                            
     0   .000     23  1.200                                                                         
     0  -.700     23  1.200                                                                         
     1   .000     23  1.520                                                                         
     1   .600     23  1.520                                                                         
     2   .000      7  1.500                                                                         
  local pseudopotential read in
  atomic valenz-charges read in
  non local Contribution for L=            0  read in
    real space projection operators read in
  non local Contribution for L=            0  read in
    real space projection operators read in
  non local Contribution for L=            1  read in
    real space projection operators read in
  non local Contribution for L=            1  read in
    real space projection operators read in
    PAW grid and wavefunctions read in
 
   number of l-projection  operators is LMAX  =            4
   number of lm-projection operators is LMMAX =            8
 
  PAW_PBE S 17Jan2003                   :
 energy of atom  1       EATOM= -276.8230
 kinetic energy error for atom=    0.0046 (will be added to EATOM!!)
 PAW_PBE O 08Apr2002                    :
 energy of atom  2       EATOM= -432.3788
 kinetic energy error for atom=    0.1156 (will be added to EATOM!!)
 
 
 POSCAR:  S  O
  positions in cartesian coordinates
  No initial velocities read in
 exchange correlation table for  LEXCH =        8
   RHO(1)=    0.500       N(1)  =     2000
   RHO(2)=  100.500       N(2)  =     4000
 


--------------------------------------------------------------------------------------------------------


 ion  position               nearest neighbor table
   1  0.438  0.452  0.489-   2 1.45   3 1.45
   2  0.438  0.415  0.458-   1 1.45
   3  0.438  0.524  0.489-   1 1.45
 
  LATTYP: Found a simple orthorhombic cell.
 ALAT       =    19.9214134216
 B/A-ratio  =     1.6250001197
 C/A-ratio  =     2.0303804144
  
  Lattice vectors:
  
 A1 = (   0.0000000000, -19.9214134216,   0.0000000000)
 A2 = (  32.3722991943,   0.0000000000,   0.0000000000)
 A3 = (   0.0000000000,   0.0000000000,  40.4480476379)


Analysis of symmetry for initial positions (statically):
=====================================================================
 Subroutine PRICEL returns:
 Original cell was already a primitive cell.
 

 Routine SETGRP: Setting up the symmetry group for a 
 simple orthorhombic supercell.


 Subroutine GETGRP returns: Found  2 space group operations
 (whereof  1 operations were pure point group operations)
 out of a pool of  8 trial point group operations.


The static configuration has the point symmetry C_1 .
 The point group associated with its full space group is C_1h.


Analysis of symmetry for dynamics (positions and initial velocities):
=====================================================================
 Subroutine PRICEL returns:
 Original cell was already a primitive cell.
 

 Routine SETGRP: Setting up the symmetry group for a 
 simple orthorhombic supercell.


 Subroutine GETGRP returns: Found  2 space group operations
 (whereof  1 operations were pure point group operations)
 out of a pool of  8 trial point group operations.


The dynamic configuration has the point symmetry C_1 .
 The point group associated with its full space group is C_1h.


Analysis of structural, dynamic, and magnetic symmetry:
=====================================================================
 Subroutine PRICEL returns:
 Original cell was already a primitive cell.
 

 Routine SETGRP: Setting up the symmetry group for a 
 simple orthorhombic supercell.


 Subroutine GETGRP returns: Found  2 space group operations
 (whereof  1 operations were pure point group operations)
 out of a pool of  8 trial point group operations.


The overall configuration has the point symmetry C_1 .
 The point group associated with its full space group is C_1h.


 Subroutine INISYM returns: Found  2 space group operations
 (whereof  1 operations are pure point group operations),
 and found     1 'primitive' translations


----------------------------------------------------------------------------------------

                                     Primitive cell                                     

  volume of cell :   26085.0250

  direct lattice vectors                    reciprocal lattice vectors
    32.372299194  0.000000000  0.000000000     0.030890608  0.000000000  0.000000000
     0.000000000 19.921413422  0.000000000     0.000000000  0.050197241  0.000000000
     0.000000000  0.000000000 40.448047638     0.000000000  0.000000000  0.024723072

  length of vectors
    32.372299194 19.921413422 40.448047638     0.030890608  0.050197241  0.024723072

  position of ions in fractional coordinates (direct lattice)
     0.437632008  0.451761064  0.489471940
     0.437632008  0.415469452  0.458473712
     0.437632008  0.524410950  0.489052123

  ion indices of the primitive-cell ions
   primitive index   ion index
                 1           1
                 2           2
                 3           3

----------------------------------------------------------------------------------------

 
 
 KPOINTS: KPOINTS created by Atomic Simulation Env

Automatic generation of k-mesh.
 Grid dimensions read from file:
 generate k-points for:    1    1    2

 Generating k-lattice:

  Cartesian coordinates                     Fractional coordinates (reciprocal lattice)
     0.030890608  0.000000000  0.000000000     1.000000000  0.000000000  0.000000000
     0.000000000  0.050197241  0.000000000     0.000000000  1.000000000  0.000000000
     0.000000000  0.000000000  0.012361536     0.000000000  0.000000000  0.500000000

  Length of vectors
     0.030890608  0.050197241  0.012361536

  Shift w.r.t. Gamma in fractional coordinates (k-lattice)
     0.000000000  0.000000000  0.000000000

 
 Subroutine IBZKPT returns following result:
 ===========================================
 
 Found      2 irreducible k-points:
 
 Following reciprocal coordinates:
            Coordinates               Weight
  0.000000  0.000000  0.000000      1.000000
  0.000000  0.000000  0.500000      1.000000
 
 Following cartesian coordinates:
            Coordinates               Weight
  0.000000  0.000000  0.000000      1.000000
  0.000000  0.000000  0.012362      1.000000
 


--------------------------------------------------------------------------------------------------------




 Dimension of arrays:
   k-points           NKPTS =      2   k-points in BZ     NKDIM =      2   number of bands    NBANDS=    896
   number of dos      NEDOS =    301   number of ions     NIONS =      3
   non local maximal  LDIM  =      4   non local SUM 2l+1 LMDIM =      8
   total plane-waves  NPLWV = ******
   max r-space proj   IRMAX =      1   max aug-charges    IRDMAX=  10060
   dimension x,y,z NGX =   216 NGY =  140 NGZ =  270
   dimension x,y,z NGXF=   432 NGYF=  280 NGZF=  540
   support grid    NGXF=   432 NGYF=  280 NGZF=  540
   ions per type =               1   2
   NGX,Y,Z   is equivalent  to a cutoff of  11.09, 11.68, 11.10 a.u.
   NGXF,Y,Z  is equivalent  to a cutoff of  22.19, 23.37, 22.19 a.u.

 SYSTEM =  02_SCF                                  
 POSCAR =   S  O                                   

 Startparameter for this run:
   NWRITE =      2    write-flag & timer
   PREC   = accura    normal or accurate (medium, high low for compatibility)
   ISTART =      0    job   : 0-new  1-cont  2-samecut
   ICHARG =      2    charge: 1-file 2-atom 10-const
   ISPIN  =      2    spin polarized calculation?
   LNONCOLLINEAR =      F non collinear calculations
   LSORBIT =      F    spin-orbit coupling
   INIWAV =      1    electr: 0-lowe 1-rand  2-diag
   LASPH  =      F    aspherical Exc in radial PAW
 Electronic Relaxation 1
   ENCUT  =  400.0 eV  29.40 Ry    5.42 a.u.  52.79 32.49 65.96*2*pi/ulx,y,z
   ENINI  =  400.0     initial cutoff
   ENAUG  =  605.4 eV  augmentation charge cutoff
   NELM   =     60;   NELMIN=  5; NELMDL=  0     # of ELM steps 
   EDIFF  = 0.1E-05   stopping-criterion for ELM
   LREAL  =      F    real-space projection
   NLSPLINE    = F    spline interpolate recip. space projectors
   LCOMPAT=      F    compatible to vasp.4.4
   GGA_COMPAT  = T    GGA compatible to vasp.4.4-vasp.4.6
   LMAXPAW     = -100 max onsite density
   LMAXMIX     =    2 max onsite mixed and CHGCAR
   VOSKOWN=      0    Vosko Wilk Nusair interpolation
   ROPT   =    0.00000   0.00000
 Ionic relaxation
   EDIFFG = 0.1E-04   stopping-criterion for IOM
   NSW    =      0    number of steps for IOM
   NBLOCK =      1;   KBLOCK =      1    inner block; outer block 
   IBRION =     -1    ionic relax: 0-MD 1-quasi-New 2-CG
   NFREE  =      0    steps in history (QN), initial steepest desc. (CG)
   ISIF   =      2    stress and relaxation
   IWAVPR =     10    prediction:  0-non 1-charg 2-wave 3-comb
   ISYM   =      2    0-nonsym 1-usesym 2-fastsym
   LCORR  =      T    Harris-Foulkes like correction to forces

   POTIM  = 0.5000    time-step for ionic-motion
   TEIN   =    0.0    initial temperature
   TEBEG  =    0.0;   TEEND  =   0.0 temperature during run
   SMASS  =  -3.00    Nose mass-parameter (am)
   estimated Nose-frequenzy (Omega)   =  0.10E-29 period in steps = 0.13E+47 mass=  -0.239E-25a.u.
   SCALEE = 1.0000    scale energy and forces
   NPACO  =    256;   APACO  = 10.0  distance and # of slots for P.C.
   PSTRESS=    0.0 pullay stress

  Mass of Ions in am
   POMASS =  32.07 16.00
  Ionic Valenz
   ZVAL   =   6.00  6.00
  Atomic Wigner-Seitz radii
   RWIGS  =  -1.00 -1.00
  virtual crystal weights 
   VCA    =   1.00  1.00
   NELECT =      18.0000    total number of electrons
   NUPDOWN=      -1.0000    fix difference up-down

 DOS related values:
   EMIN   =  10.00;   EMAX   =-10.00  energy-range for DOS
   EFERMI =   0.00;   METHOD = LEGACY      
   ISMEAR =     0;   SIGMA  =   0.01  broadening in eV -4-tet -1-fermi 0-gaus

 Electronic relaxation 2 (details)
   IALGO  =     38    algorithm
   LDIAG  =      T    sub-space diagonalisation (order eigenvalues)
   LSUBROT=      F    optimize rotation matrix (better conditioning)
   TURBO    =      0    0=normal 1=particle mesh
   IRESTART =      0    0=no restart 2=restart with 2 vectors
   NREBOOT  =      0    no. of reboots
   NMIN     =      0    reboot dimension
   EREF     =   0.00    reference energy to select bands
   IMIX   =      4    mixing-type and parameters
     AMIX     =   0.40;   BMIX     =  1.00
     AMIX_MAG =   1.60;   BMIX_MAG =  1.00
     AMIN     =   0.10
     WC   =   100.;   INIMIX=   1;  MIXPRE=   1;  MAXMIX= -45

 Intra band minimization:
   WEIMIN = 0.0000     energy-eigenvalue tresh-hold
   EBREAK =  0.28E-09  absolut break condition
   DEPER  =   0.30     relativ break condition  

   TIME   =   0.40     timestep for ELM

  volume/ion in A,a.u.               =    8695.01     58676.81
  Fermi-wavevector in a.u.,A,eV,Ry     =   0.144667  0.273380  0.284749  0.020928
  Thomas-Fermi vector in A             =   0.811032
 
 Write flags
   LWAVE        =      T    write WAVECAR
   LDOWNSAMPLE  =      F    k-point downsampling of WAVECAR
   LCHARG       =      T    write CHGCAR
   LVTOT        =      F    write LOCPOT, total local potential
   LVHAR        =      F    write LOCPOT, Hartree potential only
   LELF         =      F    write electronic localiz. function (ELF)
   LORBIT       =     11    0 simple, 1 ext, 2 COOP (PROOUT), +10 PAW based schemes


 Dipole corrections
   LMONO  =      F    monopole corrections only (constant potential shift)
   LDIPOL =      F    correct potential (dipole corrections)
   IDIPOL =      0    1-x, 2-y, 3-z, 4-all directions 
   EPSILON=  1.0000000 bulk dielectric constant

 Exchange correlation treatment:
   GGA     =    PE    GGA type
   LEXCH   =     8    internal setting for exchange type
   LIBXC   =     F    Libxc                    
   VOSKOWN =     0    Vosko Wilk Nusair interpolation
   LHFCALC =     F    Hartree Fock is set to
   LHFONE  =     F    Hartree Fock one center treatment
   AEXX    =    0.0000 exact exchange contribution

 Linear response parameters
   LEPSILON=     F    determine dielectric tensor
   LRPA    =     F    only Hartree local field effects (RPA)
   LNABLA  =     F    use nabla operator in PAW spheres
   LVEL    =     F    velocity operator in full k-point grid
   CSHIFT  =0.1000    complex shift for real part using Kramers Kronig
   OMEGAMAX=  -1.0    maximum frequency
   DEG_THRESHOLD= 0.2000000E-02 threshold for treating states as degnerate
   RTIME   =   -0.100 relaxation time in fs
  (WPLASMAI=    0.000 imaginary part of plasma frequency in eV, 0.658/RTIME)
   DFIELD  = 0.0000000 0.0000000 0.0000000 field for delta impulse in time
 
  Optional k-point grid parameters
   LKPOINTS_OPT  =     F    use optional k-point grid
   KPOINTS_OPT_MODE=     1    mode for optional k-point grid
 
 Orbital magnetization related:
   ORBITALMAG=     F  switch on orbital magnetization
   LCHIMAG   =     F  perturbation theory with respect to B field
   DQ        =  0.001000  dq finite difference perturbation B field
   LLRAUG    =     F  two centre corrections for induced B field
   LBONE     =     F  B-component reconstruction in AE one-centre
   LVGVCALC  =     T  calculate vGv susceptibility
   LVGVAPPL  =     F  apply vGv susceptibility instead of pGv for G=0

 Random number generation:
   RANDOM_GENERATOR = DEFAULT
   PCG_SEED         = not used


--------------------------------------------------------------------------------------------------------


 Static calculation
 charge density and potential will be updated during run
 spin polarized calculation
 Variant of blocked Davidson
 Davidson routine will perform the subspace rotation
 perform sub-space diagonalisation
    after iterative eigenvector-optimisation
 modified Broyden-mixing scheme, WC =      100.0
 initial mixing is a Kerker type mixing with AMIX =  0.4000 and BMIX =      1.0000
 Hartree-type preconditioning will be used
 using additional bands           887
 reciprocal scheme for non local part
 use partial core corrections
 calculate Harris-corrections to forces 
   (improved forces if not selfconsistent)
 use gradient corrections 
 use of overlap-Matrix (Vanderbilt PP)
 Gauss-broadening in eV      SIGMA  =   0.01


--------------------------------------------------------------------------------------------------------


  energy-cutoff  :      400.00
  volume of cell :    26085.03
      direct lattice vectors                 reciprocal lattice vectors
    32.372299194  0.000000000  0.000000000     0.030890608  0.000000000  0.000000000
     0.000000000 19.921413422  0.000000000     0.000000000  0.050197241  0.000000000
     0.000000000  0.000000000 40.448047638     0.000000000  0.000000000  0.024723072

  length of vectors
    32.372299194 19.921413422 40.448047638     0.030890608  0.050197241  0.024723072


 
 k-points in units of 2pi/SCALE and weight: KPOINTS created by Atomic Simulation Env
   0.00000000  0.00000000  0.00000000       0.500
   0.00000000  0.00000000  0.01236154       0.500
 
 k-points in reciprocal lattice and weights: KPOINTS created by Atomic Simulation Env
   0.00000000  0.00000000  0.00000000       0.500
   0.00000000  0.00000000  0.50000000       0.500
 
 position of ions in fractional coordinates (direct lattice) 
   0.43763201  0.45176106  0.48947194
   0.43763201  0.41546945  0.45847371
   0.43763201  0.52441095  0.48905212
 
 position of ions in cartesian coordinates  (Angst):
  14.16715431  8.99971892 19.79818435
  14.16715431  8.27673871 18.54436656
  14.16715431 10.44700734 19.78120359
 


--------------------------------------------------------------------------------------------------------


 k-point   1 :   0.0000 0.0000 0.0000  plane waves:  473959
 k-point   2 :   0.0000 0.0000 0.5000  plane waves:  473680

 maximum and minimum number of plane-waves per node :    118517   118418

 maximum number of plane-waves:    473959
 maximum index in each direction: 
   IXMAX=   52   IYMAX=   32   IZMAX=   65
   IXMIN=  -52   IYMIN=  -32   IZMIN=  -66


 parallel 3D FFT for wavefunctions:
    minimum data exchange during FFTs selected (reduces bandwidth)
 parallel 3D FFT for charge:
    minimum data exchange during FFTs selected (reduces bandwidth)


 total amount of memory used by VASP MPI-rank0   570256. kBytes
=======================================================================

   base      :      30000. kBytes
   nonl-proj :      36032. kBytes
   fftplans  :      79694. kBytes
   grid      :     212065. kBytes
   one-center:          6. kBytes
   wavefun   :     212459. kBytes
 
     INWAV:  cpu time      0.0000: real time      0.0000
 Broyden mixing: mesh for mixing (old mesh)
   NGX =105   NGY = 65   NGZ =131
  (NGX  =432   NGY  =280   NGZ  =540)
  gives a total of 894075 points

 initial charge density was supplied:
 charge density of overlapping atoms calculated
 number of electron      18.0000000 magnetization       3.0000000
 keeping initial charge density in first step


--------------------------------------------------------------------------------------------------------


 Maximum index for augmentation-charges             0 (set IRDMAX)


--------------------------------------------------------------------------------------------------------


 First call to EWALD:  gamma=   0.060
 Maximum number of real-space cells 3x 4x 2
 Maximum number of reciprocal cells 3x 2x 4

    FEWALD:  cpu time      0.0921: real time      0.0921


--------------------------------------- Ionic step        1  -------------------------------------------




--------------------------------------- Iteration      1(   1)  ---------------------------------------


    POTLOK:  cpu time      0.8215: real time      0.8217
    SETDIJ:  cpu time      0.0035: real time      0.0035
     EDDAV:  cpu time     30.1188: real time     30.1309
       DOS:  cpu time      0.0021: real time      0.0022
    --------------------------------------------
      LOOP:  cpu time     30.9459: real time     30.9583

 eigenvalue-minimisations  :  7424
 total energy-change (2. order) : 0.1205122E+03  (-0.2294212E+03)
 number of electron      18.0000000 magnetization       3.0000000
 augmentation part       18.0000000 magnetization       3.0000000

 Free energy of the ion-electron system (eV)
  ---------------------------------------------------
  alpha Z        PSCENC =         0.04931694
  Ewald energy   TEWEN  =       734.44358726
  -Hartree energ DENC   =     -1663.09949521
  -exchange      EXHF   =         0.00000000
  -V(xc)+E(xc)   XCENC  =        67.78467191
  PAW double counting   =       590.90175278     -591.39117139
  entropy T*S    EENTRO =        -0.00314753
  eigenvalues    EBANDS =      -159.51809578
  atomic energy  EATOM  =      1141.34479484
  Solvation  Ediel_sol  =         0.00000000
  ---------------------------------------------------
  free energy    TOTEN  =       120.51221383 eV

  energy without entropy =      120.51536135  energy(sigma->0) =      120.51378759


--------------------------------------------------------------------------------------------------------




--------------------------------------- Iteration      1(   2)  ---------------------------------------


     EDDAV:  cpu time     32.4213: real time     32.4290
       DOS:  cpu time      0.0041: real time      0.0041
    --------------------------------------------
      LOOP:  cpu time     32.4254: real time     32.4331

 eigenvalue-minimisations  :  8224
 total energy-change (2. order) :-0.1283090E+03  (-0.1201697E+03)
 number of electron      18.0000000 magnetization       3.0000000
 augmentation part       18.0000000 magnetization       3.0000000

 Free energy of the ion-electron system (eV)
  ---------------------------------------------------
  alpha Z        PSCENC =         0.04931694
  Ewald energy   TEWEN  =       734.44358726
  -Hartree energ DENC   =     -1663.09949521
  -exchange      EXHF   =         0.00000000
  -V(xc)+E(xc)   XCENC  =        67.78467191
  PAW double counting   =       590.90175278     -591.39117139
  entropy T*S    EENTRO =        -0.00000000
  eigenvalues    EBANDS =      -287.83022836
  atomic energy  EATOM  =      1141.34479484
  Solvation  Ediel_sol  =         0.00000000
  ---------------------------------------------------
  free energy    TOTEN  =        -7.79677122 eV

  energy without entropy =       -7.79677122  energy(sigma->0) =       -7.79677122


--------------------------------------------------------------------------------------------------------




--------------------------------------- Iteration      1(   3)  ---------------------------------------


     EDDAV:  cpu time     39.6620: real time     39.6658
       DOS:  cpu time      0.0007: real time      0.0007
    --------------------------------------------
      LOOP:  cpu time     39.6627: real time     39.6665

 eigenvalue-minimisations  : 10400
 total energy-change (2. order) :-0.1098503E+02  (-0.1093982E+02)
 number of electron      18.0000000 magnetization       3.0000000
 augmentation part       18.0000000 magnetization       3.0000000

 Free energy of the ion-electron system (eV)
  ---------------------------------------------------
  alpha Z        PSCENC =         0.04931694
  Ewald energy   TEWEN  =       734.44358726
  -Hartree energ DENC   =     -1663.09949521
  -exchange      EXHF   =         0.00000000
  -V(xc)+E(xc)   XCENC  =        67.78467191
  PAW double counting   =       590.90175278     -591.39117139
  entropy T*S    EENTRO =        -0.00000000
  eigenvalues    EBANDS =      -298.81525942
  atomic energy  EATOM  =      1141.34479484
  Solvation  Ediel_sol  =         0.00000000
  ---------------------------------------------------
  free energy    TOTEN  =       -18.78180228 eV

  energy without entropy =      -18.78180228  energy(sigma->0) =      -18.78180228


--------------------------------------------------------------------------------------------------------




--------------------------------------- Iteration      1(   4)  ---------------------------------------


     EDDAV:  cpu time     34.2965: real time     34.3028
       DOS:  cpu time      0.0951: real time      0.0951
    --------------------------------------------
      LOOP:  cpu time     34.3916: real time     34.3979

 eigenvalue-minimisations  :  8768
 total energy-change (2. order) :-0.9748864E-01  (-0.9742397E-01)
 number of electron      18.0000000 magnetization       3.0000000
 augmentation part       18.0000000 magnetization       3.0000000

 Free energy of the ion-electron system (eV)
  ---------------------------------------------------
  alpha Z        PSCENC =         0.04931694
  Ewald energy   TEWEN  =       734.44358726
  -Hartree energ DENC   =     -1663.09949521
  -exchange      EXHF   =         0.00000000
  -V(xc)+E(xc)   XCENC  =        67.78467191
  PAW double counting   =       590.90175278     -591.39117139
  entropy T*S    EENTRO =        -0.00000000
  eigenvalues    EBANDS =      -298.91274806
  atomic energy  EATOM  =      1141.34479484
  Solvation  Ediel_sol  =         0.00000000
  ---------------------------------------------------
  free energy    TOTEN  =       -18.87929092 eV

  energy without entropy =      -18.87929092  energy(sigma->0) =      -18.87929092


--------------------------------------------------------------------------------------------------------




--------------------------------------- Iteration      1(   5)  ---------------------------------------


     EDDAV:  cpu time     34.2821: real time     34.2890
       DOS:  cpu time      0.0734: real time      0.0734
    CHARGE:  cpu time      1.9429: real time      1.9449
    MIXING:  cpu time      0.0352: real time      0.0353
    --------------------------------------------
      LOOP:  cpu time     36.3337: real time     36.3426

 eigenvalue-minimisations  :  8864
 total energy-change (2. order) :-0.9404907E-03  (-0.9403704E-03)
 number of electron      17.9999989 magnetization       2.8869031
 augmentation part        0.7355396 magnetization       2.9248440

 Broyden mixing:
  rms(total) = 0.13724E+01    rms(broyden)= 0.13715E+01
  rms(prec ) = 0.13912E+01
  weight for this iteration     100.00

 Free energy of the ion-electron system (eV)
  ---------------------------------------------------
  alpha Z        PSCENC =         0.04931694
  Ewald energy   TEWEN  =       734.44358726
  -Hartree energ DENC   =     -1663.09949521
  -exchange      EXHF   =         0.00000000
  -V(xc)+E(xc)   XCENC  =        67.78467191
  PAW double counting   =       590.90175278     -591.39117139
  entropy T*S    EENTRO =        -0.00000000
  eigenvalues    EBANDS =      -298.91368855
  atomic energy  EATOM  =      1141.34479484
  Solvation  Ediel_sol  =         0.00000000
  ---------------------------------------------------
  free energy    TOTEN  =       -18.88023141 eV

  energy without entropy =      -18.88023141  energy(sigma->0) =      -18.88023141


--------------------------------------------------------------------------------------------------------




--------------------------------------- Iteration      1(   6)  ---------------------------------------


    POTLOK:  cpu time      0.7797: real time      0.7800
    SETDIJ:  cpu time      0.0031: real time      0.0031
     EDDAV:  cpu time     30.7089: real time     30.7115
       DOS:  cpu time      0.0130: real time      0.0130
    CHARGE:  cpu time      1.8836: real time      1.8853
    MIXING:  cpu time      0.0251: real time      0.0251
    --------------------------------------------
      LOOP:  cpu time     33.4135: real time     33.4180

 eigenvalue-minimisations  :  7648
 total energy-change (2. order) : 0.1028846E+02  (-0.2466592E+01)
 number of electron      17.9999992 magnetization       2.7889587
 augmentation part        0.3557371 magnetization       2.7386059

 Broyden mixing:
  rms(total) = 0.42401E+00    rms(broyden)= 0.42260E+00
  rms(prec ) = 0.42590E+00
  weight for this iteration     100.00

 eigenvalues of (default mixing * dielectric matrix)
  average eigenvalue GAMMA=   0.9092
  0.9092

 Free energy of the ion-electron system (eV)
  ---------------------------------------------------
  alpha Z        PSCENC =         0.04931694
  Ewald energy   TEWEN  =       734.44358726
  -Hartree energ DENC   =     -1692.29997561
  -exchange      EXHF   =         0.00000000
  -V(xc)+E(xc)   XCENC  =        76.06660129
  PAW double counting   =       675.05186757     -675.89792233
  entropy T*S    EENTRO =        -0.00000000
  eigenvalues    EBANDS =      -267.35004393
  atomic energy  EATOM  =      1141.34479484
  Solvation  Ediel_sol  =         0.00000000
  ---------------------------------------------------
  free energy    TOTEN  =        -8.59177397 eV

  energy without entropy =       -8.59177397  energy(sigma->0) =       -8.59177397


--------------------------------------------------------------------------------------------------------




--------------------------------------- Iteration      1(   7)  ---------------------------------------


    POTLOK:  cpu time      0.7395: real time      0.7411
    SETDIJ:  cpu time      0.0092: real time      0.0092
     EDDAV:  cpu time     30.6730: real time     30.6753
       DOS:  cpu time      0.0077: real time      0.0077
    CHARGE:  cpu time      1.8589: real time      1.8595
    MIXING:  cpu time      0.0252: real time      0.0253
    --------------------------------------------
      LOOP:  cpu time     33.3135: real time     33.3182

 eigenvalue-minimisations  :  7648
 total energy-change (2. order) :-0.4111528E+01  (-0.2066685E+00)
 number of electron      17.9999991 magnetization       2.6111868
 augmentation part        0.3799084 magnetization       2.5804150

 Broyden mixing:
  rms(total) = 0.24854E+00    rms(broyden)= 0.24852E+00
  rms(prec ) = 0.25054E+00
  weight for this iteration     100.00

 eigenvalues of (default mixing * dielectric matrix)
  average eigenvalue GAMMA=   1.0818
  1.0818  1.0818

 Free energy of the ion-electron system (eV)
  ---------------------------------------------------
  alpha Z        PSCENC =         0.04931694
  Ewald energy   TEWEN  =       734.44358726
  -Hartree energ DENC   =     -1694.03249569
  -exchange      EXHF   =         0.00000000
  -V(xc)+E(xc)   XCENC  =        72.97847629
  PAW double counting   =       690.26208290     -690.97144369
  entropy T*S    EENTRO =        -0.00000000
  eigenvalues    EBANDS =      -266.77762102
  atomic energy  EATOM  =      1141.34479484
  Solvation  Ediel_sol  =         0.00000000
  ---------------------------------------------------
  free energy    TOTEN  =       -12.70330218 eV

  energy without entropy =      -12.70330218  energy(sigma->0) =      -12.70330218


--------------------------------------------------------------------------------------------------------




--------------------------------------- Iteration      1(   8)  ---------------------------------------


    POTLOK:  cpu time      0.7467: real time      0.7471
    SETDIJ:  cpu time      0.0069: real time      0.0069
     EDDAV:  cpu time     31.0766: real time     31.0790
       DOS:  cpu time      0.0007: real time      0.0007
    CHARGE:  cpu time      1.6854: real time      1.6877
    MIXING:  cpu time      0.0263: real time      0.0263
    --------------------------------------------
      LOOP:  cpu time     33.5425: real time     33.5477

 eigenvalue-minimisations  :  7808
 total energy-change (2. order) :-0.2459116E+01  (-0.1228228E+00)
 number of electron      17.9999991 magnetization       2.4894262
 augmentation part        0.4027666 magnetization       2.4803137

 Broyden mixing:
  rms(total) = 0.10598E+00    rms(broyden)= 0.10590E+00
  rms(prec ) = 0.10694E+00
  weight for this iteration     100.00

 eigenvalues of (default mixing * dielectric matrix)
  average eigenvalue GAMMA=   1.2134
  1.9011  1.0393  0.6998

 Free energy of the ion-electron system (eV)
  ---------------------------------------------------
  alpha Z        PSCENC =         0.04931694
  Ewald energy   TEWEN  =       734.44358726
  -Hartree energ DENC   =     -1696.38643266
  -exchange      EXHF   =         0.00000000
  -V(xc)+E(xc)   XCENC  =        71.02342426
  PAW double counting   =       710.26563270     -710.89676470
  entropy T*S    EENTRO =        -0.00000000
  eigenvalues    EBANDS =      -265.00597680
  atomic energy  EATOM  =      1141.34479484
  Solvation  Ediel_sol  =         0.00000000
  ---------------------------------------------------
  free energy    TOTEN  =       -15.16241815 eV

  energy without entropy =      -15.16241815  energy(sigma->0) =      -15.16241815


--------------------------------------------------------------------------------------------------------




--------------------------------------- Iteration      1(   9)  ---------------------------------------


    POTLOK:  cpu time      0.7481: real time      0.7495
    SETDIJ:  cpu time      0.0160: real time      0.0160
     EDDAV:  cpu time     31.3029: real time     31.3053
       DOS:  cpu time      0.0008: real time      0.0008
    CHARGE:  cpu time      1.8361: real time      1.8378
    MIXING:  cpu time      0.0265: real time      0.0264
    --------------------------------------------
      LOOP:  cpu time     33.9303: real time     33.9358

 eigenvalue-minimisations  :  7776
 total energy-change (2. order) :-0.5832862E+00  (-0.8429365E-02)
 number of electron      17.9999992 magnetization       2.3565991
 augmentation part        0.3971398 magnetization       2.3504154

 Broyden mixing:
  rms(total) = 0.56991E-01    rms(broyden)= 0.56978E-01
  rms(prec ) = 0.57710E-01
  weight for this iteration     100.00

 eigenvalues of (default mixing * dielectric matrix)
  average eigenvalue GAMMA=   1.2349
  2.2362  1.0021  1.0021  0.6992

 Free energy of the ion-electron system (eV)
  ---------------------------------------------------
  alpha Z        PSCENC =         0.04931694
  Ewald energy   TEWEN  =       734.44358726
  -Hartree energ DENC   =     -1696.63993847
  -exchange      EXHF   =         0.00000000
  -V(xc)+E(xc)   XCENC  =        70.56504004
  PAW double counting   =       716.29790927     -716.90429428
  entropy T*S    EENTRO =        -0.00000000
  eigenvalues    EBANDS =      -264.90211997
  atomic energy  EATOM  =      1141.34479484
  Solvation  Ediel_sol  =         0.00000000
  ---------------------------------------------------
  free energy    TOTEN  =       -15.74570437 eV

  energy without entropy =      -15.74570437  energy(sigma->0) =      -15.74570437


--------------------------------------------------------------------------------------------------------




--------------------------------------- Iteration      1(  10)  ---------------------------------------


    POTLOK:  cpu time      0.7417: real time      0.7421
    SETDIJ:  cpu time      0.0027: real time      0.0027
     EDDAV:  cpu time     30.8591: real time     30.8614
       DOS:  cpu time      0.0007: real time      0.0007
    CHARGE:  cpu time      1.8257: real time      1.8274
    MIXING:  cpu time      0.0270: real time      0.0270
    --------------------------------------------
      LOOP:  cpu time     33.4569: real time     33.4613

 eigenvalue-minimisations  :  7680
 total energy-change (2. order) :-0.2639736E+00  (-0.2315921E-02)
 number of electron      17.9999992 magnetization       2.1851464
 augmentation part        0.3915071 magnetization       2.1806727

 Broyden mixing:
  rms(total) = 0.41521E-01    rms(broyden)= 0.41517E-01
  rms(prec ) = 0.41910E-01
  weight for this iteration     100.00

 eigenvalues of (default mixing * dielectric matrix)
  average eigenvalue GAMMA=   1.2743
  2.4672  1.3795  0.9212  0.9212  0.6823

 Free energy of the ion-electron system (eV)
  ---------------------------------------------------
  alpha Z        PSCENC =         0.04931694
  Ewald energy   TEWEN  =       734.44358726
  -Hartree energ DENC   =     -1695.95796347
  -exchange      EXHF   =         0.00000000
  -V(xc)+E(xc)   XCENC  =        70.30736251
  PAW double counting   =       717.03634195     -717.61773826
  entropy T*S    EENTRO =        -0.00000000
  eigenvalues    EBANDS =      -265.61537979
  atomic energy  EATOM  =      1141.34479484
  Solvation  Ediel_sol  =         0.00000000
  ---------------------------------------------------
  free energy    TOTEN  =       -16.00967801 eV

  energy without entropy =      -16.00967801  energy(sigma->0) =      -16.00967801


--------------------------------------------------------------------------------------------------------




--------------------------------------- Iteration      1(  11)  ---------------------------------------


    POTLOK:  cpu time      0.7392: real time      0.7433
    SETDIJ:  cpu time      0.0073: real time      0.0073
     EDDAV:  cpu time     30.3189: real time     30.3213
       DOS:  cpu time      0.0008: real time      0.0008
    CHARGE:  cpu time      1.7013: real time      1.7038
    MIXING:  cpu time      0.0265: real time      0.0265
    --------------------------------------------
      LOOP:  cpu time     32.7940: real time     32.8031

 eigenvalue-minimisations  :  7520
 total energy-change (2. order) :-0.1741107E+00  (-0.1176596E-02)
 number of electron      17.9999992 magnetization       1.9976596
 augmentation part        0.3915287 magnetization       1.9939241

 Broyden mixing:
  rms(total) = 0.30749E-01    rms(broyden)= 0.30747E-01
  rms(prec ) = 0.30967E-01
  weight for this iteration     100.00

 eigenvalues of (default mixing * dielectric matrix)
  average eigenvalue GAMMA=   1.3664
  2.7663  1.9797  1.0189  1.0189  0.7563  0.6582

 Free energy of the ion-electron system (eV)
  ---------------------------------------------------
  alpha Z        PSCENC =         0.04931694
  Ewald energy   TEWEN  =       734.44358726
  -Hartree energ DENC   =     -1694.99484336
  -exchange      EXHF   =         0.00000000
  -V(xc)+E(xc)   XCENC  =        70.10604633
  PAW double counting   =       715.81463684     -716.37800445
  entropy T*S    EENTRO =        -0.00000000
  eigenvalues    EBANDS =      -266.56932310
  atomic energy  EATOM  =      1141.34479484
  Solvation  Ediel_sol  =         0.00000000
  ---------------------------------------------------
  free energy    TOTEN  =       -16.18378869 eV

  energy without entropy =      -16.18378869  energy(sigma->0) =      -16.18378869


--------------------------------------------------------------------------------------------------------




--------------------------------------- Iteration      1(  12)  ---------------------------------------


    POTLOK:  cpu time      0.7448: real time      0.7488
    SETDIJ:  cpu time      0.0084: real time      0.0084
     EDDAV:  cpu time     30.5513: real time     30.5541
       DOS:  cpu time      0.0027: real time      0.0027
    CHARGE:  cpu time      1.7762: real time      1.7783
    MIXING:  cpu time      0.0272: real time      0.0272
    --------------------------------------------
      LOOP:  cpu time     33.1107: real time     33.1195

 eigenvalue-minimisations  :  7552
 total energy-change (2. order) :-0.1983011E+00  (-0.7219326E-03)
 number of electron      17.9999992 magnetization       1.6909575
 augmentation part        0.3911207 magnetization       1.6884599

 Broyden mixing:
  rms(total) = 0.22895E-01    rms(broyden)= 0.22894E-01
  rms(prec ) = 0.23032E-01
  weight for this iteration     100.00

 eigenvalues of (default mixing * dielectric matrix)
  average eigenvalue GAMMA=   1.5850
  4.0411  2.3417  1.2631  1.0406  1.0406  0.7317  0.6364

 Free energy of the ion-electron system (eV)
  ---------------------------------------------------
  alpha Z        PSCENC =         0.04931694
  Ewald energy   TEWEN  =       734.44358726
  -Hartree energ DENC   =     -1694.50477575
  -exchange      EXHF   =         0.00000000
  -V(xc)+E(xc)   XCENC  =        69.90016728
  PAW double counting   =       714.99168764     -715.54895989
  entropy T*S    EENTRO =        -0.00000000
  eigenvalues    EBANDS =      -267.05790808
  atomic energy  EATOM  =      1141.34479484
  Solvation  Ediel_sol  =         0.00000000
  ---------------------------------------------------
  free energy    TOTEN  =       -16.38208976 eV

  energy without entropy =      -16.38208976  energy(sigma->0) =      -16.38208976


--------------------------------------------------------------------------------------------------------




--------------------------------------- Iteration      1(  13)  ---------------------------------------


    POTLOK:  cpu time      0.7497: real time      0.7551
    SETDIJ:  cpu time      0.0025: real time      0.0025
     EDDAV:  cpu time     31.4264: real time     31.4288
       DOS:  cpu time      0.0007: real time      0.0007
    CHARGE:  cpu time      1.6864: real time      1.6892
    MIXING:  cpu time      0.0264: real time      0.0264
    --------------------------------------------
      LOOP:  cpu time     33.8921: real time     33.9028

 eigenvalue-minimisations  :  7904
 total energy-change (2. order) :-0.3563021E+00  (-0.1100812E-02)
 number of electron      17.9999992 magnetization       1.5425430
 augmentation part        0.3894718 magnetization       1.5413885

 Broyden mixing:
  rms(total) = 0.15114E-01    rms(broyden)= 0.15112E-01
  rms(prec ) = 0.15185E-01
  weight for this iteration     100.00

 eigenvalues of (default mixing * dielectric matrix)
  average eigenvalue GAMMA=   1.6839
  5.3397  2.3909  1.5205  1.0175  1.0175  0.8447  0.7135  0.6266

 Free energy of the ion-electron system (eV)
  ---------------------------------------------------
  alpha Z        PSCENC =         0.04931694
  Ewald energy   TEWEN  =       734.44358726
  -Hartree energ DENC   =     -1694.17320473
  -exchange      EXHF   =         0.00000000
  -V(xc)+E(xc)   XCENC  =        69.54481507
  PAW double counting   =       714.54088264     -715.09891788
  entropy T*S    EENTRO =        -0.00000000
  eigenvalues    EBANDS =      -267.38966605
  atomic energy  EATOM  =      1141.34479484
  Solvation  Ediel_sol  =         0.00000000
  ---------------------------------------------------
  free energy    TOTEN  =       -16.73839190 eV

  energy without entropy =      -16.73839190  energy(sigma->0) =      -16.73839190


--------------------------------------------------------------------------------------------------------




--------------------------------------- Iteration      1(  14)  ---------------------------------------


    POTLOK:  cpu time      0.7410: real time      0.7455
    SETDIJ:  cpu time      0.0064: real time      0.0064
     EDDAV:  cpu time     32.0293: real time     32.0317
       DOS:  cpu time      0.0919: real time      0.0919
    CHARGE:  cpu time      2.6815: real time      2.6840
    MIXING:  cpu time      0.0268: real time      0.0268
    --------------------------------------------
      LOOP:  cpu time     35.5770: real time     35.5863

 eigenvalue-minimisations  :  7904
 total energy-change (2. order) :-0.1188002E+00  (-0.1494812E-03)
 number of electron      17.9999992 magnetization       1.2849383
 augmentation part        0.3901131 magnetization       1.2846807

 Broyden mixing:
  rms(total) = 0.12341E-01    rms(broyden)= 0.12340E-01
  rms(prec ) = 0.12380E-01
  weight for this iteration     100.00

 eigenvalues of (default mixing * dielectric matrix)
  average eigenvalue GAMMA=   1.8045
  6.2345  2.4574  2.0993  1.3611  0.9920  0.9920  0.7816  0.6990  0.6232

 Free energy of the ion-electron system (eV)
  ---------------------------------------------------
  alpha Z        PSCENC =         0.04931694
  Ewald energy   TEWEN  =       734.44358726
  -Hartree energ DENC   =     -1694.02286377
  -exchange      EXHF   =         0.00000000
  -V(xc)+E(xc)   XCENC  =        69.42181888
  PAW double counting   =       714.50842593     -715.06747183
  entropy T*S    EENTRO =        -0.00000000
  eigenvalues    EBANDS =      -267.53480039
  atomic energy  EATOM  =      1141.34479484
  Solvation  Ediel_sol  =         0.00000000
  ---------------------------------------------------
  free energy    TOTEN  =       -16.85719213 eV

  energy without entropy =      -16.85719213  energy(sigma->0) =      -16.85719213


--------------------------------------------------------------------------------------------------------




--------------------------------------- Iteration      1(  15)  ---------------------------------------


    POTLOK:  cpu time      0.7383: real time      0.7451
    SETDIJ:  cpu time      0.0038: real time      0.0038
     EDDAV:  cpu time     31.4502: real time     31.4524
       DOS:  cpu time      0.0007: real time      0.0007
    CHARGE:  cpu time      1.6926: real time      1.6950
    MIXING:  cpu time      0.0347: real time      0.0347
    --------------------------------------------
      LOOP:  cpu time     33.9202: real time     33.9317

 eigenvalue-minimisations  :  7872
 total energy-change (2. order) :-0.1057494E+00  (-0.8700015E-04)
 number of electron      17.9999992 magnetization       1.1074653
 augmentation part        0.3909295 magnetization       1.1077129

 Broyden mixing:
  rms(total) = 0.93764E-02    rms(broyden)= 0.93756E-02
  rms(prec ) = 0.93989E-02
  weight for this iteration     100.00

 eigenvalues of (default mixing * dielectric matrix)
  average eigenvalue GAMMA=   1.9464
  7.5349  3.1506  2.3310  1.4227  1.1545  0.9140  0.9140  0.7384  0.6194  0.6840

 Free energy of the ion-electron system (eV)
  ---------------------------------------------------
  alpha Z        PSCENC =         0.04931694
  Ewald energy   TEWEN  =       734.44358726
  -Hartree energ DENC   =     -1693.84013162
  -exchange      EXHF   =         0.00000000
  -V(xc)+E(xc)   XCENC  =        69.31117835
  PAW double counting   =       714.67537870     -715.23641166
  entropy T*S    EENTRO =        -0.00000000
  eigenvalues    EBANDS =      -267.71065430
  atomic energy  EATOM  =      1141.34479484
  Solvation  Ediel_sol  =         0.00000000
  ---------------------------------------------------
  free energy    TOTEN  =       -16.96294148 eV

  energy without entropy =      -16.96294148  energy(sigma->0) =      -16.96294148


--------------------------------------------------------------------------------------------------------




--------------------------------------- Iteration      1(  16)  ---------------------------------------


    POTLOK:  cpu time      0.7438: real time      0.7476
    SETDIJ:  cpu time      0.0058: real time      0.0058
     EDDAV:  cpu time     31.3160: real time     31.3193
       DOS:  cpu time      0.0008: real time      0.0008
    CHARGE:  cpu time      1.7765: real time      1.7786
    MIXING:  cpu time      0.0279: real time      0.0279
    --------------------------------------------
      LOOP:  cpu time     33.8708: real time     33.8800

 eigenvalue-minimisations  :  7872
 total energy-change (2. order) :-0.3964434E-01  (-0.1446273E-04)
 number of electron      17.9999992 magnetization       0.9406574
 augmentation part        0.3903844 magnetization       0.9406776

 Broyden mixing:
  rms(total) = 0.74906E-02    rms(broyden)= 0.74905E-02
  rms(prec ) = 0.75035E-02
  weight for this iteration     100.00

 eigenvalues of (default mixing * dielectric matrix)
  average eigenvalue GAMMA=   2.0177
  8.5439  3.5734  2.3407  1.6299  1.3159  0.9498  0.9498  0.8849  0.7225  0.6184
  0.6657

 Free energy of the ion-electron system (eV)
  ---------------------------------------------------
  alpha Z        PSCENC =         0.04931694
  Ewald energy   TEWEN  =       734.44358726
  -Hartree energ DENC   =     -1693.79693284
  -exchange      EXHF   =         0.00000000
  -V(xc)+E(xc)   XCENC  =        69.27284012
  PAW double counting   =       714.78931614     -715.35095057
  entropy T*S    EENTRO =        -0.00000000
  eigenvalues    EBANDS =      -267.75455771
  atomic energy  EATOM  =      1141.34479484
  Solvation  Ediel_sol  =         0.00000000
  ---------------------------------------------------
  free energy    TOTEN  =       -17.00258582 eV

  energy without entropy =      -17.00258582  energy(sigma->0) =      -17.00258582


--------------------------------------------------------------------------------------------------------




--------------------------------------- Iteration      1(  17)  ---------------------------------------


    POTLOK:  cpu time      0.7395: real time      0.7457
    SETDIJ:  cpu time      0.0131: real time      0.0131
     EDDAV:  cpu time     30.7401: real time     30.7431
       DOS:  cpu time      0.0007: real time      0.0007
    CHARGE:  cpu time      1.7796: real time      1.7813
    MIXING:  cpu time      0.0279: real time      0.0279
    --------------------------------------------
      LOOP:  cpu time     33.3009: real time     33.3120

 eigenvalue-minimisations  :  7648
 total energy-change (2. order) :-0.2350270E-01  (-0.6012800E-05)
 number of electron      17.9999992 magnetization       0.7188600
 augmentation part        0.3900723 magnetization       0.7187575

 Broyden mixing:
  rms(total) = 0.62289E-02    rms(broyden)= 0.62288E-02
  rms(prec ) = 0.62388E-02
  weight for this iteration     100.00

 eigenvalues of (default mixing * dielectric matrix)
  average eigenvalue GAMMA=   2.1578
  9.6881  4.2996  2.3650  2.2545  1.3717  1.2561  0.9344  0.9344  0.7934  0.7234
  0.6215  0.6514

 Free energy of the ion-electron system (eV)
  ---------------------------------------------------
  alpha Z        PSCENC =         0.04931694
  Ewald energy   TEWEN  =       734.44358726
  -Hartree energ DENC   =     -1693.74475430
  -exchange      EXHF   =         0.00000000
  -V(xc)+E(xc)   XCENC  =        69.24884044
  PAW double counting   =       714.69968016     -715.26004486
  entropy T*S    EENTRO =        -0.00000000
  eigenvalues    EBANDS =      -267.80750900
  atomic energy  EATOM  =      1141.34479484
  Solvation  Ediel_sol  =         0.00000000
  ---------------------------------------------------
  free energy    TOTEN  =       -17.02608851 eV

  energy without entropy =      -17.02608851  energy(sigma->0) =      -17.02608851


--------------------------------------------------------------------------------------------------------




--------------------------------------- Iteration      1(  18)  ---------------------------------------


    POTLOK:  cpu time      0.7425: real time      0.7430
    SETDIJ:  cpu time      0.0140: real time      0.0140
     EDDAV:  cpu time     31.2950: real time     31.2975
       DOS:  cpu time      0.0006: real time      0.0006
    CHARGE:  cpu time      1.8243: real time      1.8269
    MIXING:  cpu time      0.0278: real time      0.0278
    --------------------------------------------
      LOOP:  cpu time     33.9044: real time     33.9099

 eigenvalue-minimisations  :  7840
 total energy-change (2. order) :-0.1283577E-01  (-0.6119591E-05)
 number of electron      17.9999992 magnetization       0.5815191
 augmentation part        0.3902579 magnetization       0.5814038

 Broyden mixing:
  rms(total) = 0.49381E-02    rms(broyden)= 0.49380E-02
  rms(prec ) = 0.49489E-02
  weight for this iteration     100.00

 eigenvalues of (default mixing * dielectric matrix)
  average eigenvalue GAMMA=   2.2444
 10.7734  5.1319  2.7041  2.2687  1.5238  1.2591  0.9339  0.9339  0.9347  0.7257
  0.7257  0.6241  0.6380

 Free energy of the ion-electron system (eV)
  ---------------------------------------------------
  alpha Z        PSCENC =         0.04931694
  Ewald energy   TEWEN  =       734.44358726
  -Hartree energ DENC   =     -1693.70684250
  -exchange      EXHF   =         0.00000000
  -V(xc)+E(xc)   XCENC  =        69.23538646
  PAW double counting   =       714.62005935     -715.17903671
  entropy T*S    EENTRO =        -0.00000000
  eigenvalues    EBANDS =      -267.84618992
  atomic energy  EATOM  =      1141.34479484
  Solvation  Ediel_sol  =         0.00000000
  ---------------------------------------------------
  free energy    TOTEN  =       -17.03892428 eV

  energy without entropy =      -17.03892428  energy(sigma->0) =      -17.03892428


--------------------------------------------------------------------------------------------------------




--------------------------------------- Iteration      1(  19)  ---------------------------------------


    POTLOK:  cpu time      0.7360: real time      0.7421
    SETDIJ:  cpu time      0.0120: real time      0.0120
     EDDAV:  cpu time     31.3062: real time     31.3086
       DOS:  cpu time      0.0099: real time      0.0100
    CHARGE:  cpu time      1.7925: real time      1.7961
    MIXING:  cpu time      0.0286: real time      0.0286
    --------------------------------------------
      LOOP:  cpu time     33.8852: real time     33.8972

 eigenvalue-minimisations  :  7840
 total energy-change (2. order) : 0.6656663E-03  (-0.3878938E-05)
 number of electron      17.9999992 magnetization       0.3339559
 augmentation part        0.3902482 magnetization       0.3338509

 Broyden mixing:
  rms(total) = 0.41628E-02    rms(broyden)= 0.41627E-02
  rms(prec ) = 0.41724E-02
  weight for this iteration     100.00

 eigenvalues of (default mixing * dielectric matrix)
  average eigenvalue GAMMA=   2.3833
 11.9503  5.9054  3.1678  2.2945  2.0072  1.3126  1.3126  0.9489  0.9489  0.8308
  0.7395  0.6933  0.6213  0.6331

 Free energy of the ion-electron system (eV)
  ---------------------------------------------------
  alpha Z        PSCENC =         0.04931694
  Ewald energy   TEWEN  =       734.44358726
  -Hartree energ DENC   =     -1693.74325690
  -exchange      EXHF   =         0.00000000
  -V(xc)+E(xc)   XCENC  =        69.23806848
  PAW double counting   =       714.69380032     -715.25312852
  entropy T*S    EENTRO =        -0.00000000
  eigenvalues    EBANDS =      -267.81144103
  atomic energy  EATOM  =      1141.34479484
  Solvation  Ediel_sol  =         0.00000000
  ---------------------------------------------------
  free energy    TOTEN  =       -17.03825861 eV

  energy without entropy =      -17.03825861  energy(sigma->0) =      -17.03825861


--------------------------------------------------------------------------------------------------------




--------------------------------------- Iteration      1(  20)  ---------------------------------------


    POTLOK:  cpu time      0.7461: real time      0.7517
    SETDIJ:  cpu time      0.0089: real time      0.0089
     EDDAV:  cpu time     31.3799: real time     31.3824
       DOS:  cpu time      0.0006: real time      0.0006
    CHARGE:  cpu time      1.7777: real time      1.7824
    MIXING:  cpu time      0.0285: real time      0.0285
    --------------------------------------------
      LOOP:  cpu time     33.9417: real time     33.9545

 eigenvalue-minimisations  :  7744
 total energy-change (2. order) : 0.2849690E-02  (-0.1604091E-04)
 number of electron      17.9999992 magnetization       0.1764380
 augmentation part        0.3900817 magnetization       0.1763723

 Broyden mixing:
  rms(total) = 0.29191E-02    rms(broyden)= 0.29190E-02
  rms(prec ) = 0.29320E-02
  weight for this iteration     100.00

 eigenvalues of (default mixing * dielectric matrix)
  average eigenvalue GAMMA=   2.5765
 13.9126  7.0070  3.9432  2.4963  2.1460  1.5504  1.1732  1.1074  0.9276  0.9276
  0.7615  0.7615  0.6827  0.6173  0.6326

 Free energy of the ion-electron system (eV)
  ---------------------------------------------------
  alpha Z        PSCENC =         0.04931694
  Ewald energy   TEWEN  =       734.44358726
  -Hartree energ DENC   =     -1693.79749198
  -exchange      EXHF   =         0.00000000
  -V(xc)+E(xc)   XCENC  =        69.24269453
  PAW double counting   =       714.73633710     -715.29677718
  entropy T*S    EENTRO =        -0.00000000
  eigenvalues    EBANDS =      -267.75787045
  atomic energy  EATOM  =      1141.34479484
  Solvation  Ediel_sol  =         0.00000000
  ---------------------------------------------------
  free energy    TOTEN  =       -17.03540892 eV

  energy without entropy =      -17.03540892  energy(sigma->0) =      -17.03540892


--------------------------------------------------------------------------------------------------------




--------------------------------------- Iteration      1(  21)  ---------------------------------------


    POTLOK:  cpu time      0.7387: real time      0.7425
    SETDIJ:  cpu time      0.0103: real time      0.0103
     EDDAV:  cpu time     31.2117: real time     31.2158
       DOS:  cpu time      0.0022: real time      0.0022
    CHARGE:  cpu time      1.8477: real time      1.8530
    MIXING:  cpu time      0.0292: real time      0.0292
    --------------------------------------------
      LOOP:  cpu time     33.8399: real time     33.8531

 eigenvalue-minimisations  :  7744
 total energy-change (2. order) :-0.2228068E-02  (-0.4511688E-05)
 number of electron      17.9999992 magnetization       0.0755436
 augmentation part        0.3903249 magnetization       0.0755697

 Broyden mixing:
  rms(total) = 0.18211E-02    rms(broyden)= 0.18209E-02
  rms(prec ) = 0.18326E-02
  weight for this iteration     100.00

 eigenvalues of (default mixing * dielectric matrix)
  average eigenvalue GAMMA=   2.8453
 17.3649  8.2414  4.5069  2.6314  2.2552  1.8095  1.2701  1.2701  0.9404  0.9404
  0.8934  0.7409  0.7409  0.6721  0.6164  0.6308

 Free energy of the ion-electron system (eV)
  ---------------------------------------------------
  alpha Z        PSCENC =         0.04931694
  Ewald energy   TEWEN  =       734.44358726
  -Hartree energ DENC   =     -1693.76373907
  -exchange      EXHF   =         0.00000000
  -V(xc)+E(xc)   XCENC  =        69.23798398
  PAW double counting   =       714.63163592     -715.19183205
  entropy T*S    EENTRO =        -0.00000000
  eigenvalues    EBANDS =      -267.78938481
  atomic energy  EATOM  =      1141.34479484
  Solvation  Ediel_sol  =         0.00000000
  ---------------------------------------------------
  free energy    TOTEN  =       -17.03763699 eV

  energy without entropy =      -17.03763699  energy(sigma->0) =      -17.03763699


--------------------------------------------------------------------------------------------------------




--------------------------------------- Iteration      1(  22)  ---------------------------------------


    POTLOK:  cpu time      0.7396: real time      0.7449
    SETDIJ:  cpu time      0.0026: real time      0.0026
     EDDAV:  cpu time     30.7834: real time     30.7858
       DOS:  cpu time      0.0052: real time      0.0052
    CHARGE:  cpu time      1.8445: real time      1.8498
    MIXING:  cpu time      0.0289: real time      0.0289
    --------------------------------------------
      LOOP:  cpu time     33.4042: real time     33.4172

 eigenvalue-minimisations  :  7648
 total energy-change (2. order) :-0.8222510E-02  (-0.1758490E-05)
 number of electron      17.9999992 magnetization       0.0313510
 augmentation part        0.3904011 magnetization       0.0313988

 Broyden mixing:
  rms(total) = 0.12335E-02    rms(broyden)= 0.12334E-02
  rms(prec ) = 0.12461E-02
  weight for this iteration     100.00

 eigenvalues of (default mixing * dielectric matrix)
  average eigenvalue GAMMA=   3.0641
 21.1472  8.9725  4.8579  2.9060  2.3689  1.9180  1.5437  1.1575  1.1575  0.9279
  0.9279  0.8107  0.7716  0.7126  0.6634  0.6179  0.6288

 Free energy of the ion-electron system (eV)
  ---------------------------------------------------
  alpha Z        PSCENC =         0.04931694
  Ewald energy   TEWEN  =       734.44358726
  -Hartree energ DENC   =     -1693.75958156
  -exchange      EXHF   =         0.00000000
  -V(xc)+E(xc)   XCENC  =        69.22969318
  PAW double counting   =       714.64761584     -715.20763393
  entropy T*S    EENTRO =        -0.00000000
  eigenvalues    EBANDS =      -267.79365208
  atomic energy  EATOM  =      1141.34479484
  Solvation  Ediel_sol  =         0.00000000
  ---------------------------------------------------
  free energy    TOTEN  =       -17.04585950 eV

  energy without entropy =      -17.04585950  energy(sigma->0) =      -17.04585950


--------------------------------------------------------------------------------------------------------




--------------------------------------- Iteration      1(  23)  ---------------------------------------


    POTLOK:  cpu time      0.7396: real time      0.7400
    SETDIJ:  cpu time      0.0106: real time      0.0106
     EDDAV:  cpu time     30.9183: real time     30.9213
       DOS:  cpu time      0.0861: real time      0.0861
    CHARGE:  cpu time      1.8578: real time      1.8633
    MIXING:  cpu time      0.0351: real time      0.0351
    --------------------------------------------
      LOOP:  cpu time     33.6475: real time     33.6564

 eigenvalue-minimisations  :  7680
 total energy-change (2. order) :-0.6575490E-02  (-0.1541101E-05)
 number of electron      17.9999992 magnetization       0.0126931
 augmentation part        0.3902633 magnetization       0.0127237

 Broyden mixing:
  rms(total) = 0.65306E-03    rms(broyden)= 0.65292E-03
  rms(prec ) = 0.66153E-03
  weight for this iteration     100.00

 eigenvalues of (default mixing * dielectric matrix)
  average eigenvalue GAMMA=   3.1755
 23.7589  9.3438  5.1375  3.2372  2.3599  2.1963  1.6864  1.2352  1.2352  0.9326
  0.9326  0.9641  0.7660  0.7660  0.7039  0.6568  0.6185  0.6273

 Free energy of the ion-electron system (eV)
  ---------------------------------------------------
  alpha Z        PSCENC =         0.04931694
  Ewald energy   TEWEN  =       734.44358726
  -Hartree energ DENC   =     -1693.78077503
  -exchange      EXHF   =         0.00000000
  -V(xc)+E(xc)   XCENC  =        69.22464096
  PAW double counting   =       714.70180989     -715.26200499
  entropy T*S    EENTRO =        -0.00000000
  eigenvalues    EBANDS =      -267.77380485
  atomic energy  EATOM  =      1141.34479484
  Solvation  Ediel_sol  =         0.00000000
  ---------------------------------------------------
  free energy    TOTEN  =       -17.05243499 eV

  energy without entropy =      -17.05243499  energy(sigma->0) =      -17.05243499


--------------------------------------------------------------------------------------------------------




--------------------------------------- Iteration      1(  24)  ---------------------------------------


    POTLOK:  cpu time      0.7433: real time      0.7459
    SETDIJ:  cpu time      0.0022: real time      0.0022
     EDDAV:  cpu time     30.2101: real time     30.2122
       DOS:  cpu time      0.0013: real time      0.0013
    CHARGE:  cpu time      1.8196: real time      1.8279
    MIXING:  cpu time      0.0365: real time      0.0365
    --------------------------------------------
      LOOP:  cpu time     32.8130: real time     32.8259

 eigenvalue-minimisations  :  7456
 total energy-change (2. order) :-0.4811387E-02  (-0.6922724E-06)
 number of electron      17.9999992 magnetization       0.0053060
 augmentation part        0.3902172 magnetization       0.0053044

 Broyden mixing:
  rms(total) = 0.42928E-03    rms(broyden)= 0.42922E-03
  rms(prec ) = 0.43593E-03
  weight for this iteration     100.00

 eigenvalues of (default mixing * dielectric matrix)
  average eigenvalue GAMMA=   3.1986
 25.1419  9.5671  5.3675  3.5865  2.5076  2.2888  1.7437  1.4655  1.1485  1.1485
  0.9298  0.9298  0.8509  0.7784  0.7297  0.6945  0.6497  0.6173  0.6274

 Free energy of the ion-electron system (eV)
  ---------------------------------------------------
  alpha Z        PSCENC =         0.04931694
  Ewald energy   TEWEN  =       734.44358726
  -Hartree energ DENC   =     -1693.77476258
  -exchange      EXHF   =         0.00000000
  -V(xc)+E(xc)   XCENC  =        69.21977187
  PAW double counting   =       714.68700285     -715.24707314
  entropy T*S    EENTRO =        -0.00000000
  eigenvalues    EBANDS =      -267.77988441
  atomic energy  EATOM  =      1141.34479484
  Solvation  Ediel_sol  =         0.00000000
  ---------------------------------------------------
  free energy    TOTEN  =       -17.05724638 eV

  energy without entropy =      -17.05724638  energy(sigma->0) =      -17.05724638


--------------------------------------------------------------------------------------------------------




--------------------------------------- Iteration      1(  25)  ---------------------------------------


    POTLOK:  cpu time      0.7415: real time      0.7459
    SETDIJ:  cpu time      0.0023: real time      0.0023
     EDDAV:  cpu time     30.8726: real time     30.8750
       DOS:  cpu time      0.0019: real time      0.0019
    CHARGE:  cpu time      1.8329: real time      1.8447
    MIXING:  cpu time      0.0304: real time      0.0304
    --------------------------------------------
      LOOP:  cpu time     33.4816: real time     33.5002

 eigenvalue-minimisations  :  7648
 total energy-change (2. order) :-0.2540341E-02  (-0.3013564E-06)
 number of electron      17.9999992 magnetization       0.0017036
 augmentation part        0.3902548 magnetization       0.0016966

 Broyden mixing:
  rms(total) = 0.23665E-03    rms(broyden)= 0.23660E-03
  rms(prec ) = 0.24094E-03
  weight for this iteration     100.00

 eigenvalues of (default mixing * dielectric matrix)
  average eigenvalue GAMMA=   3.2194
 25.9936  9.7576  5.6664  4.0788  2.7412  2.2655  2.1027  1.5929  1.2255  1.2255
  1.0161  0.9313  0.9313  0.7874  0.7874  0.7164  0.6809  0.6168  0.6423  0.6280

 Free energy of the ion-electron system (eV)
  ---------------------------------------------------
  alpha Z        PSCENC =         0.04931694
  Ewald energy   TEWEN  =       734.44358726
  -Hartree energ DENC   =     -1693.76207184
  -exchange      EXHF   =         0.00000000
  -V(xc)+E(xc)   XCENC  =        69.21659397
  PAW double counting   =       714.67152091     -715.23142745
  entropy T*S    EENTRO =        -0.00000000
  eigenvalues    EBANDS =      -267.79210135
  atomic energy  EATOM  =      1141.34479484
  Solvation  Ediel_sol  =         0.00000000
  ---------------------------------------------------
  free energy    TOTEN  =       -17.05978672 eV

  energy without entropy =      -17.05978672  energy(sigma->0) =      -17.05978672


--------------------------------------------------------------------------------------------------------




--------------------------------------- Iteration      1(  26)  ---------------------------------------


    POTLOK:  cpu time      0.7425: real time      0.7486
    SETDIJ:  cpu time      0.0023: real time      0.0023
     EDDAV:  cpu time     30.6359: real time     30.6391
       DOS:  cpu time      0.0030: real time      0.0030
    CHARGE:  cpu time      1.9654: real time      1.9769
    MIXING:  cpu time      0.0314: real time      0.0314
    --------------------------------------------
      LOOP:  cpu time     33.3805: real time     33.4013

 eigenvalue-minimisations  :  7584
 total energy-change (2. order) :-0.1277600E-02  (-0.1566739E-06)
 number of electron      17.9999992 magnetization       0.0007249
 augmentation part        0.3902613 magnetization       0.0007257

 Broyden mixing:
  rms(total) = 0.13262E-03    rms(broyden)= 0.13260E-03
  rms(prec ) = 0.13585E-03
  weight for this iteration     100.00

 eigenvalues of (default mixing * dielectric matrix)
  average eigenvalue GAMMA=   3.1759
 26.2918  9.8468  5.9270  4.3616  2.9033  2.3892  2.1105  1.5956  1.3849  1.1348
  1.1348  0.9343  0.9343  0.9241  0.8000  0.7512  0.7143  0.6736  0.6378  0.6178
  0.6252

 Free energy of the ion-electron system (eV)
  ---------------------------------------------------
  alpha Z        PSCENC =         0.04931694
  Ewald energy   TEWEN  =       734.44358726
  -Hartree energ DENC   =     -1693.75935852
  -exchange      EXHF   =         0.00000000
  -V(xc)+E(xc)   XCENC  =        69.21510631
  PAW double counting   =       714.67319930     -715.23310985
  entropy T*S    EENTRO =        -0.00000000
  eigenvalues    EBANDS =      -267.79460060
  atomic energy  EATOM  =      1141.34479484
  Solvation  Ediel_sol  =         0.00000000
  ---------------------------------------------------
  free energy    TOTEN  =       -17.06106432 eV

  energy without entropy =      -17.06106432  energy(sigma->0) =      -17.06106432


--------------------------------------------------------------------------------------------------------




--------------------------------------- Iteration      1(  27)  ---------------------------------------


    POTLOK:  cpu time      0.7554: real time      0.7557
    SETDIJ:  cpu time      0.0023: real time      0.0023
     EDDAV:  cpu time     30.8769: real time     30.8798
       DOS:  cpu time      0.0093: real time      0.0093
    CHARGE:  cpu time      1.9859: real time      1.9999
    MIXING:  cpu time      0.0330: real time      0.0330
    --------------------------------------------
      LOOP:  cpu time     33.6629: real time     33.6801

 eigenvalue-minimisations  :  7680
 total energy-change (2. order) :-0.4637109E-03  (-0.4484627E-07)
 number of electron      17.9999992 magnetization       0.0002434
 augmentation part        0.3902507 magnetization       0.0002431

 Broyden mixing:
  rms(total) = 0.79464E-04    rms(broyden)= 0.79438E-04
  rms(prec ) = 0.81720E-04
  weight for this iteration     100.00

 eigenvalues of (default mixing * dielectric matrix)
  average eigenvalue GAMMA=   3.1447
 26.4329  9.9081  6.1968  4.5796  3.1062  2.4843  2.1390  1.8689  1.5556  1.2128
  1.2128  1.0387  0.9315  0.9315  0.8029  0.8029  0.7183  0.7183  0.6677  0.6348
  0.6198  0.6212

 Free energy of the ion-electron system (eV)
  ---------------------------------------------------
  alpha Z        PSCENC =         0.04931694
  Ewald energy   TEWEN  =       734.44358726
  -Hartree energ DENC   =     -1693.76122371
  -exchange      EXHF   =         0.00000000
  -V(xc)+E(xc)   XCENC  =        69.21468055
  PAW double counting   =       714.67533587     -715.23529372
  entropy T*S    EENTRO =        -0.00000000
  eigenvalues    EBANDS =      -267.79272606
  atomic energy  EATOM  =      1141.34479484
  Solvation  Ediel_sol  =         0.00000000
  ---------------------------------------------------
  free energy    TOTEN  =       -17.06152803 eV

  energy without entropy =      -17.06152803  energy(sigma->0) =      -17.06152803


--------------------------------------------------------------------------------------------------------




--------------------------------------- Iteration      1(  28)  ---------------------------------------


    POTLOK:  cpu time      0.7273: real time      0.7338
    SETDIJ:  cpu time      0.0157: real time      0.0157
     EDDAV:  cpu time     30.8910: real time     30.8934
       DOS:  cpu time      0.0034: real time      0.0034
    CHARGE:  cpu time      1.9800: real time      2.0002
    MIXING:  cpu time      0.0324: real time      0.0324
    --------------------------------------------
      LOOP:  cpu time     33.6497: real time     33.6788

 eigenvalue-minimisations  :  7648
 total energy-change (2. order) :-0.3059325E-03  (-0.2410972E-07)
 number of electron      17.9999992 magnetization       0.0000840
 augmentation part        0.3902522 magnetization       0.0000836

 Broyden mixing:
  rms(total) = 0.44552E-04    rms(broyden)= 0.44546E-04
  rms(prec ) = 0.46091E-04
  weight for this iteration     100.00

 eigenvalues of (default mixing * dielectric matrix)
  average eigenvalue GAMMA=   3.1060
 26.4876  9.9455  6.4111  4.7533  3.3426  2.5225  2.3999  1.9911  1.5075  1.3988
  1.1485  1.1485  0.9338  0.9338  0.9658  0.8203  0.7638  0.7129  0.7129  0.6635
  0.6332  0.6185  0.6217

 Free energy of the ion-electron system (eV)
  ---------------------------------------------------
  alpha Z        PSCENC =         0.04931694
  Ewald energy   TEWEN  =       734.44358726
  -Hartree energ DENC   =     -1693.76199040
  -exchange      EXHF   =         0.00000000
  -V(xc)+E(xc)   XCENC  =        69.21436615
  PAW double counting   =       714.67606969     -715.23604439
  entropy T*S    EENTRO =        -0.00000000
  eigenvalues    EBANDS =      -267.79193406
  atomic energy  EATOM  =      1141.34479484
  Solvation  Ediel_sol  =         0.00000000
  ---------------------------------------------------
  free energy    TOTEN  =       -17.06183396 eV

  energy without entropy =      -17.06183396  energy(sigma->0) =      -17.06183396


--------------------------------------------------------------------------------------------------------




--------------------------------------- Iteration      1(  29)  ---------------------------------------


    POTLOK:  cpu time      0.7352: real time      0.7392
    SETDIJ:  cpu time      0.0072: real time      0.0072
     EDDAV:  cpu time     31.0493: real time     31.0517
       DOS:  cpu time      0.0043: real time      0.0043
    CHARGE:  cpu time      1.9522: real time      1.9633
    MIXING:  cpu time      0.0328: real time      0.0328
    --------------------------------------------
      LOOP:  cpu time     33.7810: real time     33.7985

 eigenvalue-minimisations  :  7712
 total energy-change (2. order) :-0.1302985E-03  (-0.1056982E-07)
 number of electron      17.9999992 magnetization       0.0000343
 augmentation part        0.3902570 magnetization       0.0000351

[...]
  244        set_dd_magatom                        0.000000                            1   3
  245        set_dd_paw                            0.005037                            1   3
  246          set_rsgf_all                          0.000001                          1   4
  247          m_sumb_d                              0.005016                          8   4
  248        strkin                                0.037554                            1   3
  249          m_sumb_d                              0.000512                          1   4
  250        strelo                                0.015718                            1   3
  251          m_sumb_d                              0.000177                          2   4
  252        strenl                                3.054386                            1   3
  253          spher                                 0.834270                         19   4
  254          phase                                 0.000004                          9   4
  255          proj1                                 2.217492                        504   4
  256            crexp_mul_wave                        0.583960                     1512   5
  257            m_sumb_d                              0.252620                      504   5
  258          m_sumb_d                              0.000034                          1   4
  259        m_sumb_d                              0.002108                            6   3
  260        fft3d_mpi                             0.272520                           22   3
  261          fftbrc_mpi                            0.264679                         22   4
  262            fftbas_plan_mpi                       0.264667                       22   5
  263              dfftw_execute                         0.077415                     66   6
  264              map_forward                           0.088443                     20   6
  265                map_gather                            0.008479                   10   7
  266                m_alltoallv_z                         0.069379                   10   7
  267                map_scatter                           0.010445                   10   7
  268              map_backward                          0.098444                     24   6
  269                map_gather                            0.013540                   12   7
  270                m_alltoallv_z                         0.075745                   12   7
  271                map_scatter                           0.008962                   12   7
  272        forhar                                0.018546                            2   3
  273          m_sumb_d                              0.000976                          2   4
  274        strehar                               0.009700                            1   3
  275          m_sumb_d                              0.000024                          1   4
  276        chggra                                0.052703                            1   3
  277          fft3d_mpi                             0.035902                          3   4
  278            fftbrc_mpi                            0.035581                        3   5
  279              fftbas_plan_mpi                       0.035578                      3   6
  280                dfftw_execute                         0.010826                    9   7
  281                map_backward                          0.007892                    2   7
  282                  map_gather                            0.000660                  1   8
  283                  m_alltoallv_z                         0.006832                  1   8
  284                  map_scatter                           0.000391                  1   8
  285                map_forward                           0.016812                    4   7
  286                  map_gather                            0.001679                  2   8
  287                  m_alltoallv_z                         0.013016                  2   8
  288                  map_scatter                           0.002097                  2   8
  289          m_sumb_d                              0.000030                          2   4
  290          pothar                                0.006747                          1   4
  291            m_sumb_d                              0.003747                        1   5
  292        brmix                                 0.035047                            1   3
  293          m_sumb_d                              0.016399                          6   4
  294          brpre                                 0.000064                          2   4
  295          setg0                                 0.002126                          1   4
  296          broyd                                 0.010084                          1   4
  297            m_sumb_d                              0.000635                       38   5
  298            brget                                 0.002317                      164   5
  299            brsav                                 0.000374                       36   5
  300          m_bcast_z                             0.001668                          1   4
  301        m_bcast_d                             0.004118                            2   3
  302      potlok                                0.735725                              1   2
  303        fft3d_mpi                             0.321237                           26   3
  304          fftbrc_mpi                            0.312215                         26   4
  305            fftbas_plan_mpi                       0.312200                       26   5
  306              dfftw_execute                         0.099300                     78   6
  307              map_forward                           0.112551                     28   6
  308                map_gather                            0.009421                   16   7
  309                m_alltoallv_z                         0.083110                   16   7
  310                map_scatter                           0.019827                   16   7
  311              map_backward                          0.099936                     24   6
  312                map_gather                            0.016854                   12   7
  313                m_alltoallv_z                         0.072994                   12   7
  314                map_scatter                           0.009870                   12   7
  315        m_sumb_d                              0.000294                            5   3
  316        pothar                                0.004406                            1   3
  317          m_sumb_d                              0.001199                          1   4
  318        m_bcast_d                             0.031426                            2   3
  319      potlok_metagga                        0.000000                              1   2
  320      set_dd_magatom                        0.000000                              1   2
  321      set_dd_paw                            0.004782                              1   2
  322        set_rsgf_all                          0.000000                            1   3
  323        m_sumb_d                              0.004762                            8   3
  324      m_alltoall_d                         97.524358                          39714   2
  325      densta                                0.003906                              1   2
  326        m_sumb_d                              0.001339                           11   3
  327        m_alltoall_d                          0.002461                            6   3
 
 Flat profile
 ============
 
             routine name                   CPU           calls
 ---------------------------------------------------------------
 dfftw_execute                         337.243194       42036
 m_alltoall_d                          226.813298      141188
 total_time                            157.854291           1
 orth1                                 150.643986       19454
 ggemm                                 127.473901        8482
 vhamil                                 79.192264        6466
 lincom                                 43.346838          74
 fftwav_mpi                             36.783272        6530
 map_gather                             35.968550       14142
 gemm                                   35.200702       19398
 m_alltoallv_z                          33.455250       14142
 map_scatter                            28.174787       14142
 fftext_mpi                             24.314002        6466
 set_charge                             24.222151          32
 wfinit                                 22.583197           1
 proj1                                  22.512357        5010
 m_bcast_z                              20.431567       10233
 map_forward                            15.612918       14018
 potlok                                 12.586336          33
 lapack                                 11.894211        6466
 pdssyex_zheevx                         11.615252          72
 eccp                                   10.300817        2016
 work_mul_crexp                          9.907450       19398
 eddav                                   9.383786          36
 m_sumb_d                                8.834407       33173
 crexp_mul_wave                          8.475441       15030
 redis_pw                                5.786336       17530
 w1_copy                                 4.196394       19398
 hamiltmu                                2.054659        6466
 apply_precond                           1.853930        4450
 kinhamil                                1.604649        6466
 soft_charge                             1.520054          32
 m_bcast_d                               1.350066       13003
 setup_precond                           1.170789        2016
 spher                                   0.887282          20
 fornl                                   0.712001           1
 fftbas_plan_mpi                         0.494148       14012
 pw_charge                               0.460635          64
 fft3d_mpi                               0.427194       14012
 elmin                                   0.411460           1
 force_and_stress                        0.381256           1
 brmix                                   0.167867          32
 augmentation_charge                     0.162057          32
 vnlac0                                  0.126180        6466
 choleski                                0.122886           2
 pothar                                  0.108950          34
 broyd                                   0.096458          32
 setdij_                                 0.089707          60
 fft_gq                                  0.077275          32
 map_backward                            0.075356       14006
 setg0                                   0.065664          34
 redis_proj                              0.059356       21982
 brget                                   0.038282        2762
 strkin                                  0.037042           1
 overl1                                  0.036405        6466
 newband                                 0.035696        6538
 sphpro_fast                             0.029575           2
 overl                                   0.021800       10918
 w1_projall                              0.019333        4450
 forhar                                  0.017570           2
 orthch                                  0.016732           1
 strelo                                  0.015541           1
 fftbas_mpi                              0.012486       12996
 densta                                  0.012122          37
 forloc                                  0.011267           1
 chggra                                  0.010024           1
 strehar                                 0.009676           1
 brsav                                   0.007342         662
 stufak                                  0.006171           1
 phase                                   0.006155          84
 inisym                                  0.005110           1
 brgrid                                  0.002908           1
 strenl                                  0.002586           1
 brpre                                   0.002317          64
 truncate_high_frequency_w1              0.001932        8482
 set_dd_paw                              0.000923          34
 fftbrc_mpi                              0.000697        1016
 depsum                                  0.000695          32
 fewald                                  0.000272           1
 proj                                    0.000231           1
 rsp                                     0.000105           1
 fordep                                  0.000039           1
 crpa_reader                             0.000028           1
 set_rsgf_all                            0.000023          34
 potlok_metagga                          0.000011          33
 vectorpot                               0.000011          33
 FERMAT_RAZOR                            0.000011           1
 rcp                                     0.000008           1
 posmap                                  0.000006           2
 proall                                  0.000003           1
 redis_pw_over_bands                     0.000001           1
 rotate_active_occupied_orbital          0.000000           1
 set_dd_magatom                          0.000000          34
 ---------------------------------------------------------------
  summed up times     1529.647967100143     
 
 Accumulative profile
 ====================
 
             routine name                   CPU           calls
 ---------------------------------------------------------------
 total_time                           1529.647967           1
 elmin                                1221.474822           1
 eddav                                1136.877675          36
 fft3d_mpi                             451.464580       14012
 fftbas_plan_mpi                       451.024204       14012
 fftbas_mpi                            438.794767       12996
 hamiltmu                              353.619005        6466
 dfftw_execute                         337.243194       42036
 fftwav_mpi                            275.269243        6530
 m_alltoall_d                          226.813298      141188
 kinhamil                              226.254648        6466
 fftext_mpi                            224.649999        6466
 orth1                                 150.643986       19454
 ggemm                                 127.473901        8482
 newband                               101.999501        6538
 vhamil                                 79.192264        6466
 redis_pw                               71.707864       17530
 map_forward                            66.895736       14018
 set_charge                             60.699900          32
 map_backward                           46.391125       14006
 vnlac0                                 46.081030        6466
 lincom                                 43.346838          74
 wfinit                                 41.709573           1
 map_gather                             35.968550       14142
 gemm                                   35.200702       19398
 m_alltoallv_z                          33.455250       14142
 proj1                                  31.446494        5010
 w1_projall                             29.001457        4450
 map_scatter                            28.174787       14142
 potlok                                 24.345955          33
 m_bcast_z                              20.431567       10233
 fftbrc_mpi                             12.242619        1016
 soft_charge                            12.133863          32
 lapack                                 11.894211        6466
 pdssyex_zheevx                         11.615263          72
 eccp                                   10.373132        2016
 redis_proj                              9.932259       21982
 work_mul_crexp                          9.907450       19398
 m_sumb_d                                8.834407       33173
 crexp_mul_wave                          8.475441       15030
 force_and_stress                        6.605155           1
 w1_copy                                 4.196394       19398
 strenl                                  3.054386           1
 augmentation_charge                     2.417914          32
 orthch                                  2.039325           1
 apply_precond                           1.853930        4450
 m_bcast_d                               1.350066       13003
 setup_precond                           1.214931        2016
 depsum                                  1.151593          32
 brmix                                   0.994022          32
 spher                                   0.887282          20
 fft_gq                                  0.846506          32
 fornl                                   0.719375           1
 densta                                  0.610080          37
 pw_charge                               0.460635          64
 proall                                  0.253241           1
 proj                                    0.247109           1
 broyd                                   0.181337          32
 setdij_                                 0.149054          60
 pothar                                  0.138019          34
 set_dd_paw                              0.137284          34
 choleski                                0.122886           2
 fewald                                  0.092050           1
 setg0                                   0.065664          34
 chggra                                  0.052703           1
 brget                                   0.038282        2762
 strkin                                  0.037554           1
 overl1                                  0.036405        6466
 sphpro_fast                             0.033128           2
 overl                                   0.021800       10918
 forhar                                  0.018546           2
 strelo                                  0.015718           1
 fordep                                  0.013400           1
 forloc                                  0.012532           1
 strehar                                 0.009700           1
 brsav                                   0.007342         662
 stufak                                  0.006171           1
 phase                                   0.006155          84
 inisym                                  0.005116           1
 brgrid                                  0.002908           1
 brpre                                   0.002317          64
 truncate_high_frequency_w1              0.001932        8482
 rsp                                     0.000105           1
 crpa_reader                             0.000028           1
 set_rsgf_all                            0.000023          34
 potlok_metagga                          0.000011          33
 vectorpot                               0.000011          33
 FERMAT_RAZOR                            0.000011           1
 rcp                                     0.000008           1
 posmap                                  0.000006           2
 redis_pw_over_bands                     0.000001           1
 rotate_active_occupied_orbital          0.000000           1
 set_dd_magatom                          0.000000          34
 ---------------------------------------------------------------
 
Profiling took   0.363971  0.098222  0.004147  0.004095 seconds
Profiling took   0.286123 seconds
