 running  256 mpi-ranks, with    1 threads/rank, on    7 nodes
 distrk:  each k-point on  128 cores,    2 groups
 distr:  one band on    4 cores,   32 groups
 vasp.6.4.1 05Apr23 (build May 18 2023 13:19:41) complex                         
 POSCAR found type information on POSCAR S O 
 POSCAR found :  2 types and       3 ions
 Reading from existing POTCAR
 -----------------------------------------------------------------------------
|                                                                             |
|           W    W    AA    RRRRR   N    N  II  N    N   GGGG   !!!           |
|           W    W   A  A   R    R  NN   N  II  NN   N  G    G  !!!           |
|           W    W  A    A  R    R  N N  N  II  N N  N  G       !!!           |
|           W WW W  AAAAAA  RRRRR   N  N N  II  N  N N  G  GGG   !            |
|           WW  WW  A    A  R   R   N   NN  II  N   NN  G    G                |
|           W    W  A    A  R    R  N    N  II  N    N   GGGG   !!!           |
|                                                                             |
|     You use a magnetic or noncollinear calculation, but did not specify     |
|     the initial magnetic moment with the MAGMOM tag. Note that a            |
|     default of 1 will be used for all atoms. This ferromagnetic setup       |
|     may break the symmetry of the crystal, in particular it may rule        |
|     out finding an antiferromagnetic solution. Thence, we recommend         |
|     setting the initial magnetic moment manually or verifying carefully     |
|     that this magnetic setup is desired.                                    |
|                                                                             |
 -----------------------------------------------------------------------------

 scaLAPACK will be used
 Reading from existing POTCAR
 LDA part: xc-table for Pade appr. of Perdew
 POSCAR, INCAR and KPOINTS ok, starting setup
 FFT: planning ... GRIDC
 FFT: planning ... GRID_SOFT
 FFT: planning ... GRID
 WAVECAR not read
 WARNING: random wavefunctions but no delay for mixing, default for NELMDL
 entering main loop
       N       E                     dE             d eps       ncg     rms          rms(c)
DAV:   1     0.120512213827E+03    0.12051E+03   -0.22942E+03  7424   0.550E+00
DAV:   2    -0.779677121940E+01   -0.12831E+03   -0.12017E+03  8224   0.316E+00
DAV:   3    -0.187818022794E+02   -0.10985E+02   -0.10940E+02 10400   0.112E+00
DAV:   4    -0.188792909214E+02   -0.97489E-01   -0.97424E-01  8768   0.126E-01
DAV:   5    -0.188802314120E+02   -0.94049E-03   -0.94037E-03  8864   0.119E-02    0.137E+01
DAV:   6    -0.859177397031E+01    0.10288E+02   -0.24666E+01  7648   0.514E-01    0.424E+00
DAV:   7    -0.127033021773E+02   -0.41115E+01   -0.20667E+00  7648   0.163E-01    0.249E+00
DAV:   8    -0.151624181482E+02   -0.24591E+01   -0.12282E+00  7808   0.960E-02    0.106E+00
DAV:   9    -0.157457043750E+02   -0.58329E+00   -0.84294E-02  7776   0.329E-02    0.570E-01
DAV:  10    -0.160096780134E+02   -0.26397E+00   -0.23159E-02  7680   0.162E-02    0.415E-01
DAV:  11    -0.161837886942E+02   -0.17411E+00   -0.11766E-02  7520   0.117E-02    0.307E-01
DAV:  12    -0.163820897567E+02   -0.19830E+00   -0.72193E-03  7552   0.854E-03    0.229E-01
DAV:  13    -0.167383918959E+02   -0.35630E+00   -0.11008E-02  7904   0.951E-03    0.151E-01
DAV:  14    -0.168571921262E+02   -0.11880E+00   -0.14948E-03  7904   0.421E-03    0.123E-01
DAV:  15    -0.169629414801E+02   -0.10575E+00   -0.87000E-04  7872   0.293E-03    0.938E-02
DAV:  16    -0.170025858157E+02   -0.39644E-01   -0.14463E-04  7872   0.136E-03    0.749E-02
DAV:  17    -0.170260885140E+02   -0.23503E-01   -0.60128E-05  7648   0.850E-04    0.623E-02
DAV:  18    -0.170389242794E+02   -0.12836E-01   -0.61196E-05  7840   0.863E-04    0.494E-02
DAV:  19    -0.170382586131E+02    0.66567E-03   -0.38789E-05  7840   0.787E-04    0.416E-02
DAV:  20    -0.170354089226E+02    0.28497E-02   -0.16041E-04  7744   0.106E-03    0.292E-02
DAV:  21    -0.170376369911E+02   -0.22281E-02   -0.45117E-05  7744   0.692E-04    0.182E-02
DAV:  22    -0.170458595009E+02   -0.82225E-02   -0.17585E-05  7648   0.483E-04    0.123E-02
DAV:  23    -0.170524349912E+02   -0.65755E-02   -0.15411E-05  7680   0.440E-04    0.653E-03
DAV:  24    -0.170572463779E+02   -0.48114E-02   -0.69227E-06  7456   0.287E-04    0.429E-03
DAV:  25    -0.170597867186E+02   -0.25403E-02   -0.30136E-06  7648   0.195E-04    0.237E-03
DAV:  26    -0.170610643187E+02   -0.12776E-02   -0.15667E-06  7584   0.146E-04    0.133E-03
DAV:  27    -0.170615280296E+02   -0.46371E-03   -0.44846E-07  7680   0.916E-05    0.795E-04
DAV:  28    -0.170618339621E+02   -0.30593E-03   -0.24110E-07  7648   0.739E-05    0.446E-04
DAV:  29    -0.170619642606E+02   -0.13030E-03   -0.10570E-07  7712   0.556E-05    0.274E-04
DAV:  30    -0.170620140548E+02   -0.49794E-04   -0.28366E-08  7648   0.360E-05    0.153E-04
DAV:  31    -0.170620452510E+02   -0.31196E-04   -0.10513E-08  7680   0.252E-05    0.913E-05
DAV:  32    -0.170620562232E+02   -0.10972E-04    0.38762E-09  8032   0.113E-05    0.440E-05
DAV:  33    -0.170620614880E+02   -0.52648E-05    0.57982E-09  7904   0.696E-06    0.273E-05
DAV:  34    -0.170620626931E+02   -0.12052E-05    0.51889E-09  8096   0.326E-06    0.177E-05
DAV:  35    -0.170620637571E+02   -0.10640E-05    0.33559E-09  7904   0.321E-06    0.139E-05
DAV:  36    -0.170620643024E+02   -0.54531E-06    0.31554E-09  7968   0.274E-06
   1 F= -.17065693E+02 E0= -.17065693E+02  d E =-.977743E-20  mag=     0.0000
 writing wavefunctions
 PROFILE, used timers:     327
