 running   32 mpi-ranks, with    1 threads/rank, on    2 nodes
 distrk:  each k-point on   16 cores,    2 groups
 distr:  one band on    1 cores,   16 groups
 vasp.6.4.2 20Jul23 (build Oct 12 2023 10:31:02) complex                         
 POSCAR found type information on POSCAR GeSe
 POSCAR found :  2 types and       4 ions
 Reading from existing POTCAR
 -----------------------------------------------------------------------------
|                                                                             |
|           W    W    AA    RRRRR   N    N  II  N    N   GGGG   !!!           |
|           W    W   A  A   R    R  NN   N  II  NN   N  G    G  !!!           |
|           W    W  A    A  R    R  N N  N  II  N N  N  G       !!!           |
|           W WW W  AAAAAA  RRRRR   N  N N  II  N  N N  G  GGG   !            |
|           WW  WW  A    A  R   R   N   NN  II  N   NN  G    G                |
|           W    W  A    A  R    R  N    N  II  N    N   GGGG   !!!           |
|                                                                             |
|     You use a magnetic or noncollinear calculation, but did not specify     |
|     the initial magnetic moment with the MAGMOM tag. Note that a            |
|     default of 1 will be used for all atoms. This ferromagnetic setup       |
|     may break the symmetry of the crystal, in particular it may rule        |
|     out finding an antiferromagnetic solution. Thence, we recommend         |
|     setting the initial magnetic moment manually or verifying carefully     |
|     that this magnetic setup is desired.                                    |
|                                                                             |
 -----------------------------------------------------------------------------

 scaLAPACK will be used
 Reading from existing POTCAR
 LDA part: xc-table for Pade appr. of Perdew
 -----------------------------------------------------------------------------
|                                                                             |
|           W    W    AA    RRRRR   N    N  II  N    N   GGGG   !!!           |
|           W    W   A  A   R    R  NN   N  II  NN   N  G    G  !!!           |
|           W    W  A    A  R    R  N N  N  II  N N  N  G       !!!           |
|           W WW W  AAAAAA  RRRRR   N  N N  II  N  N N  G  GGG   !            |
|           WW  WW  A    A  R   R   N   NN  II  N   NN  G    G                |
|           W    W  A    A  R    R  N    N  II  N    N   GGGG   !!!           |
|                                                                             |
|     The number of bands has been changed from the values supplied in        |
|     the INCAR file. This is a result of running the parallel version.       |
|     The orbitals not found in the WAVECAR file will be initialized with     |
|     random numbers, which is usually adequate. For correlated               |
|     calculations, however, you should redo the groundstate calculation.     |
|     I found NBANDS = 220. Now, NBANDS = 224.                                |
|                                                                             |
 -----------------------------------------------------------------------------

 POSCAR, INCAR and KPOINTS ok, starting setup
 FFT: planning ... GRIDC
 FFT: planning ... GRID_SOFT
 FFT: planning ... GRID
 WAVECAR not read
 WARNING: random wavefunctions but no delay for mixing, default for NELMDL
 entering main loop
       N       E                     dE             d eps       ncg     rms          rms(c)
DAV:   1     0.943002123621E+02    0.94300E+02   -0.43374E+03 28672   0.692E+01
DAV:   2    -0.121623973343E+02   -0.10646E+03   -0.94746E+02 34656   0.260E+01
DAV:   3    -0.162324574294E+02   -0.40701E+01   -0.40258E+01 33872   0.533E+00
DAV:   4    -0.162387927865E+02   -0.63354E-02   -0.63345E-02 33440   0.176E-01
DAV:   5    -0.162387965053E+02   -0.37188E-05   -0.37188E-05 32832   0.484E-03    0.684E+00
DAV:   6    -0.163346705271E+02   -0.95874E-01   -0.88793E-01 32240   0.392E-01    0.354E+00
DAV:   7    -0.167339780820E+02   -0.39931E+00   -0.85626E-02 31296   0.219E-01    0.168E+00
DAV:   8    -0.167674568916E+02   -0.33479E-01   -0.29344E-02 32160   0.110E-01    0.529E-01
DAV:   9    -0.167609299098E+02    0.65270E-02   -0.33658E-03 31392   0.363E-02    0.195E-01
DAV:  10    -0.167611946361E+02   -0.26473E-03   -0.53301E-04 30912   0.148E-02    0.951E-02
DAV:  11    -0.167614966562E+02   -0.30202E-03   -0.76489E-04 31328   0.165E-02    0.541E-02
DAV:  12    -0.167615693191E+02   -0.72663E-04   -0.16248E-04 30736   0.911E-03    0.367E-02
DAV:  13    -0.167615584833E+02    0.10836E-04   -0.11116E-04 30864   0.771E-03    0.131E-02
DAV:  14    -0.167615529645E+02    0.55188E-05   -0.14288E-05 31744   0.278E-03    0.738E-03
DAV:  15    -0.167615518238E+02    0.11408E-05   -0.40169E-06 31600   0.133E-03    0.382E-03
DAV:  16    -0.167615519812E+02   -0.15744E-06   -0.10781E-06 30800   0.879E-04
   1 F= -.16761552E+02 E0= -.16761552E+02  d E =-.141098E-26  mag=     0.0000
 writing wavefunctions
