 vasp.6.4.2 20Jul23 (build Oct 12 2023 10:31:02) complex                         
 executed on              LinuxNV date 2025.05.28  13:33:26
 running  128 mpi-ranks, with    1 threads/rank, on    2 nodes
 distrk:  each k-point on   64 cores,    2 groups
 distr:  one band on NCORE=   4 cores,   16 groups


--------------------------------------------------------------------------------------------------------


 INCAR:
   ENCUT = 360.000000
   SIGMA = 0.050000
   EDIFF = 1.00e-06
   ALGO = Normal
   GGA = PE
   PREC = Normal
   SYSTEM = ./
   ICHARG = 2
   ISMEAR = 0
   ISPIN = 1
   ISTART = 0
   ISYM = 0
   KPAR = 2
   LMAXMIX = 4
   NELM = 100
   NPAR = 16
   LASPH = .TRUE.
   LCHARG = .FALSE.
   LWAVE = .FALSE.

 POTCAR:    PAW_PBE Ge 05Jan2001                  
 POTCAR:    PAW_PBE Se 06Sep2000                  
 POTCAR:    PAW_PBE Ge 05Jan2001                  
   VRHFIN =Ge: s2p2                                                                                 
   LEXCH  = PE                                                                                      
   EATOM  =   104.9960 eV,    7.7170 Ry                                                             
                                                                                                    
   TITEL  = PAW_PBE Ge 05Jan2001                                                                    
   LULTRA =        F    use ultrasoft PP ?                                                          
   IUNSCR =        1    unscreen: 0-lin 1-nonlin 2-no                                               
   RPACOR =    2.170    partial core radius                                                         
   POMASS =   72.610; ZVAL   =    4.000    mass and valenz                                          
   RCORE  =    2.300    outmost cutoff radius                                                       
   RWIGS  =    2.300; RWIGS  =    1.217    wigner-seitz radius (au A)                               
   ENMAX  =  173.807; ENMIN  =  130.355 eV                                                          
   ICORE  =        3    local potential                                                             
   LCOR   =        T    correct aug charges                                                         
   LPAW   =        T    paw PP                                                                      
   EAUG   =  385.843                                                                                
   DEXC   =    0.000                                                                                
   RMAX   =    2.342    core radius for proj-oper                                                   
   RAUG   =    1.300    factor for augmentation sphere                                              
   RDEP   =    2.318    radius for radial grids                                                     
   RDEPT  =    2.103    core radius for aug-charge                                                  
                                                                                                    
   Atomic configuration                                                                             
   10 entries                                                                                       
     n  l   j            E        occ.                                                              
     1  0  0.50    -10959.8463   2.0000                                                             
     2  0  0.50     -1371.6056   2.0000                                                             
     2  1  1.50     -1198.4791   6.0000                                                             
     3  0  0.50      -168.4733   2.0000                                                             
     3  1  1.50      -115.6019   6.0000                                                             
     3  2  2.50       -29.3106  10.0000                                                             
     4  0  0.50       -11.7309   2.0000                                                             
     4  1  0.50        -3.8952   2.0000                                                             
     4  2  1.50        -4.0817   0.0000                                                             
     4  3  2.50        -4.0817   0.0000                                                             
   Description                                                                                      
     l       E           TYP  RCUT    TYP  RCUT                                                     
     0    -11.7309493     23  2.300                                                                 
     0     -7.4578696     23  2.300                                                                 
     1     -3.8952261     23  2.300                                                                 
     1      6.1178114     23  2.300                                                                 
     2     -4.0817478     23  2.300                                                                 
     3     -1.3605826      7  2.300                                                                 
  local pseudopotential read in
  partial core-charges read in
  partial kinetic energy density read in
  atomic valenz-charges read in
  non local Contribution for L=            0  read in
    real space projection operators read in
  non local Contribution for L=            0  read in
    real space projection operators read in
  non local Contribution for L=            1  read in
    real space projection operators read in
  non local Contribution for L=            1  read in
    real space projection operators read in
  non local Contribution for L=            2  read in
    real space projection operators read in
    PAW grid and wavefunctions read in
 
   number of l-projection  operators is LMAX  =            5
   number of lm-projection operators is LMMAX =           13
 
 POTCAR:    PAW_PBE Se 06Sep2000                  
   VRHFIN =Se: s2p4                                                                                 
   LEXCH  = PE                                                                                      
   EATOM  =   257.1286 eV,   18.8984 Ry                                                             
                                                                                                    
   TITEL  = PAW_PBE Se 06Sep2000                                                                    
   LULTRA =        F    use ultrasoft PP ?                                                          
   IUNSCR =        1    unscreen: 0-lin 1-nonlin 2-no                                               
   RPACOR =    1.900    partial core radius                                                         
   POMASS =   78.960; ZVAL   =    6.000    mass and valenz                                          
   RCORE  =    2.100    outmost cutoff radius                                                       
   RWIGS  =    2.200; RWIGS  =    1.164    wigner-seitz radius (au A)                               
   ENMAX  =  211.555; ENMIN  =  158.666 eV                                                          
   ICORE  =        3    local potential                                                             
   LCOR   =        T    correct aug charges                                                         
   LPAW   =        T    paw PP                                                                      
   EAUG   =  446.842                                                                                
   DEXC   =    0.000                                                                                
   RMAX   =    2.147    core radius for proj-oper                                                   
   RAUG   =    1.300    factor for augmentation sphere                                              
   RDEP   =    2.177    radius for radial grids                                                     
   RDEPT  =    1.928    core radius for aug-charge                                                  
                                                                                                    
   Atomic configuration                                                                             
   10 entries                                                                                       
     n  l   j            E        occ.                                                              
     1  0  0.50    -12503.4787   2.0000                                                             
     2  0  0.50     -1606.9547   2.0000                                                             
     2  1  1.50     -1413.3140   6.0000                                                             
     3  0  0.50      -213.4885   2.0000                                                             
     3  1  1.50      -152.9538   6.0000                                                             
     3  2  2.50       -53.1221  10.0000                                                             
     4  0  0.50       -17.2865   2.0000                                                             
     4  1  0.50        -6.5110   4.0000                                                             
     4  2  2.50        -6.8029   0.0000                                                             
     4  3  2.50        -6.8029   0.0000                                                             
   Description                                                                                      
     l       E           TYP  RCUT    TYP  RCUT                                                     
     0    -17.2865377     23  2.100                                                                 
     0    -15.3094411     23  2.100                                                                 
     1     -6.5110275     23  2.100                                                                 
     1     -0.0695192     23  2.100                                                                 
     2     -6.8029130     23  2.100                                                                 
     3     -1.3605826      7  2.100                                                                 
  local pseudopotential read in
  partial core-charges read in
  partial kinetic energy density read in
  atomic valenz-charges read in
  non local Contribution for L=            0  read in
    real space projection operators read in
  non local Contribution for L=            0  read in
    real space projection operators read in
  non local Contribution for L=            1  read in
    real space projection operators read in
  non local Contribution for L=            1  read in
    real space projection operators read in
  non local Contribution for L=            2  read in
    real space projection operators read in
    PAW grid and wavefunctions read in
 
   number of l-projection  operators is LMAX  =            5
   number of lm-projection operators is LMMAX =           13
 
  PAW_PBE Ge 05Jan2001                  :
 energy of atom  1       EATOM= -104.9960
 kinetic energy error for atom=    0.0005 (will be added to EATOM!!)
  PAW_PBE Se 06Sep2000                  :
 energy of atom  2       EATOM= -257.1286
 kinetic energy error for atom=    0.0030 (will be added to EATOM!!)
 
 
 POSCAR: Ge Se
  positions in cartesian coordinates
  No initial velocities read in
 exchange correlation table for  LEXCH =        8
   RHO(1)=    0.500       N(1)  =     2000
   RHO(2)=  100.500       N(2)  =     4000
 


--------------------------------------------------------------------------------------------------------


 ion  position               nearest neighbor table
   1  0.107  0.250  0.127-   5 2.58   6 2.64   6 2.64
   2  0.607  0.750  0.373-   6 2.58   5 2.64   5 2.64
   3  0.893  0.750  0.873-   7 2.58   8 2.64   8 2.64
   4  0.393  0.250  0.627-   8 2.58   7 2.64   7 2.64
   5  0.985  0.250  0.354-   1 2.58   2 2.64   2 2.64
   6  0.485  0.750  0.146-   2 2.58   1 2.64   1 2.64
   7  0.015  0.750  0.646-   3 2.58   4 2.64   4 2.64
   8  0.515  0.250  0.854-   4 2.58   3 2.64   3 2.64
 

IMPORTANT INFORMATION: All symmetrisations will be switched off!
NOSYMM: (Re-)initialisation of all symmetry stuff for point group C_1.


----------------------------------------------------------------------------------------

                                     Primitive cell                                     

  volume of cell :     200.8107

  direct lattice vectors                    reciprocal lattice vectors
     4.450000000  0.000000000  0.000000000     0.224719101  0.000000000  0.000000000
     0.000000000  4.050000000  0.000000000     0.000000000  0.246913580  0.000000000
     0.000000000  0.000000000 11.142221000     0.000000000  0.000000000  0.089748713

  length of vectors
     4.450000000  4.050000000 11.142221000     0.224719101  0.246913580  0.089748713

  position of ions in fractional coordinates (direct lattice)
     0.106754769  0.250000000  0.127498554
     0.606754769  0.750000000  0.372501446
     0.893245231  0.750000000  0.872501446
     0.393245231  0.250000000  0.627498554
     0.985261945  0.250000000  0.353509449
     0.485261945  0.750000000  0.146490551
     0.014738055  0.750000000  0.646490551
     0.514738055  0.250000000  0.853509449

  ion indices of the primitive-cell ions
   primitive index   ion index
                 1           1
                 2           2
                 3           3
                 4           4
                 5           5
                 6           6
                 7           7
                 8           8

----------------------------------------------------------------------------------------

 
 
 KPOINTS: KPOINTS created by Atomic Simulation Env

Automatic generation of k-mesh.
 Grid dimensions read from file:
 generate k-points for:    6    6    2

 Generating k-lattice:

  Cartesian coordinates                     Fractional coordinates (reciprocal lattice)
     0.037453184  0.000000000  0.000000000     0.166666667  0.000000000  0.000000000
     0.000000000  0.041152263  0.000000000     0.000000000  0.166666667  0.000000000
     0.000000000  0.000000000  0.044874357     0.000000000  0.000000000  0.500000000

  Length of vectors
     0.037453184  0.041152263  0.044874357

  Shift w.r.t. Gamma in fractional coordinates (k-lattice)
     0.000000000  0.000000000  0.000000000

 
 Subroutine IBZKPT returns following result:
 ===========================================
 
 Found     40 irreducible k-points:
 
 Following reciprocal coordinates:
            Coordinates               Weight
  0.000000  0.000000  0.000000      1.000000
  0.166667  0.000000  0.000000      2.000000
  0.333333  0.000000  0.000000      2.000000
  0.500000  0.000000  0.000000      1.000000
  0.000000  0.166667  0.000000      2.000000
  0.166667  0.166667  0.000000      2.000000
 -0.166667  0.166667  0.000000      2.000000
  0.333333  0.166667  0.000000      2.000000
 -0.333333  0.166667  0.000000      2.000000
  0.500000  0.166667  0.000000      2.000000
  0.000000  0.333333  0.000000      2.000000
  0.166667  0.333333  0.000000      2.000000
 -0.166667  0.333333  0.000000      2.000000
  0.333333  0.333333  0.000000      2.000000
 -0.333333  0.333333  0.000000      2.000000
  0.500000  0.333333  0.000000      2.000000
  0.000000  0.500000  0.000000      1.000000
  0.166667  0.500000  0.000000      2.000000
  0.333333  0.500000  0.000000      2.000000
  0.500000  0.500000  0.000000      1.000000
  0.000000  0.000000  0.500000      1.000000
  0.166667  0.000000  0.500000      2.000000
  0.333333  0.000000  0.500000      2.000000
  0.500000  0.000000  0.500000      1.000000
  0.000000  0.166667  0.500000      2.000000
  0.166667  0.166667  0.500000      2.000000
 -0.166667  0.166667  0.500000      2.000000
  0.333333  0.166667  0.500000      2.000000
 -0.333333  0.166667  0.500000      2.000000
  0.500000  0.166667  0.500000      2.000000
  0.000000  0.333333  0.500000      2.000000
  0.166667  0.333333  0.500000      2.000000
 -0.166667  0.333333  0.500000      2.000000
  0.333333  0.333333  0.500000      2.000000
 -0.333333  0.333333  0.500000      2.000000
  0.500000  0.333333  0.500000      2.000000
  0.000000  0.500000  0.500000      1.000000
  0.166667  0.500000  0.500000      2.000000
  0.333333  0.500000  0.500000      2.000000
  0.500000  0.500000  0.500000      1.000000
 
 Following cartesian coordinates:
            Coordinates               Weight
  0.000000  0.000000  0.000000      1.000000
  0.037453  0.000000  0.000000      2.000000
  0.074906  0.000000  0.000000      2.000000
  0.112360  0.000000  0.000000      1.000000
  0.000000  0.041152  0.000000      2.000000
  0.037453  0.041152  0.000000      2.000000
 -0.037453  0.041152  0.000000      2.000000
  0.074906  0.041152  0.000000      2.000000
 -0.074906  0.041152  0.000000      2.000000
  0.112360  0.041152  0.000000      2.000000
  0.000000  0.082305  0.000000      2.000000
  0.037453  0.082305  0.000000      2.000000
 -0.037453  0.082305  0.000000      2.000000
  0.074906  0.082305  0.000000      2.000000
 -0.074906  0.082305  0.000000      2.000000
  0.112360  0.082305  0.000000      2.000000
  0.000000  0.123457  0.000000      1.000000
  0.037453  0.123457  0.000000      2.000000
  0.074906  0.123457  0.000000      2.000000
  0.112360  0.123457  0.000000      1.000000
  0.000000  0.000000  0.044874      1.000000
  0.037453  0.000000  0.044874      2.000000
  0.074906  0.000000  0.044874      2.000000
  0.112360  0.000000  0.044874      1.000000
  0.000000  0.041152  0.044874      2.000000
  0.037453  0.041152  0.044874      2.000000
 -0.037453  0.041152  0.044874      2.000000
  0.074906  0.041152  0.044874      2.000000
 -0.074906  0.041152  0.044874      2.000000
  0.112360  0.041152  0.044874      2.000000
  0.000000  0.082305  0.044874      2.000000
  0.037453  0.082305  0.044874      2.000000
 -0.037453  0.082305  0.044874      2.000000
  0.074906  0.082305  0.044874      2.000000
 -0.074906  0.082305  0.044874      2.000000
  0.112360  0.082305  0.044874      2.000000
  0.000000  0.123457  0.044874      1.000000
  0.037453  0.123457  0.044874      2.000000
  0.074906  0.123457  0.044874      2.000000
  0.112360  0.123457  0.044874      1.000000
 


--------------------------------------------------------------------------------------------------------




 Dimension of arrays:
   k-points           NKPTS =     40   k-points in BZ     NKDIM =     40   number of bands    NBANDS=     32
   number of dos      NEDOS =    301   number of ions     NIONS =      8
   non local maximal  LDIM  =      5   non local SUM 2l+1 LMDIM =     13
   total plane-waves  NPLWV =  25920
   max r-space proj   IRMAX =      1   max aug-charges    IRDMAX=   7214
   dimension x,y,z NGX =    24 NGY =   20 NGZ =   54
   dimension x,y,z NGXF=    48 NGYF=   40 NGZF=  108
   support grid    NGXF=    48 NGYF=   40 NGZF=  108
   ions per type =               4   4
   NGX,Y,Z   is equivalent  to a cutoff of   8.97,  8.21,  8.06 a.u.
   NGXF,Y,Z  is equivalent  to a cutoff of  17.93, 16.42, 16.11 a.u.

 SYSTEM =  ./                                      
 POSCAR =  Ge Se                                   

 Startparameter for this run:
   NWRITE =      2    write-flag & timer
   PREC   = normal    normal or accurate (medium, high low for compatibility)
   ISTART =      0    job   : 0-new  1-cont  2-samecut
   ICHARG =      2    charge: 1-file 2-atom 10-const
   ISPIN  =      1    spin polarized calculation?
   LNONCOLLINEAR =      F non collinear calculations
   LSORBIT =      F    spin-orbit coupling
   INIWAV =      1    electr: 0-lowe 1-rand  2-diag
   LASPH  =      T    aspherical Exc in radial PAW
 Electronic Relaxation 1
   ENCUT  =  360.0 eV  26.46 Ry    5.14 a.u.   6.88  6.27 17.24*2*pi/ulx,y,z
   ENINI  =  360.0     initial cutoff
   ENAUG  =  446.8 eV  augmentation charge cutoff
   NELM   =    100;   NELMIN=  2; NELMDL= -5     # of ELM steps 
   EDIFF  = 0.1E-05   stopping-criterion for ELM
   LREAL  =      F    real-space projection
   NLSPLINE    = F    spline interpolate recip. space projectors
   LCOMPAT=      F    compatible to vasp.4.4
   GGA_COMPAT  = T    GGA compatible to vasp.4.4-vasp.4.6
   LMAXPAW     = -100 max onsite density
   LMAXMIX     =    4 max onsite mixed and CHGCAR
   VOSKOWN=      0    Vosko Wilk Nusair interpolation
   ROPT   =    0.00000   0.00000
 Ionic relaxation
   EDIFFG = 0.1E-04   stopping-criterion for IOM
   NSW    =      0    number of steps for IOM
   NBLOCK =      1;   KBLOCK =      1    inner block; outer block 
   IBRION =     -1    ionic relax: 0-MD 1-quasi-New 2-CG
   NFREE  =      0    steps in history (QN), initial steepest desc. (CG)
   ISIF   =      2    stress and relaxation
   IWAVPR =     10    prediction:  0-non 1-charg 2-wave 3-comb
   ISYM   =      0    0-nonsym 1-usesym 2-fastsym
   LCORR  =      T    Harris-Foulkes like correction to forces

   POTIM  = 0.5000    time-step for ionic-motion
   TEIN   =    0.0    initial temperature
   TEBEG  =    0.0;   TEEND  =   0.0 temperature during run
   SMASS  =  -3.00    Nose mass-parameter (am)
   estimated Nose-frequenzy (Omega)   =  0.10E-29 period in steps = 0.13E+47 mass=  -0.453E-27a.u.
   SCALEE = 1.0000    scale energy and forces
   NPACO  =    256;   APACO  = 10.0  distance and # of slots for P.C.
   PSTRESS=    0.0 pullay stress

  Mass of Ions in am
   POMASS =  72.61 78.96
  Ionic Valenz
   ZVAL   =   4.00  6.00
  Atomic Wigner-Seitz radii
   RWIGS  =  -1.00 -1.00
  virtual crystal weights 
   VCA    =   1.00  1.00
   NELECT =      40.0000    total number of electrons
   NUPDOWN=      -1.0000    fix difference up-down

 DOS related values:
   EMIN   =  10.00;   EMAX   =-10.00  energy-range for DOS
   EFERMI =   0.00;   METHOD = LEGACY      
   ISMEAR =     0;   SIGMA  =   0.05  broadening in eV -4-tet -1-fermi 0-gaus

 Electronic relaxation 2 (details)
   IALGO  =     38    algorithm
   LDIAG  =      T    sub-space diagonalisation (order eigenvalues)
   LSUBROT=      F    optimize rotation matrix (better conditioning)
   TURBO    =      0    0=normal 1=particle mesh
   IRESTART =      0    0=no restart 2=restart with 2 vectors
   NREBOOT  =      0    no. of reboots
   NMIN     =      0    reboot dimension
   EREF     =   0.00    reference energy to select bands
   IMIX   =      4    mixing-type and parameters
     AMIX     =   0.40;   BMIX     =  1.00
     AMIX_MAG =   1.60;   BMIX_MAG =  1.00
     AMIN     =   0.10
     WC   =   100.;   INIMIX=   1;  MIXPRE=   1;  MAXMIX= -45

 Intra band minimization:
   WEIMIN = 0.0000     energy-eigenvalue tresh-hold
   EBREAK =  0.78E-08  absolut break condition
   DEPER  =   0.30     relativ break condition  

   TIME   =   0.40     timestep for ELM

  volume/ion in A,a.u.               =      25.10       169.39
  Fermi-wavevector in a.u.,A,eV,Ry     =   0.956091  1.806750 12.437221  0.914110
  Thomas-Fermi vector in A             =   2.084988
 
 Write flags
   LWAVE        =      F    write WAVECAR
   LDOWNSAMPLE  =      F    k-point downsampling of WAVECAR
   LCHARG       =      F    write CHGCAR
   LVTOT        =      F    write LOCPOT, total local potential
   LVHAR        =      F    write LOCPOT, Hartree potential only
   LELF         =      F    write electronic localiz. function (ELF)
   LORBIT       =      0    0 simple, 1 ext, 2 COOP (PROOUT), +10 PAW based schemes


 Dipole corrections
   LMONO  =      F    monopole corrections only (constant potential shift)
   LDIPOL =      F    correct potential (dipole corrections)
   IDIPOL =      0    1-x, 2-y, 3-z, 4-all directions 
   EPSILON=  1.0000000 bulk dielectric constant

 Exchange correlation treatment:
   GGA     =    PE    GGA type
   LEXCH   =     8    internal setting for exchange type
   LIBXC   =     F    Libxc                    
   VOSKOWN =     0    Vosko Wilk Nusair interpolation
   LHFCALC =     F    Hartree Fock is set to
   LHFONE  =     F    Hartree Fock one center treatment
   AEXX    =    0.0000 exact exchange contribution

 Linear response parameters
   LEPSILON=     F    determine dielectric tensor
   LRPA    =     F    only Hartree local field effects (RPA)
   LNABLA  =     F    use nabla operator in PAW spheres
   LVEL    =     F    velocity operator in full k-point grid
   CSHIFT  =0.1000    complex shift for real part using Kramers Kronig
   OMEGAMAX=  -1.0    maximum frequency
   DEG_THRESHOLD= 0.2000000E-02 threshold for treating states as degnerate
   RTIME   =   -0.100 relaxation time in fs
  (WPLASMAI=    0.000 imaginary part of plasma frequency in eV, 0.658/RTIME)
   DFIELD  = 0.0000000 0.0000000 0.0000000 field for delta impulse in time
 
  Optional k-point grid parameters
   LKPOINTS_OPT  =     F    use optional k-point grid
   KPOINTS_OPT_MODE=     1    mode for optional k-point grid
 
 Orbital magnetization related:
   ORBITALMAG=     F  switch on orbital magnetization
   LCHIMAG   =     F  perturbation theory with respect to B field
   DQ        =  0.001000  dq finite difference perturbation B field
   LLRAUG    =     F  two centre corrections for induced B field
   LBONE     =     F  B-component reconstruction in AE one-centre
   LVGVCALC  =     T  calculate vGv susceptibility
   LVGVAPPL  =     F  apply vGv susceptibility instead of pGv for G=0

 Random number generation:
   RANDOM_GENERATOR = DEFAULT
   PCG_SEED         = not used


--------------------------------------------------------------------------------------------------------


 Static calculation
 charge density and potential will be updated during run
 non-spin polarized calculation
 Variant of blocked Davidson
 Davidson routine will perform the subspace rotation
 perform sub-space diagonalisation
    after iterative eigenvector-optimisation
 modified Broyden-mixing scheme, WC =      100.0
 initial mixing is a Kerker type mixing with AMIX =  0.4000 and BMIX =      1.0000
 Hartree-type preconditioning will be used
 using additional bands            12
 reciprocal scheme for non local part
 use partial core corrections
 calculate Harris-corrections to forces 
   (improved forces if not selfconsistent)
 use gradient corrections 
 use of overlap-Matrix (Vanderbilt PP)
 Gauss-broadening in eV      SIGMA  =   0.05


--------------------------------------------------------------------------------------------------------


  energy-cutoff  :      360.00
  volume of cell :      200.81
      direct lattice vectors                 reciprocal lattice vectors
     4.450000000  0.000000000  0.000000000     0.224719101  0.000000000  0.000000000
     0.000000000  4.050000000  0.000000000     0.000000000  0.246913580  0.000000000
     0.000000000  0.000000000 11.142221000     0.000000000  0.000000000  0.089748713

  length of vectors
     4.450000000  4.050000000 11.142221000     0.224719101  0.246913580  0.089748713


 
 k-points in units of 2pi/SCALE and weight: KPOINTS created by Atomic Simulation Env
   0.00000000  0.00000000  0.00000000       0.014
   0.03745318  0.00000000  0.00000000       0.028
   0.07490637  0.00000000  0.00000000       0.028
   0.11235955  0.00000000  0.00000000       0.014
   0.00000000  0.04115226  0.00000000       0.028
   0.03745318  0.04115226  0.00000000       0.028
  -0.03745318  0.04115226  0.00000000       0.028
   0.07490637  0.04115226  0.00000000       0.028
  -0.07490637  0.04115226  0.00000000       0.028
   0.11235955  0.04115226  0.00000000       0.028
   0.00000000  0.08230453  0.00000000       0.028
   0.03745318  0.08230453  0.00000000       0.028
  -0.03745318  0.08230453  0.00000000       0.028
   0.07490637  0.08230453  0.00000000       0.028
  -0.07490637  0.08230453  0.00000000       0.028
   0.11235955  0.08230453  0.00000000       0.028
   0.00000000  0.12345679  0.00000000       0.014
   0.03745318  0.12345679  0.00000000       0.028
   0.07490637  0.12345679  0.00000000       0.028
   0.11235955  0.12345679  0.00000000       0.014
   0.00000000  0.00000000  0.04487436       0.014
   0.03745318  0.00000000  0.04487436       0.028
   0.07490637  0.00000000  0.04487436       0.028
   0.11235955  0.00000000  0.04487436       0.014
   0.00000000  0.04115226  0.04487436       0.028
   0.03745318  0.04115226  0.04487436       0.028
  -0.03745318  0.04115226  0.04487436       0.028
   0.07490637  0.04115226  0.04487436       0.028
  -0.07490637  0.04115226  0.04487436       0.028
   0.11235955  0.04115226  0.04487436       0.028
   0.00000000  0.08230453  0.04487436       0.028
   0.03745318  0.08230453  0.04487436       0.028
  -0.03745318  0.08230453  0.04487436       0.028
   0.07490637  0.08230453  0.04487436       0.028
  -0.07490637  0.08230453  0.04487436       0.028
   0.11235955  0.08230453  0.04487436       0.028
   0.00000000  0.12345679  0.04487436       0.014
   0.03745318  0.12345679  0.04487436       0.028
   0.07490637  0.12345679  0.04487436       0.028
   0.11235955  0.12345679  0.04487436       0.014
 
 k-points in reciprocal lattice and weights: KPOINTS created by Atomic Simulation Env
   0.00000000  0.00000000  0.00000000       0.014
   0.16666667  0.00000000  0.00000000       0.028
   0.33333333  0.00000000  0.00000000       0.028
   0.50000000  0.00000000  0.00000000       0.014
   0.00000000  0.16666667  0.00000000       0.028
   0.16666667  0.16666667  0.00000000       0.028
  -0.16666667  0.16666667  0.00000000       0.028
   0.33333333  0.16666667  0.00000000       0.028
  -0.33333333  0.16666667  0.00000000       0.028
   0.50000000  0.16666667  0.00000000       0.028
   0.00000000  0.33333333  0.00000000       0.028
   0.16666667  0.33333333  0.00000000       0.028
  -0.16666667  0.33333333  0.00000000       0.028
   0.33333333  0.33333333  0.00000000       0.028
  -0.33333333  0.33333333  0.00000000       0.028
   0.50000000  0.33333333  0.00000000       0.028
   0.00000000  0.50000000  0.00000000       0.014
   0.16666667  0.50000000  0.00000000       0.028
   0.33333333  0.50000000  0.00000000       0.028
   0.50000000  0.50000000  0.00000000       0.014
   0.00000000  0.00000000  0.50000000       0.014
   0.16666667  0.00000000  0.50000000       0.028
   0.33333333  0.00000000  0.50000000       0.028
   0.50000000  0.00000000  0.50000000       0.014
   0.00000000  0.16666667  0.50000000       0.028
   0.16666667  0.16666667  0.50000000       0.028
  -0.16666667  0.16666667  0.50000000       0.028
   0.33333333  0.16666667  0.50000000       0.028
  -0.33333333  0.16666667  0.50000000       0.028
   0.50000000  0.16666667  0.50000000       0.028
   0.00000000  0.33333333  0.50000000       0.028
   0.16666667  0.33333333  0.50000000       0.028
  -0.16666667  0.33333333  0.50000000       0.028
   0.33333333  0.33333333  0.50000000       0.028
  -0.33333333  0.33333333  0.50000000       0.028
   0.50000000  0.33333333  0.50000000       0.028
   0.00000000  0.50000000  0.50000000       0.014
   0.16666667  0.50000000  0.50000000       0.028
   0.33333333  0.50000000  0.50000000       0.028
   0.50000000  0.50000000  0.50000000       0.014
 
 position of ions in fractional coordinates (direct lattice) 
   0.10675477  0.25000000  0.12749855
   0.60675477  0.75000000  0.37250145
   0.89324523  0.75000000  0.87250145
   0.39324523  0.25000000  0.62749855
   0.98526195  0.25000000  0.35350945
   0.48526195  0.75000000  0.14649055
   0.01473805  0.75000000  0.64649055
   0.51473805  0.25000000  0.85350945
 
 position of ions in cartesian coordinates  (Angst):
   0.47505872  1.01250000  1.42061706
   2.70005872  3.03750000  4.15049344
   3.97494128  3.03750000  9.72160394
   1.74994128  1.01250000  6.99172756
   4.38441566  1.01250000  3.93888041
   2.15941566  3.03750000  1.63223009
   0.06558434  3.03750000  7.20334059
   2.29058434  1.01250000  9.50999091
 


--------------------------------------------------------------------------------------------------------


 k-point   1 :   0.0000 0.0000 0.0000  plane waves:    3123
 k-point   2 :   0.1667 0.0000 0.0000  plane waves:    3116
 k-point   3 :   0.3333 0.0000 0.0000  plane waves:    3116
 k-point   4 :   0.5000 0.0000 0.0000  plane waves:    3110
 k-point   5 :   0.0000 0.1667 0.0000  plane waves:    3103
 k-point   6 :   0.1667 0.1667 0.0000  plane waves:    3112
 k-point   7 :  -0.1667 0.1667 0.0000  plane waves:    3112
 k-point   8 :   0.3333 0.1667 0.0000  plane waves:    3123
 k-point   9 :  -0.3333 0.1667 0.0000  plane waves:    3123
 k-point  10 :   0.5000 0.1667 0.0000  plane waves:    3116
 k-point  11 :   0.0000 0.3333 0.0000  plane waves:    3094
 k-point  12 :   0.1667 0.3333 0.0000  plane waves:    3106
 k-point  13 :  -0.1667 0.3333 0.0000  plane waves:    3106
 k-point  14 :   0.3333 0.3333 0.0000  plane waves:    3113
 k-point  15 :  -0.3333 0.3333 0.0000  plane waves:    3113
 k-point  16 :   0.5000 0.3333 0.0000  plane waves:    3130
 k-point  17 :   0.0000 0.5000 0.0000  plane waves:    3088
 k-point  18 :   0.1667 0.5000 0.0000  plane waves:    3118
 k-point  19 :   0.3333 0.5000 0.0000  plane waves:    3108
 k-point  20 :   0.5000 0.5000 0.0000  plane waves:    3136
 k-point  21 :   0.0000 0.0000 0.5000  plane waves:    3102
 k-point  22 :   0.1667 0.0000 0.5000  plane waves:    3098
 k-point  23 :   0.3333 0.0000 0.5000  plane waves:    3128
 k-point  24 :   0.5000 0.0000 0.5000  plane waves:    3136
 k-point  25 :   0.0000 0.1667 0.5000  plane waves:    3104
 k-point  26 :   0.1667 0.1667 0.5000  plane waves:    3118
 k-point  27 :  -0.1667 0.1667 0.5000  plane waves:    3118
 k-point  28 :   0.3333 0.1667 0.5000  plane waves:    3118
 k-point  29 :  -0.3333 0.1667 0.5000  plane waves:    3118
 k-point  30 :   0.5000 0.1667 0.5000  plane waves:    3116
 k-point  31 :   0.0000 0.3333 0.5000  plane waves:    3094
 k-point  32 :   0.1667 0.3333 0.5000  plane waves:    3106
 k-point  33 :  -0.1667 0.3333 0.5000  plane waves:    3106
 k-point  34 :   0.3333 0.3333 0.5000  plane waves:    3122
 k-point  35 :  -0.3333 0.3333 0.5000  plane waves:    3122
 k-point  36 :   0.5000 0.3333 0.5000  plane waves:    3116
 k-point  37 :   0.0000 0.5000 0.5000  plane waves:    3104
 k-point  38 :   0.1667 0.5000 0.5000  plane waves:    3124
 k-point  39 :   0.3333 0.5000 0.5000  plane waves:    3124
 k-point  40 :   0.5000 0.5000 0.5000  plane waves:    3128

 maximum and minimum number of plane-waves per node :       806      752

 maximum number of plane-waves:      3136
 maximum index in each direction: 
   IXMAX=    7   IYMAX=    6   IZMAX=   17
   IXMIN=   -7   IYMIN=   -6   IZMIN=  -17


 parallel 3D FFT for wavefunctions:
    minimum data exchange during FFTs selected (reduces bandwidth)
 parallel 3D FFT for charge:
    minimum data exchange during FFTs selected (reduces bandwidth)


 total amount of memory used by VASP MPI-rank0    38546. kBytes
=======================================================================

   base      :      30000. kBytes
   nonl-proj :       6623. kBytes
   fftplans  :        357. kBytes
   grid      :        506. kBytes
   one-center:         16. kBytes
   wavefun   :       1044. kBytes
 
     INWAV:  cpu time      0.0000: real time      0.0001
 Broyden mixing: mesh for mixing (old mesh)
   NGX = 13   NGY = 13   NGZ = 35
  (NGX  = 48   NGY  = 40   NGZ  =108)
  gives a total of   5915 points

 initial charge density was supplied:
 charge density of overlapping atoms calculated
 number of electron      40.0000000 magnetization 
 keeping initial charge density in first step


--------------------------------------------------------------------------------------------------------


 Maximum index for augmentation-charges           351 (set IRDMAX)


--------------------------------------------------------------------------------------------------------


 First call to EWALD:  gamma=   0.303
 Maximum number of real-space cells 3x 4x 2
 Maximum number of reciprocal cells 2x 2x 5

    FEWALD:  cpu time      0.0008: real time      0.0008


--------------------------------------- Ionic step        1  -------------------------------------------




--------------------------------------- Iteration      1(   1)  ---------------------------------------


    POTLOK:  cpu time      0.0060: real time      0.0063
    SETDIJ:  cpu time      0.1413: real time      0.1418
     EDDAV:  cpu time      0.2673: real time      0.2699
       DOS:  cpu time      0.0015: real time      0.0015
    --------------------------------------------
      LOOP:  cpu time      0.4160: real time      0.4195

 eigenvalue-minimisations  :  2560
 total energy-change (2. order) : 0.1292034E+03  (-0.1273102E+04)
 number of electron      40.0000000 magnetization 
 augmentation part       40.0000000 magnetization 

 Free energy of the ion-electron system (eV)
  ---------------------------------------------------
  alpha Z        PSCENC =        84.38020135
  Ewald energy   TEWEN  =     -1401.23797224
  -Hartree energ DENC   =      -133.13331275
  -exchange      EXHF   =         0.00000000
  -V(xc)+E(xc)   XCENC  =       -33.90960813
  PAW double counting   =      1193.78262552    -1080.73714043
  entropy T*S    EENTRO =        -0.00396514
  eigenvalues    EBANDS =        51.57795748
  atomic energy  EATOM  =      1448.48460880
  Solvation  Ediel_sol  =         0.00000000
  ---------------------------------------------------
  free energy    TOTEN  =       129.20339446 eV

  energy without entropy =      129.20735960  energy(sigma->0) =      129.20537703


--------------------------------------------------------------------------------------------------------




--------------------------------------- Iteration      1(   2)  ---------------------------------------


     EDDAV:  cpu time      0.3401: real time      0.3435
       DOS:  cpu time      0.0006: real time      0.0006
    --------------------------------------------
      LOOP:  cpu time      0.3407: real time      0.3440

 eigenvalue-minimisations  :  3744
 total energy-change (2. order) :-0.1547312E+03  (-0.1499884E+03)
 number of electron      40.0000000 magnetization 
 augmentation part       40.0000000 magnetization 

 Free energy of the ion-electron system (eV)
  ---------------------------------------------------
  alpha Z        PSCENC =        84.38020135
  Ewald energy   TEWEN  =     -1401.23797224
  -Hartree energ DENC   =      -133.13331275
  -exchange      EXHF   =         0.00000000
  -V(xc)+E(xc)   XCENC  =       -33.90960813
  PAW double counting   =      1193.78262552    -1080.73714043
  entropy T*S    EENTRO =        -0.00000000
  eigenvalues    EBANDS =      -103.15722294
  atomic energy  EATOM  =      1448.48460880
  Solvation  Ediel_sol  =         0.00000000
  ---------------------------------------------------
  free energy    TOTEN  =       -25.52782082 eV

  energy without entropy =      -25.52782082  energy(sigma->0) =      -25.52782082


--------------------------------------------------------------------------------------------------------




--------------------------------------- Iteration      1(   3)  ---------------------------------------


     EDDAV:  cpu time      0.3090: real time      0.3120
       DOS:  cpu time      0.0006: real time      0.0005
    --------------------------------------------
      LOOP:  cpu time      0.3095: real time      0.3125

 eigenvalue-minimisations  :  3168
 total energy-change (2. order) :-0.8627519E+01  (-0.8609446E+01)
 number of electron      40.0000000 magnetization 
 augmentation part       40.0000000 magnetization 

 Free energy of the ion-electron system (eV)
  ---------------------------------------------------
  alpha Z        PSCENC =        84.38020135
  Ewald energy   TEWEN  =     -1401.23797224
  -Hartree energ DENC   =      -133.13331275
  -exchange      EXHF   =         0.00000000
  -V(xc)+E(xc)   XCENC  =       -33.90960813
  PAW double counting   =      1193.78262552    -1080.73714043
  entropy T*S    EENTRO =        -0.00000000
  eigenvalues    EBANDS =      -111.78474226
  atomic energy  EATOM  =      1448.48460880
  Solvation  Ediel_sol  =         0.00000000
  ---------------------------------------------------
  free energy    TOTEN  =       -34.15534014 eV

  energy without entropy =      -34.15534014  energy(sigma->0) =      -34.15534014


--------------------------------------------------------------------------------------------------------




--------------------------------------- Iteration      1(   4)  ---------------------------------------


     EDDAV:  cpu time      0.3164: real time      0.3208
       DOS:  cpu time      0.0006: real time      0.0006
    --------------------------------------------
      LOOP:  cpu time      0.3170: real time      0.3214

 eigenvalue-minimisations  :  3280
 total energy-change (2. order) :-0.5852616E-01  (-0.5851998E-01)
 number of electron      40.0000000 magnetization 
 augmentation part       40.0000000 magnetization 

 Free energy of the ion-electron system (eV)
  ---------------------------------------------------
  alpha Z        PSCENC =        84.38020135
  Ewald energy   TEWEN  =     -1401.23797224
  -Hartree energ DENC   =      -133.13331275
  -exchange      EXHF   =         0.00000000
  -V(xc)+E(xc)   XCENC  =       -33.90960813
  PAW double counting   =      1193.78262552    -1080.73714043
  entropy T*S    EENTRO =        -0.00000000
  eigenvalues    EBANDS =      -111.84326842
  atomic energy  EATOM  =      1448.48460880
  Solvation  Ediel_sol  =         0.00000000
  ---------------------------------------------------
  free energy    TOTEN  =       -34.21386630 eV

  energy without entropy =      -34.21386630  energy(sigma->0) =      -34.21386630


--------------------------------------------------------------------------------------------------------




--------------------------------------- Iteration      1(   5)  ---------------------------------------


     EDDAV:  cpu time      0.3196: real time      0.3249
       DOS:  cpu time      0.0006: real time      0.0006
    CHARGE:  cpu time      0.0051: real time      0.0052
    MIXING:  cpu time      0.0008: real time      0.0008
    --------------------------------------------
      LOOP:  cpu time      0.3261: real time      0.3314

 eigenvalue-minimisations  :  3152
 total energy-change (2. order) :-0.3495780E-03  (-0.3495753E-03)
 number of electron      40.0000013 magnetization 
 augmentation part       -7.4053640 magnetization 

 Broyden mixing:
  rms(total) = 0.62468E+00    rms(broyden)= 0.62466E+00
  rms(prec ) = 0.71842E+00
  weight for this iteration     100.00

 Free energy of the ion-electron system (eV)
  ---------------------------------------------------
  alpha Z        PSCENC =        84.38020135
  Ewald energy   TEWEN  =     -1401.23797224
  -Hartree energ DENC   =      -133.13331275
  -exchange      EXHF   =         0.00000000
  -V(xc)+E(xc)   XCENC  =       -33.90960813
  PAW double counting   =      1193.78262552    -1080.73714043
  entropy T*S    EENTRO =        -0.00000000
  eigenvalues    EBANDS =      -111.84361800
  atomic energy  EATOM  =      1448.48460880
  Solvation  Ediel_sol  =         0.00000000
  ---------------------------------------------------
  free energy    TOTEN  =       -34.21421588 eV

  energy without entropy =      -34.21421588  energy(sigma->0) =      -34.21421588


--------------------------------------------------------------------------------------------------------




--------------------------------------- Iteration      1(   6)  ---------------------------------------


    POTLOK:  cpu time      0.0055: real time      0.0057
    SETDIJ:  cpu time      0.1373: real time      0.1381
     EDDAV:  cpu time      0.3311: real time      0.3345
       DOS:  cpu time      0.0006: real time      0.0006
    CHARGE:  cpu time      0.0068: real time      0.0069
    MIXING:  cpu time      0.0005: real time      0.0005
    --------------------------------------------
      LOOP:  cpu time      0.4818: real time      0.4863

 eigenvalue-minimisations  :  3120
 total energy-change (2. order) : 0.4315176E+00  (-0.8969568E-01)
 number of electron      40.0000013 magnetization 
 augmentation part       -7.3455541 magnetization 

 Broyden mixing:
  rms(total) = 0.39038E+00    rms(broyden)= 0.39038E+00
  rms(prec ) = 0.41290E+00
  weight for this iteration     100.00

 eigenvalues of (default mixing * dielectric matrix)
  average eigenvalue GAMMA=   2.0868
  2.0868

 Free energy of the ion-electron system (eV)
  ---------------------------------------------------
  alpha Z        PSCENC =        84.38020135
  Ewald energy   TEWEN  =     -1401.23797224
  -Hartree energ DENC   =      -139.22807186
  -exchange      EXHF   =         0.00000000
  -V(xc)+E(xc)   XCENC  =       -33.29895688
  PAW double counting   =      1441.99238352    -1329.24635633
  entropy T*S    EENTRO =        -0.00000000
  eigenvalues    EBANDS =      -105.62853466
  atomic energy  EATOM  =      1448.48460880
  Solvation  Ediel_sol  =         0.00000000
  ---------------------------------------------------
  free energy    TOTEN  =       -33.78269831 eV

  energy without entropy =      -33.78269831  energy(sigma->0) =      -33.78269831


--------------------------------------------------------------------------------------------------------




--------------------------------------- Iteration      1(   7)  ---------------------------------------


    POTLOK:  cpu time      0.0054: real time      0.0056
    SETDIJ:  cpu time      0.1377: real time      0.1383
     EDDAV:  cpu time      0.2906: real time      0.2934
       DOS:  cpu time      0.0006: real time      0.0006
    CHARGE:  cpu time      0.0048: real time      0.0049
    MIXING:  cpu time      0.0005: real time      0.0005
    --------------------------------------------
      LOOP:  cpu time      0.4396: real time      0.4432

 eigenvalue-minimisations  :  2976
 total energy-change (2. order) : 0.1003555E-01  (-0.2437894E-01)
 number of electron      40.0000013 magnetization 
 augmentation part       -7.3361992 magnetization 

 Broyden mixing:
  rms(total) = 0.13948E+00    rms(broyden)= 0.13948E+00
  rms(prec ) = 0.14850E+00
  weight for this iteration     100.00

 eigenvalues of (default mixing * dielectric matrix)
  average eigenvalue GAMMA=   1.7888
  1.1938  2.3838

 Free energy of the ion-electron system (eV)
  ---------------------------------------------------
  alpha Z        PSCENC =        84.38020135
  Ewald energy   TEWEN  =     -1401.23797224
  -Hartree energ DENC   =      -141.54811605
  -exchange      EXHF   =         0.00000000
  -V(xc)+E(xc)   XCENC  =       -32.87101850
  PAW double counting   =      1729.45147107    -1616.90367767
  entropy T*S    EENTRO =        -0.00000000
  eigenvalues    EBANDS =      -103.52815952
  atomic energy  EATOM  =      1448.48460880
  Solvation  Ediel_sol  =         0.00000000
  ---------------------------------------------------
  free energy    TOTEN  =       -33.77266276 eV

  energy without entropy =      -33.77266276  energy(sigma->0) =      -33.77266276


--------------------------------------------------------------------------------------------------------




--------------------------------------- Iteration      1(   8)  ---------------------------------------


    POTLOK:  cpu time      0.0053: real time      0.0055
    SETDIJ:  cpu time      0.1369: real time      0.1378
     EDDAV:  cpu time      0.2812: real time      0.2839
       DOS:  cpu time      0.0006: real time      0.0006
    CHARGE:  cpu time      0.0048: real time      0.0048
    MIXING:  cpu time      0.0005: real time      0.0005
    --------------------------------------------
      LOOP:  cpu time      0.4294: real time      0.4332

 eigenvalue-minimisations  :  2960
 total energy-change (2. order) : 0.1020002E-02  (-0.2429218E-02)
 number of electron      40.0000013 magnetization 
 augmentation part       -7.3461258 magnetization 

 Broyden mixing:
  rms(total) = 0.17482E-01    rms(broyden)= 0.17482E-01
  rms(prec ) = 0.22005E-01
  weight for this iteration     100.00

 eigenvalues of (default mixing * dielectric matrix)
  average eigenvalue GAMMA=   1.6689
  2.4813  1.2627  1.2627

 Free energy of the ion-electron system (eV)
  ---------------------------------------------------
  alpha Z        PSCENC =        84.38020135
  Ewald energy   TEWEN  =     -1401.23797224
  -Hartree energ DENC   =      -141.61432735
  -exchange      EXHF   =         0.00000000
  -V(xc)+E(xc)   XCENC  =       -32.72354774
  PAW double counting   =      1874.64204689    -1762.15355953
  entropy T*S    EENTRO =        -0.00000000
  eigenvalues    EBANDS =      -103.54909293
  atomic energy  EATOM  =      1448.48460880
  Solvation  Ediel_sol  =         0.00000000
  ---------------------------------------------------
  free energy    TOTEN  =       -33.77164276 eV

  energy without entropy =      -33.77164276  energy(sigma->0) =      -33.77164276


--------------------------------------------------------------------------------------------------------




--------------------------------------- Iteration      1(   9)  ---------------------------------------


    POTLOK:  cpu time      0.0060: real time      0.0071
    SETDIJ:  cpu time      0.1369: real time      0.1376
     EDDAV:  cpu time      0.3007: real time      0.3033
       DOS:  cpu time      0.0005: real time      0.0005
    CHARGE:  cpu time      0.0046: real time      0.0046
    MIXING:  cpu time      0.0006: real time      0.0006
    --------------------------------------------
      LOOP:  cpu time      0.4493: real time      0.4537

 eigenvalue-minimisations  :  3136
 total energy-change (2. order) :-0.1326875E-03  (-0.3786715E-03)
 number of electron      40.0000013 magnetization 
 augmentation part       -7.3436288 magnetization 

 Broyden mixing:
  rms(total) = 0.66326E-02    rms(broyden)= 0.66326E-02
  rms(prec ) = 0.75762E-02
  weight for this iteration     100.00

 eigenvalues of (default mixing * dielectric matrix)
  average eigenvalue GAMMA=   1.7684
  2.3760  2.3760  1.1609  1.1609

 Free energy of the ion-electron system (eV)
  ---------------------------------------------------
  alpha Z        PSCENC =        84.38020135
  Ewald energy   TEWEN  =     -1401.23797224
  -Hartree energ DENC   =      -142.00853245
  -exchange      EXHF   =         0.00000000
  -V(xc)+E(xc)   XCENC  =       -32.68429772
  PAW double counting   =      1886.27665193    -1773.79769582
  entropy T*S    EENTRO =        -0.00000000
  eigenvalues    EBANDS =      -103.18473928
  atomic energy  EATOM  =      1448.48460880
  Solvation  Ediel_sol  =         0.00000000
  ---------------------------------------------------
  free energy    TOTEN  =       -33.77177544 eV

  energy without entropy =      -33.77177544  energy(sigma->0) =      -33.77177544


--------------------------------------------------------------------------------------------------------




--------------------------------------- Iteration      1(  10)  ---------------------------------------


    POTLOK:  cpu time      0.0037: real time      0.0038
    SETDIJ:  cpu time      0.1386: real time      0.1389
     EDDAV:  cpu time      0.1945: real time      0.1956
       DOS:  cpu time      0.0003: real time      0.0003
    CHARGE:  cpu time      0.0039: real time      0.0039
    MIXING:  cpu time      0.0003: real time      0.0003
    --------------------------------------------
      LOOP:  cpu time      0.3413: real time      0.3429

 eigenvalue-minimisations  :  2976
 total energy-change (2. order) :-0.8935603E-04  (-0.3443976E-04)
 number of electron      40.0000013 magnetization 
 augmentation part       -7.3435025 magnetization 

 Broyden mixing:
  rms(total) = 0.23324E-02    rms(broyden)= 0.23324E-02
  rms(prec ) = 0.28365E-02
  weight for this iteration     100.00

 eigenvalues of (default mixing * dielectric matrix)
  average eigenvalue GAMMA=   1.7496
  2.7347  2.4785  1.1965  1.1965  1.1420

 Free energy of the ion-electron system (eV)
  ---------------------------------------------------
  alpha Z        PSCENC =        84.38020135
  Ewald energy   TEWEN  =     -1401.23797224
  -Hartree energ DENC   =      -142.04288687
  -exchange      EXHF   =         0.00000000
  -V(xc)+E(xc)   XCENC  =       -32.68125374
  PAW double counting   =      1880.04423024    -1767.56058394
  entropy T*S    EENTRO =        -0.00000000
  eigenvalues    EBANDS =      -103.15820839
  atomic energy  EATOM  =      1448.48460880
  Solvation  Ediel_sol  =         0.00000000
  ---------------------------------------------------
  free energy    TOTEN  =       -33.77186480 eV

  energy without entropy =      -33.77186480  energy(sigma->0) =      -33.77186480


--------------------------------------------------------------------------------------------------------




--------------------------------------- Iteration      1(  11)  ---------------------------------------


    POTLOK:  cpu time      0.0036: real time      0.0038
    SETDIJ:  cpu time      0.1365: real time      0.1369
     EDDAV:  cpu time      0.2021: real time      0.2031
       DOS:  cpu time      0.0003: real time      0.0003
    CHARGE:  cpu time      0.0037: real time      0.0038
    MIXING:  cpu time      0.0003: real time      0.0003
    --------------------------------------------
      LOOP:  cpu time      0.3467: real time      0.3482

 eigenvalue-minimisations  :  3008
 total energy-change (2. order) :-0.1921177E-04  (-0.3638543E-05)
 number of electron      40.0000013 magnetization 
 augmentation part       -7.3437838 magnetization 

 Broyden mixing:
  rms(total) = 0.12686E-02    rms(broyden)= 0.12686E-02
  rms(prec ) = 0.14142E-02
  weight for this iteration     100.00

 eigenvalues of (default mixing * dielectric matrix)
  average eigenvalue GAMMA=   1.7476
  2.6562  2.6562  1.8988  1.0054  1.1346  1.1346

 Free energy of the ion-electron system (eV)
  ---------------------------------------------------
  alpha Z        PSCENC =        84.38020135
  Ewald energy   TEWEN  =     -1401.23797224
  -Hartree energ DENC   =      -142.06202190
  -exchange      EXHF   =         0.00000000
  -V(xc)+E(xc)   XCENC  =       -32.67589023
  PAW double counting   =      1881.66204640    -1769.17882054
  entropy T*S    EENTRO =        -0.00000000
  eigenvalues    EBANDS =      -103.14403566
  atomic energy  EATOM  =      1448.48460880
  Solvation  Ediel_sol  =         0.00000000
  ---------------------------------------------------
  free energy    TOTEN  =       -33.77188401 eV

  energy without entropy =      -33.77188401  energy(sigma->0) =      -33.77188401


--------------------------------------------------------------------------------------------------------




--------------------------------------- Iteration      1(  12)  ---------------------------------------


    POTLOK:  cpu time      0.0036: real time      0.0037
    SETDIJ:  cpu time      0.1115: real time      0.1118
     EDDAV:  cpu time      0.2093: real time      0.2102
       DOS:  cpu time      0.0003: real time      0.0003
    --------------------------------------------
      LOOP:  cpu time      0.3247: real time      0.3261

 eigenvalue-minimisations  :  3344
 total energy-change (2. order) : 0.1740720E-06  (-0.5993617E-06)
 number of electron      40.0000013 magnetization 
 augmentation part       -7.3437838 magnetization 

 Free energy of the ion-electron system (eV)
  ---------------------------------------------------
  alpha Z        PSCENC =        84.38020135
  Ewald energy   TEWEN  =     -1401.23797224
  -Hartree energ DENC   =      -142.07371386
  -exchange      EXHF   =         0.00000000
  -V(xc)+E(xc)   XCENC  =       -32.67494139
  PAW double counting   =      1880.71090318    -1768.22726889
  entropy T*S    EENTRO =        -0.00000000
  eigenvalues    EBANDS =      -103.13370079
  atomic energy  EATOM  =      1448.48460880
  Solvation  Ediel_sol  =         0.00000000
  ---------------------------------------------------
  free energy    TOTEN  =       -33.77188384 eV

  energy without entropy =      -33.77188384  energy(sigma->0) =      -33.77188384


--------------------------------------------------------------------------------------------------------




 average (electrostatic) potential at core
  the test charge radii are     1.1631  1.0808
  (the norm of the test charge is              1.0000)
       1 -33.8250       2 -33.8250       3 -33.8250       4 -33.8250       5 -55.2254
       6 -55.2254       7 -55.2254       8 -55.2254
 
 
 
 E-fermi :   3.0754     XC(G=0):  -9.1446     alpha+bet : -8.4062

 Fermi energy:         3.0753750992

 k-point     1 :       0.0000    0.0000    0.0000
  band No.  band energies     occupation 
      1     -11.0701      2.00000
      2     -10.7763      2.00000
      3      -9.8046      2.00000
      4      -9.3739      2.00000
      5      -4.9600      2.00000
      6      -4.4295      2.00000
      7      -2.8331      2.00000
      8      -2.6622      2.00000
      9      -1.9800      2.00000
     10      -0.4585      2.00000
     11      -0.3406      2.00000
     12      -0.2357      2.00000
     13      -0.1388      2.00000
     14      -0.0804      2.00000
     15       0.8195      2.00000
     16       1.3999      2.00000
     17       1.4928      2.00000
     18       2.0524      2.00000
     19       2.3162      2.00000
     20       2.6562      2.00000
     21       3.8979      0.00000
     22       5.2890      0.00000
     23       5.3056      0.00000
     24       5.4802      0.00000
     25       5.7446      0.00000
     26       6.2913      0.00000
     27       6.3563      0.00000
     28       6.8676      0.00000
     29       7.7429      0.00000
     30       7.8833      0.00000
     31       8.4216      0.00000
     32       8.5739      0.00000

 k-point     2 :       0.1667    0.0000    0.0000
  band No.  band energies     occupation 
      1     -10.9539      2.00000
      2     -10.6672      2.00000
      3      -9.8165      2.00000
      4      -9.4269      2.00000
      5      -5.2135      2.00000
      6      -4.5124      2.00000
      7      -3.4938      2.00000
      8      -3.0161      2.00000
      9      -1.7689      2.00000
     10      -0.3085      2.00000
     11      -0.1510      2.00000
     12       0.0573      2.00000
     13       0.2505      2.00000
     14       0.2732      2.00000
     15       0.8715      2.00000
     16       1.3915      2.00000
     17       1.7313      2.00000
     18       1.9441      2.00000
     19       2.3642      2.00000
     20       2.5628      2.00000
     21       3.9940      0.00000
     22       4.7372      0.00000
     23       5.2597      0.00000
     24       5.3060      0.00000
     25       5.7304      0.00000
     26       5.7467      0.00000
     27       6.4542      0.00000
     28       6.7379      0.00000
     29       7.0435      0.00000
     30       7.7000      0.00000
     31       7.9686      0.00000
     32       8.1847      0.00000

 k-point     3 :       0.3333    0.0000    0.0000
  band No.  band energies     occupation 
      1     -10.6374      2.00000
      2     -10.3693      2.00000
      3      -9.9265      2.00000
      4      -9.6238      2.00000
      5      -5.4866      2.00000
      6      -4.6038      2.00000
      7      -4.5248      2.00000
      8      -3.7458      2.00000
      9      -1.2537      2.00000
     10       0.1037      2.00000
     11       0.1250      2.00000
     12       0.4284      2.00000
     13       0.9021      2.00000
     14       0.9444      2.00000
     15       0.9855      2.00000
     16       1.2568      2.00000
     17       1.5385      2.00000
     18       2.2293      2.00000
     19       2.2797      2.00000
     20       2.8179      2.00000
     21       3.8275      0.00000
     22       4.3630      0.00000
     23       4.4970      0.00000
     24       4.8916      0.00000
     25       5.0530      0.00000
     26       5.6369      0.00000
     27       5.8684      0.00000
     28       5.9064      0.00000
     29       6.6056      0.00000
     30       6.8600      0.00000
     31       7.6322      0.00000
     32       8.5764      0.00000

 k-point     4 :       0.5000    0.0000    0.0000
  band No.  band energies     occupation 
      1     -10.2324      2.00000
      2     -10.2324      2.00000
      3      -9.9746      2.00000
      4      -9.9746      2.00000
      5      -5.2719      2.00000
      6      -5.2719      2.00000
      7      -4.3609      2.00000
      8      -4.3609      2.00000
      9      -0.5052      2.00000
     10      -0.5052      2.00000
     11       0.6213      2.00000
     12       0.6213      2.00000
     13       0.8918      2.00000
     14       0.8918      2.00000
     15       1.5572      2.00000
     16       1.5572      2.00000
     17       1.8255      2.00000
     18       1.8255      2.00000
     19       2.3568      2.00000
     20       2.3568      2.00000
     21       4.0207      0.00000
     22       4.0207      0.00000
     23       4.7396      0.00000
     24       4.7396      0.00000
     25       5.0713      0.00000
     26       5.0713      0.00000
     27       5.4784      0.00000
     28       5.4784      0.00000
     29       6.0360      0.00000
     30       6.0360      0.00000
     31       8.4521      0.00000
     32       8.4521      0.00000

 k-point     5 :       0.0000    0.1667    0.0000
  band No.  band energies     occupation 
      1     -10.9043      2.00000
      2     -10.6255      2.00000
      3      -9.7246      2.00000
      4      -9.3561      2.00000
      5      -5.1806      2.00000
      6      -4.7077      2.00000
      7      -3.3249      2.00000
      8      -3.2070      2.00000
      9      -1.7890      2.00000
     10      -0.5515      2.00000
     11      -0.2517      2.00000
     12      -0.0792      2.00000
     13      -0.0761      2.00000
     14       0.1070      2.00000
     15       1.0308      2.00000
     16       1.1561      2.00000
     17       1.6072      2.00000
     18       2.2593      2.00000
     19       2.2965      2.00000
     20       2.4468      2.00000
     21       4.0609      0.00000
     22       5.0915      0.00000
     23       5.4384      0.00000
     24       5.7988      0.00000
     25       5.8947      0.00000
     26       5.9981      0.00000
     27       6.2506      0.00000
     28       6.4815      0.00000
     29       6.9411      0.00000
     30       7.5788      0.00000
     31       7.8633      0.00000
     32       8.2014      0.00000

 k-point     6 :       0.1667    0.1667    0.0000
  band No.  band energies     occupation 
      1     -10.7937      2.00000
      2     -10.5228      2.00000
      3      -9.7370      2.00000
      4      -9.4014      2.00000
      5      -5.3100      2.00000
      6      -4.6848      2.00000
      7      -3.6898      2.00000
      8      -3.4297      2.00000
      9      -1.6137      2.00000
     10      -1.0336      2.00000
     11      -0.7549      2.00000
     12       0.0096      2.00000
     13       0.5622      2.00000
     14       0.7259      2.00000
     15       0.8738      2.00000
     16       1.0660      2.00000
     17       1.9491      2.00000
     18       2.0036      2.00000
     19       2.3738      2.00000
     20       2.4341      2.00000
     21       4.1417      0.00000
     22       4.7100      0.00000
     23       5.0744      0.00000
     24       5.1307      0.00000
     25       5.8687      0.00000
     26       6.0315      0.00000
     27       6.6195      0.00000
     28       6.7066      0.00000
     29       7.1573      0.00000
     30       7.4413      0.00000
     31       7.4945      0.00000
     32       8.3153      0.00000

 k-point     7 :      -0.1667    0.1667    0.0000
  band No.  band energies     occupation 
      1     -10.7937      2.00000
      2     -10.5228      2.00000
      3      -9.7370      2.00000
      4      -9.4014      2.00000
      5      -5.3100      2.00000
      6      -4.6848      2.00000
      7      -3.6898      2.00000
      8      -3.4297      2.00000
      9      -1.6137      2.00000
     10      -1.0336      2.00000
     11      -0.7549      2.00000
     12       0.0096      2.00000
     13       0.5622      2.00000
     14       0.7259      2.00000
     15       0.8738      2.00000
     16       1.0660      2.00000
     17       1.9491      2.00000
     18       2.0036      2.00000
     19       2.3738      2.00000
     20       2.4341      2.00000
     21       4.1417      0.00000
     22       4.7100      0.00000
     23       5.0744      0.00000
     24       5.1307      0.00000
     25       5.8687      0.00000
     26       6.0315      0.00000
     27       6.6195      0.00000
     28       6.7066      0.00000
     29       7.1573      0.00000
     30       7.4413      0.00000
     31       7.4945      0.00000
     32       8.3153      0.00000

 k-point     8 :       0.3333    0.1667    0.0000
  band No.  band energies     occupation 
      1     -10.4952      2.00000
      2     -10.2449      2.00000
      3      -9.8395      2.00000
      4      -9.5718      2.00000
      5      -5.4325      2.00000
      6      -4.6166      2.00000
      7      -4.5069      2.00000
      8      -3.8832      2.00000
      9      -1.1299      2.00000
     10      -1.1146      2.00000
     11      -0.8037      2.00000
     12      -0.0397      2.00000
     13       0.1340      2.00000
     14       0.6734      2.00000
     15       1.0359      2.00000
     16       1.4985      2.00000
     17       1.8619      2.00000
     18       2.0974      2.00000
     19       2.3141      2.00000
     20       2.3417      2.00000
     21       4.1727      0.00000
     22       4.5584      0.00000
     23       4.9517      0.00000
     24       5.1327      0.00000
     25       5.4181      0.00000
     26       6.0543      0.00000
     27       6.2135      0.00000
     28       7.0194      0.00000
     29       7.0447      0.00000
     30       7.5524      0.00000
     31       7.5981      0.00000
     32       8.3103      0.00000

 k-point     9 :      -0.3333    0.1667    0.0000
  band No.  band energies     occupation 
      1     -10.4952      2.00000
      2     -10.2449      2.00000
      3      -9.8395      2.00000
      4      -9.5718      2.00000
      5      -5.4325      2.00000
      6      -4.6166      2.00000
      7      -4.5069      2.00000
      8      -3.8832      2.00000
      9      -1.1299      2.00000
     10      -1.1146      2.00000
     11      -0.8037      2.00000
     12      -0.0397      2.00000
     13       0.1340      2.00000
     14       0.6734      2.00000
     15       1.0359      2.00000
     16       1.4985      2.00000
     17       1.8619      2.00000
     18       2.0974      2.00000
     19       2.3141      2.00000
     20       2.3417      2.00000
     21       4.1727      0.00000
     22       4.5584      0.00000
     23       4.9517      0.00000
     24       5.1327      0.00000
     25       5.4181      0.00000
     26       6.0543      0.00000
     27       6.2135      0.00000
     28       7.0194      0.00000
     29       7.0447      0.00000
     30       7.5524      0.00000
     31       7.5981      0.00000
     32       8.3103      0.00000

 k-point    10 :       0.5000    0.1667    0.0000
  band No.  band energies     occupation 
      1     -10.1194      2.00000
      2     -10.1194      2.00000
      3      -9.8839      2.00000
      4      -9.8839      2.00000
      5      -5.1812      2.00000
      6      -5.1812      2.00000
      7      -4.3566      2.00000
      8      -4.3566      2.00000
      9      -0.7660      2.00000
     10      -0.7660      2.00000
     11      -0.4478      2.00000
     12      -0.4478      2.00000
     13      -0.0583      2.00000
     14      -0.0583      2.00000
     15       1.3037      2.00000
     16       1.3037      2.00000
     17       1.9738      2.00000
     18       1.9738      2.00000
     19       2.4282      2.00000
     20       2.4282      2.00000
     21       4.3609      0.00000
     22       4.3609      0.00000
     23       4.9171      0.00000
     24       4.9171      0.00000
     25       5.8753      0.00000
     26       5.8753      0.00000
     27       6.5526      0.00000
     28       6.5526      0.00000
     29       7.0283      0.00000
     30       7.0283      0.00000
     31       8.1416      0.00000
     32       8.1416      0.00000

 k-point    11 :       0.0000    0.3333    0.0000
  band No.  band energies     occupation 
      1     -10.4485      2.00000
      2     -10.2272      2.00000
      3      -9.6148      2.00000
      4      -9.4451      2.00000
      5      -5.5587      2.00000
      6      -5.1018      2.00000
      7      -4.5333      2.00000
      8      -4.1002      2.00000
      9      -1.2398      2.00000
     10      -0.3745      2.00000
     11      -0.0819      2.00000
     12       0.2920      2.00000
     13       0.4084      2.00000
     14       0.4723      2.00000
     15       1.0155      2.00000
     16       1.3227      2.00000
     17       1.6879      2.00000
     18       1.8604      2.00000
     19       2.1084      2.00000
     20       2.2949      2.00000
     21       4.0211      0.00000
     22       4.3576      0.00000
     23       4.6896      0.00000
     24       5.0618      0.00000
     25       5.2091      0.00000
     26       5.5447      0.00000
     27       5.6314      0.00000
     28       6.3828      0.00000
     29       6.7326      0.00000
     30       7.0413      0.00000
     31       7.0750      0.00000
     32       8.0983      0.00000

 k-point    12 :       0.1667    0.3333    0.0000
  band No.  band energies     occupation 
      1     -10.3585      2.00000
      2     -10.1472      2.00000
      3      -9.6183      2.00000
      4      -9.4566      2.00000
      5      -5.4968      2.00000
      6      -4.9991      2.00000
      7      -4.5141      2.00000
      8      -4.1933      2.00000
      9      -1.1714      2.00000
     10      -1.1319      2.00000
     11      -0.8728      2.00000
     12      -0.1378      2.00000
     13       0.5151      2.00000
     14       0.7539      2.00000
     15       0.7822      2.00000
     16       1.1654      2.00000
     17       1.3180      2.00000
     18       1.9731      2.00000
     19       1.9837      2.00000
     20       2.1454      2.00000
     21       4.0224      0.00000
     22       4.6642      0.00000
     23       4.9167      0.00000
     24       5.1633      0.00000
     25       5.7032      0.00000
     26       6.0881      0.00000
     27       6.3724      0.00000
     28       7.0252      0.00000
     29       7.0974      0.00000
     30       7.1312      0.00000
     31       7.8555      0.00000
     32       7.9897      0.00000

 k-point    13 :      -0.1667    0.3333    0.0000
  band No.  band energies     occupation 
      1     -10.3585      2.00000
      2     -10.1472      2.00000
      3      -9.6183      2.00000
      4      -9.4566      2.00000
      5      -5.4968      2.00000
      6      -4.9991      2.00000
      7      -4.5141      2.00000
      8      -4.1933      2.00000
      9      -1.1714      2.00000
     10      -1.1319      2.00000
     11      -0.8728      2.00000
     12      -0.1378      2.00000
     13       0.5151      2.00000
     14       0.7539      2.00000
     15       0.7822      2.00000
     16       1.1654      2.00000
     17       1.3180      2.00000
     18       1.9731      2.00000
     19       1.9837      2.00000
     20       2.1454      2.00000
     21       4.0224      0.00000
     22       4.6642      0.00000
     23       4.9167      0.00000
     24       5.1633      0.00000
     25       5.7032      0.00000
     26       6.0881      0.00000
     27       6.3724      0.00000
     28       7.0252      0.00000
     29       7.0974      0.00000
     30       7.1312      0.00000
     31       7.8555      0.00000
     32       7.9897      0.00000

 k-point    14 :       0.3333    0.3333    0.0000
  band No.  band energies     occupation 
      1     -10.1245      2.00000
      2      -9.9404      2.00000
      3      -9.6737      2.00000
      4      -9.5254      2.00000
      5      -5.3193      2.00000
      6      -4.7502      2.00000
      7      -4.6348      2.00000
      8      -4.3692      2.00000
      9      -1.7800      2.00000
     10      -1.3906      2.00000
     11      -1.0695      2.00000
     12      -0.7716      2.00000
     13      -0.3111      2.00000
     14       0.1916      2.00000
     15       0.3498      2.00000
     16       0.8355      2.00000
     17       1.0699      2.00000
     18       1.6018      2.00000
     19       1.8679      2.00000
     20       2.0961      2.00000
     21       4.2018      0.00000
     22       5.5674      0.00000
     23       6.1689      0.00000
     24       6.2641      0.00000
     25       6.3122      0.00000
     26       6.6933      0.00000
     27       7.1539      0.00000
     28       7.2615      0.00000
     29       7.6004      0.00000
     30       7.9661      0.00000
     31       8.1499      0.00000
     32       8.8258      0.00000

 k-point    15 :      -0.3333    0.3333    0.0000
  band No.  band energies     occupation 
      1     -10.1245      2.00000
      2      -9.9404      2.00000
      3      -9.6737      2.00000
      4      -9.5254      2.00000
      5      -5.3193      2.00000
      6      -4.7502      2.00000
      7      -4.6348      2.00000
      8      -4.3692      2.00000
      9      -1.7800      2.00000
     10      -1.3906      2.00000
     11      -1.0695      2.00000
     12      -0.7716      2.00000
     13      -0.3111      2.00000
     14       0.1916      2.00000
     15       0.3498      2.00000
     16       0.8355      2.00000
     17       1.0699      2.00000
     18       1.6018      2.00000
     19       1.8679      2.00000
     20       2.0961      2.00000
     21       4.2018      0.00000
     22       5.5674      0.00000
     23       6.1689      0.00000
     24       6.2641      0.00000
     25       6.3122      0.00000
     26       6.6933      0.00000
     27       7.1539      0.00000
     28       7.2615      0.00000
     29       7.6004      0.00000
     30       7.9661      0.00000
     31       8.1499      0.00000
     32       8.8258      0.00000

 k-point    16 :       0.5000    0.3333    0.0000
  band No.  band energies     occupation 
      1      -9.8530      2.00000
      2      -9.8530      2.00000
      3      -9.6984      2.00000
      4      -9.6984      2.00000
      5      -5.0126      2.00000
      6      -5.0126      2.00000
      7      -4.5065      2.00000
      8      -4.5065      2.00000
      9      -1.6943      2.00000
     10      -1.6943      2.00000
     11      -1.1749      2.00000
     12      -1.1749      2.00000
     13      -0.3322      2.00000
     14      -0.3322      2.00000
     15       0.5012      2.00000
     16       0.5012      2.00000
     17       1.0293      2.00000
     18       1.0293      2.00000
     19       1.9072      2.00000
     20       1.9072      2.00000
     21       5.1744      0.00000
     22       5.1744      0.00000
     23       6.6057      0.00000
     24       6.6057      0.00000
     25       7.2116      0.00000
     26       7.2116      0.00000
     27       7.4517      0.00000
     28       7.4517      0.00000
     29       7.9409      0.00000
     30       7.9409      0.00000
     31       8.5529      0.00000
     32       8.5529      0.00000

 k-point    17 :       0.0000    0.5000    0.0000
  band No.  band energies     occupation 
      1      -9.8608      2.00000
      2      -9.8608      2.00000
      3      -9.7828      2.00000
      4      -9.7828      2.00000
      5      -5.4198      2.00000
      6      -5.4198      2.00000
      7      -4.9053      2.00000
      8      -4.9053      2.00000
      9      -0.5219      2.00000
     10      -0.5219      2.00000
     11       0.3607      2.00000
     12       0.3607      2.00000
     13       0.6759      2.00000
     14       0.6759      2.00000
     15       1.2024      2.00000
     16       1.2024      2.00000
     17       1.6971      2.00000
     18       1.6971      2.00000
     19       1.8314      2.00000
     20       1.8314      2.00000
     21       4.1742      0.00000
     22       4.1742      0.00000
     23       4.4852      0.00000
     24       4.4852      0.00000
     25       5.0368      0.00000
     26       5.0368      0.00000
     27       5.4876      0.00000
     28       5.4876      0.00000
     29       6.3360      0.00000
     30       6.3360      0.00000
     31       7.6298      0.00000
     32       7.6298      0.00000

 k-point    18 :       0.1667    0.5000    0.0000
  band No.  band energies     occupation 
      1      -9.8147      2.00000
      2      -9.8147      2.00000
      3      -9.7460      2.00000
      4      -9.7460      2.00000
      5      -5.3117      2.00000
      6      -5.3117      2.00000
      7      -4.8593      2.00000
      8      -4.8593      2.00000
      9      -0.7560      2.00000
     10      -0.7560      2.00000
     11      -0.3430      2.00000
     12      -0.3430      2.00000
     13       0.1777      2.00000
     14       0.1777      2.00000
     15       0.7513      2.00000
     16       0.7513      2.00000
     17       1.4680      2.00000
     18       1.4680      2.00000
     19       2.1158      2.00000
     20       2.1158      2.00000
     21       4.1385      0.00000
     22       4.1385      0.00000
     23       5.1814      0.00000
     24       5.1814      0.00000
     25       6.1248      0.00000
     26       6.1248      0.00000
     27       6.3098      0.00000
     28       6.3098      0.00000
     29       7.0559      0.00000
     30       7.0559      0.00000
     31       7.3245      0.00000
     32       7.3245      0.00000

 k-point    19 :       0.3333    0.5000    0.0000
  band No.  band energies     occupation 
      1      -9.7152      2.00000
      2      -9.7152      2.00000
      3      -9.6726      2.00000
      4      -9.6726      2.00000
      5      -5.0545      2.00000
      6      -5.0545      2.00000
      7      -4.7813      2.00000
      8      -4.7813      2.00000
      9      -1.4393      2.00000
     10      -1.4393      2.00000
     11      -1.1071      2.00000
     12      -1.1071      2.00000
     13      -0.3762      2.00000
     14      -0.3762      2.00000
     15       0.2042      2.00000
     16       0.2042      2.00000
     17       1.0000      2.00000
     18       1.0000      2.00000
     19       1.8112      2.00000
     20       1.8112      2.00000
     21       5.1649      0.00000
     22       5.1649      0.00000
     23       6.4799      0.00000
     24       6.4799      0.00000
     25       7.0272      0.00000
     26       7.0272      0.00000
     27       7.2639      0.00000
     28       7.2639      0.00000
     29       7.8129      0.00000
     30       7.8129      0.00000
     31       8.7059      0.00000
     32       8.7059      0.00000

 k-point    20 :       0.5000    0.5000    0.0000
  band No.  band energies     occupation 
      1      -9.6569      2.00000
      2      -9.6569      2.00000
      3      -9.6405      2.00000
      4      -9.6405      2.00000
      5      -4.8795      2.00000
      6      -4.8795      2.00000
      7      -4.7712      2.00000
      8      -4.7712      2.00000
      9      -1.7172      2.00000
     10      -1.7172      2.00000
     11      -1.4695      2.00000
     12      -1.4695      2.00000
     13      -0.5378      2.00000
     14      -0.5378      2.00000
     15      -0.2092      2.00000
     16      -0.2092      2.00000
     17       1.0984      2.00000
     18       1.0984      2.00000
[...]
     32       7.2203      0.00000

 k-point    32 :       0.1667    0.3333    0.5000
  band No.  band energies     occupation 
      1     -10.2671      2.00000
      2     -10.2671      2.00000
      3      -9.5226      2.00000
      4      -9.5226      2.00000
      5      -5.2769      2.00000
      6      -5.2769      2.00000
      7      -4.3549      2.00000
      8      -4.3549      2.00000
      9      -1.0910      2.00000
     10      -1.0910      2.00000
     11      -0.3491      2.00000
     12      -0.3491      2.00000
     13       0.3813      2.00000
     14       0.3813      2.00000
     15       0.9870      2.00000
     16       0.9870      2.00000
     17       1.4122      2.00000
     18       1.4122      2.00000
     19       2.1774      2.00000
     20       2.1774      2.00000
     21       4.7703      0.00000
     22       4.7703      0.00000
     23       5.0801      0.00000
     24       5.0801      0.00000
     25       6.0201      0.00000
     26       6.0201      0.00000
     27       6.2917      0.00000
     28       6.2917      0.00000
     29       7.0168      0.00000
     30       7.0168      0.00000
     31       7.7262      0.00000
     32       7.7262      0.00000

 k-point    33 :      -0.1667    0.3333    0.5000
  band No.  band energies     occupation 
      1     -10.2671      2.00000
      2     -10.2671      2.00000
      3      -9.5226      2.00000
      4      -9.5226      2.00000
      5      -5.2769      2.00000
      6      -5.2769      2.00000
      7      -4.3549      2.00000
      8      -4.3549      2.00000
      9      -1.0910      2.00000
     10      -1.0910      2.00000
     11      -0.3491      2.00000
     12      -0.3491      2.00000
     13       0.3813      2.00000
     14       0.3813      2.00000
     15       0.9870      2.00000
     16       0.9870      2.00000
     17       1.4122      2.00000
     18       1.4122      2.00000
     19       2.1774      2.00000
     20       2.1774      2.00000
     21       4.7703      0.00000
     22       4.7703      0.00000
     23       5.0801      0.00000
     24       5.0801      0.00000
     25       6.0201      0.00000
     26       6.0201      0.00000
     27       6.2917      0.00000
     28       6.2917      0.00000
     29       7.0168      0.00000
     30       7.0168      0.00000
     31       7.7262      0.00000
     32       7.7262      0.00000

 k-point    34 :       0.3333    0.3333    0.5000
  band No.  band energies     occupation 
      1     -10.0486      2.00000
      2     -10.0486      2.00000
      3      -9.5836      2.00000
      4      -9.5836      2.00000
      5      -5.0913      2.00000
      6      -5.0913      2.00000
      7      -4.4637      2.00000
      8      -4.4637      2.00000
      9      -1.5955      2.00000
     10      -1.5955      2.00000
     11      -0.7792      2.00000
     12      -0.7792      2.00000
     13      -0.1887      2.00000
     14      -0.1887      2.00000
     15       0.5033      2.00000
     16       0.5033      2.00000
     17       1.3142      2.00000
     18       1.3142      2.00000
     19       2.0550      2.00000
     20       2.0550      2.00000
     21       5.3135      0.00000
     22       5.3135      0.00000
     23       5.9038      0.00000
     24       5.9038      0.00000
     25       6.2231      0.00000
     26       6.2231      0.00000
     27       7.1872      0.00000
     28       7.1872      0.00000
     29       7.3902      0.00000
     30       7.3902      0.00000
     31       8.7247      0.00000
     32       8.7247      0.00000

 k-point    35 :      -0.3333    0.3333    0.5000
  band No.  band energies     occupation 
      1     -10.0486      2.00000
      2     -10.0486      2.00000
      3      -9.5836      2.00000
      4      -9.5836      2.00000
      5      -5.0913      2.00000
      6      -5.0913      2.00000
      7      -4.4637      2.00000
      8      -4.4637      2.00000
      9      -1.5955      2.00000
     10      -1.5955      2.00000
     11      -0.7792      2.00000
     12      -0.7792      2.00000
     13      -0.1887      2.00000
     14      -0.1887      2.00000
     15       0.5033      2.00000
     16       0.5033      2.00000
     17       1.3142      2.00000
     18       1.3142      2.00000
     19       2.0550      2.00000
     20       2.0550      2.00000
     21       5.3135      0.00000
     22       5.3135      0.00000
     23       5.9038      0.00000
     24       5.9038      0.00000
     25       6.2231      0.00000
     26       6.2231      0.00000
     27       7.1872      0.00000
     28       7.1872      0.00000
     29       7.3902      0.00000
     30       7.3902      0.00000
     31       8.7247      0.00000
     32       8.7247      0.00000

 k-point    36 :       0.5000    0.3333    0.5000
  band No.  band energies     occupation 
      1      -9.8499      2.00000
      2      -9.8499      2.00000
      3      -9.7020      2.00000
      4      -9.7020      2.00000
      5      -4.9705      2.00000
      6      -4.9705      2.00000
      7      -4.5621      2.00000
      8      -4.5621      2.00000
      9      -1.4525      2.00000
     10      -1.4525      2.00000
     11      -1.4507      2.00000
     12      -1.4507      2.00000
     13      -0.0079      2.00000
     14      -0.0079      2.00000
     15      -0.0025      2.00000
     16      -0.0025      2.00000
     17       1.4403      2.00000
     18       1.4403      2.00000
     19       1.7364      2.00000
     20       1.7364      2.00000
     21       5.6078      0.00000
     22       5.6078      0.00000
     23       6.1638      0.00000
     24       6.1638      0.00000
     25       6.8923      0.00000
     26       6.8923      0.00000
     27       6.9058      0.00000
     28       6.9058      0.00000
     29       8.3147      0.00000
     30       8.3147      0.00000
     31       8.5542      0.00000
     32       8.5542      0.00000

 k-point    37 :       0.0000    0.5000    0.5000
  band No.  band energies     occupation 
      1      -9.8226      2.00000
      2      -9.8226      2.00000
      3      -9.8226      2.00000
      4      -9.8226      2.00000
      5      -5.1799      2.00000
      6      -5.1799      2.00000
      7      -5.1799      2.00000
      8      -5.1799      2.00000
      9       0.0146      2.00000
     10       0.0146      2.00000
     11       0.0146      2.00000
     12       0.0146      2.00000
     13       0.8669      2.00000
     14       0.8669      2.00000
     15       0.8669      2.00000
     16       0.8669      2.00000
     17       1.6198      2.00000
     18       1.6198      2.00000
     19       1.6198      2.00000
     20       1.6198      2.00000
     21       4.6233      0.00000
     22       4.6233      0.00000
     23       4.6233      0.00000
     24       4.6233      0.00000
     25       5.2191      0.00000
     26       5.2191      0.00000
     27       5.2191      0.00000
     28       5.2191      0.00000
     29       6.7500      0.00000
     30       6.7500      0.00000
     31       6.7500      0.00000
     32       6.7500      0.00000

 k-point    38 :       0.1667    0.5000    0.5000
  band No.  band energies     occupation 
      1      -9.7810      2.00000
      2      -9.7810      2.00000
      3      -9.7810      2.00000
      4      -9.7810      2.00000
      5      -5.0991      2.00000
      6      -5.0991      2.00000
      7      -5.0991      2.00000
      8      -5.0991      2.00000
      9      -0.4892      2.00000
     10      -0.4892      2.00000
     11      -0.4892      2.00000
     12      -0.4892      2.00000
     13       0.4356      2.00000
     14       0.4356      2.00000
     15       0.4356      2.00000
     16       0.4356      2.00000
     17       1.6449      2.00000
     18       1.6449      2.00000
     19       1.6449      2.00000
     20       1.6449      2.00000
     21       4.9502      0.00000
     22       4.9502      0.00000
     23       4.9502      0.00000
     24       4.9502      0.00000
     25       6.2160      0.00000
     26       6.2160      0.00000
     27       6.2160      0.00000
     28       6.2160      0.00000
     29       6.8739      0.00000
     30       6.8739      0.00000
     31       6.8739      0.00000
     32       6.8739      0.00000

 k-point    39 :       0.3333    0.5000    0.5000
  band No.  band energies     occupation 
      1      -9.6942      2.00000
      2      -9.6942      2.00000
      3      -9.6942      2.00000
      4      -9.6942      2.00000
      5      -4.9241      2.00000
      6      -4.9241      2.00000
      7      -4.9241      2.00000
      8      -4.9241      2.00000
      9      -1.2063      2.00000
     10      -1.2063      2.00000
     11      -1.2063      2.00000
     12      -1.2063      2.00000
     13      -0.2936      2.00000
     14      -0.2936      2.00000
     15      -0.2936      2.00000
     16      -0.2936      2.00000
     17       1.5842      2.00000
     18       1.5842      2.00000
     19       1.5842      2.00000
     20       1.5842      2.00000
     21       5.7419      0.00000
     22       5.7419      0.00000
     23       5.7419      0.00000
     24       5.7419      0.00000
     25       6.7909      0.00000
     26       6.7909      0.00000
     27       6.7909      0.00000
     28       6.7909      0.00000
     29       8.4105      0.00000
     30       8.4105      0.00000
     31       8.4105      0.00000
     32       8.4105      0.00000

 k-point    40 :       0.5000    0.5000    0.5000
  band No.  band energies     occupation 
      1      -9.6487      2.00000
      2      -9.6487      2.00000
      3      -9.6487      2.00000
      4      -9.6487      2.00000
      5      -4.8296      2.00000
      6      -4.8296      2.00000
      7      -4.8296      2.00000
      8      -4.8296      2.00000
      9      -1.4436      2.00000
     10      -1.4436      2.00000
     11      -1.4436      2.00000
     12      -1.4436      2.00000
     13      -0.7066      2.00000
     14      -0.7066      2.00000
     15      -0.7066      2.00000
     16      -0.7066      2.00000
     17       1.6215      2.00000
     18       1.6215      2.00000
     19       1.6215      2.00000
     20       1.6215      2.00000
     21       5.6279      0.00000
     22       5.6279      0.00000
     23       5.6279      0.00000
     24       5.6279      0.00000
     25       7.6523      0.00000
     26       7.6523      0.00000
     27       7.6523      0.00000
     28       7.6523      0.00000
     29       9.3151      0.00000
     30       9.3151      0.00000
     31       9.3151      0.00000
     32       9.3151      0.00000


--------------------------------------------------------------------------------------------------------


 soft charge-density along one line, spin component            1
         0         1         2         3         4         5         6         7         8         9
 total charge-density along one line
 
 pseudopotential strength for first ion, spin component:            1
 14.612  18.234   0.000   0.048   0.038   0.000   0.086   0.068
 18.234  22.767   0.000   0.060   0.048   0.000   0.108   0.086
  0.000   0.000   3.240   0.000   0.000   5.517   0.000   0.000
  0.048   0.060   0.000   3.236  -0.002   0.000   5.510  -0.004
  0.038   0.048   0.000  -0.002   3.240   0.000  -0.004   5.517
  0.000   0.000   5.517   0.000   0.000   9.452   0.000   0.000
  0.086   0.108   0.000   5.510  -0.004   0.000   9.440  -0.007
  0.068   0.086   0.000  -0.004   5.517   0.000  -0.007   9.451
  0.000   0.000   0.006  -0.000  -0.000   0.011  -0.000  -0.000
  0.000   0.000   0.012   0.000  -0.000   0.022   0.000  -0.000
 -0.005  -0.006  -0.000   0.012  -0.003  -0.000   0.022  -0.006
 -0.005  -0.006  -0.000   0.012   0.012  -0.000   0.021   0.023
 -0.000  -0.000  -0.000   0.000   0.011  -0.000   0.000   0.020
 total augmentation occupancy for first ion, spin component:            1
  2.632  -0.637  -0.000   0.386   0.280   0.000  -0.069  -0.046  -0.000   0.000   0.003  -0.014  -0.013
 -0.637   0.630  -0.000  -0.500  -0.379   0.000   0.077   0.057   0.000   0.000  -0.001   0.011   0.012
 -0.000  -0.000   1.181   0.000   0.000  -0.200   0.000  -0.000   0.128   0.035   0.000   0.000  -0.000
  0.386  -0.500   0.000   1.320   0.036  -0.000  -0.210   0.006   0.000  -0.000   0.112  -0.025   0.002
  0.280  -0.379   0.000   0.036   1.129  -0.000   0.006  -0.178   0.000  -0.000  -0.089   0.041  -0.011
  0.000   0.000  -0.200  -0.000  -0.000   0.038   0.000   0.000  -0.022  -0.006   0.000  -0.000   0.000
 -0.069   0.077   0.000  -0.210   0.006   0.000   0.038  -0.003  -0.000  -0.000  -0.019   0.004  -0.000
 -0.046   0.057  -0.000   0.006  -0.178   0.000  -0.003   0.032   0.000   0.000   0.015  -0.007   0.001
 -0.000   0.000   0.128   0.000   0.000  -0.022  -0.000   0.000   0.027   0.002   0.000   0.000   0.000
  0.000   0.000   0.035  -0.000  -0.000  -0.006  -0.000   0.000   0.002   0.010   0.000   0.000  -0.000
  0.003  -0.001   0.000   0.112  -0.089   0.000  -0.019   0.015   0.000   0.000   0.030  -0.007   0.003
 -0.014   0.011   0.000  -0.025   0.041  -0.000   0.004  -0.007   0.000   0.000  -0.007   0.011  -0.002
 -0.013   0.012  -0.000   0.002  -0.011   0.000  -0.000   0.001   0.000  -0.000   0.003  -0.002   0.008


------------------------ aborting loop because EDIFF is reached ----------------------------------------


    CHARGE:  cpu time      0.0038: real time      0.0039
    FORLOC:  cpu time      0.0002: real time      0.0002
    FORNL :  cpu time      0.0191: real time      0.0192
    STRESS:  cpu time      0.1961: real time      0.1970
    FORCOR:  cpu time      0.0034: real time      0.0034
    FORHAR:  cpu time      0.0009: real time      0.0009
    MIXING:  cpu time      0.0010: real time      0.0010
    OFIELD:  cpu time      0.0000: real time      0.0000

  FORCE on cell =-STRESS in cart. coord.  units (eV):
  Direction    XX          YY          ZZ          XY          YZ          ZX
  --------------------------------------------------------------------------------------
  Alpha Z    84.38020    84.38020    84.38020
  Ewald    -486.79683  -426.83125  -487.61147     0.00000    -0.00000    -0.00000
  Hartree    44.13983    65.85880    32.08197    -0.00000    -0.00000     0.00000
  E(xc)    -140.56376  -140.41570  -141.00960    -0.00000     0.00000    -0.00000
  Local    -124.68245  -199.44699  -114.88120    -0.00000     0.00000    -0.00000
  n-local   238.11434   238.95629   241.83362     0.00000    -0.00000    -0.00000
  augment   -11.84074   -11.31881   -12.21091    -0.00000     0.00000     0.00000
  Kinetic   396.70651   385.97011   397.67262     0.00000     0.00000    -0.00000
  Fock        0.00000     0.00000     0.00000     0.00000     0.00000     0.00000
  -------------------------------------------------------------------------------------
  Total      -0.54290    -2.84736     0.25523     0.00000     0.00000    -0.00000
  in kB      -4.33157   -22.71779     2.03633     0.00000     0.00000    -0.00000
  external pressure =       -8.34 kB  Pullay stress =        0.00 kB


 VOLUME and BASIS-vectors are now :
 -----------------------------------------------------------------------------
  energy-cutoff  :      360.00
  volume of cell :      200.81
      direct lattice vectors                 reciprocal lattice vectors
     4.450000000  0.000000000  0.000000000     0.224719101  0.000000000  0.000000000
     0.000000000  4.050000000  0.000000000     0.000000000  0.246913580  0.000000000
     0.000000000  0.000000000 11.142221000     0.000000000  0.000000000  0.089748713

  length of vectors
     4.450000000  4.050000000 11.142221000     0.224719101  0.246913580  0.089748713


 FORCES acting on ions
    electron-ion (+dipol)            ewald-force                    non-local-force                 convergence-correction
 -----------------------------------------------------------------------------------------------
   0.126E+02 -.941E-06 0.274E+02   -.152E+02 -.103E-14 -.304E+02   0.252E+01 0.385E-06 0.300E+01   0.382E-04 0.374E-06 -.113E-02
   0.126E+02 -.294E-06 -.274E+02   -.152E+02 0.154E-14 0.304E+02   0.252E+01 0.912E-07 -.300E+01   0.381E-04 0.161E-06 0.113E-02
   -.126E+02 -.222E-06 -.274E+02   0.152E+02 0.160E-14 0.304E+02   -.252E+01 0.269E-06 -.300E+01   -.389E-04 0.120E-06 0.113E-02
   -.126E+02 0.111E-05 0.274E+02   0.152E+02 -.150E-14 -.304E+02   -.252E+01 -.262E-06 0.300E+01   -.378E-04 -.713E-06 -.113E-02
   -.116E+02 0.420E-06 -.278E+02   0.130E+02 0.176E-14 0.296E+02   -.136E+01 -.107E-06 -.175E+01   0.422E-03 -.608E-06 0.252E-02
   -.116E+02 0.153E-05 0.278E+02   0.130E+02 -.824E-15 -.296E+02   -.136E+01 -.231E-06 0.175E+01   0.420E-03 -.900E-06 -.251E-02
   0.116E+02 -.452E-05 0.278E+02   -.130E+02 0.980E-15 -.296E+02   0.136E+01 0.154E-05 0.175E+01   -.423E-03 0.284E-05 -.252E-02
   0.116E+02 -.969E-06 -.278E+02   -.130E+02 0.778E-15 0.296E+02   0.136E+01 0.408E-06 -.175E+01   -.418E-03 0.454E-06 0.251E-02
 -----------------------------------------------------------------------------------------------
   0.818E-07 -.390E-05 -.200E-05   -.178E-14 0.331E-14 0.000E+00   0.176E-06 0.209E-05 0.501E-06   0.118E-06 0.173E-05 0.102E-05
 
 
 POSITION                                       TOTAL-FORCE (eV/Angst)
 -----------------------------------------------------------------------------------
      0.47506      1.01250      1.42062        -0.028412     -0.000000      0.013206
      2.70006      3.03750      4.15049        -0.028412     -0.000000     -0.013207
      3.97494      3.03750      9.72160         0.028412      0.000000     -0.013206
      1.74994      1.01250      6.99173         0.028412      0.000000      0.013207
      4.38442      1.01250      3.93888         0.048864     -0.000000      0.000042
      2.15942      3.03750      1.63223         0.048864      0.000000     -0.000042
      0.06558      3.03750      7.20334        -0.048864     -0.000000     -0.000043
      2.29058      1.01250      9.50999        -0.048864     -0.000000      0.000042
 -----------------------------------------------------------------------------------
    total drift:                                0.000000     -0.000000     -0.000000


--------------------------------------------------------------------------------------------------------



  FREE ENERGIE OF THE ION-ELECTRON SYSTEM (eV)
  ---------------------------------------------------
  free  energy   TOTEN  =       -33.77188384 eV

  energy  without entropy=      -33.77188384  energy(sigma->0) =      -33.77188384
 


--------------------------------------------------------------------------------------------------------


    POTLOK:  cpu time      0.1130: real time      0.1133


--------------------------------------------------------------------------------------------------------


     LOOP+:  cpu time      4.9723: real time      5.0152
    4ORBIT:  cpu time      0.0000: real time      0.0000

 total amount of memory used by VASP MPI-rank0    38546. kBytes
=======================================================================

   base      :      30000. kBytes
   nonl-proj :       6623. kBytes
   fftplans  :        357. kBytes
   grid      :        506. kBytes
   one-center:         16. kBytes
   wavefun   :       1044. kBytes
 
  
  
 General timing and accounting informations for this job:
 ========================================================
  
                  Total CPU time used (sec):        5.748
                            User time (sec):        5.481
                          System time (sec):        0.266
                         Elapsed time (sec):        7.234
  
                   Maximum memory used (kb):      190692.
                   Average memory used (kb):          N/A
  
                          Minor page faults:        22000
                          Major page faults:           35
                 Voluntary context switches:         3258
