 running  256 mpi-ranks, with    1 threads/rank, on    7 nodes
 distrk:  each k-point on  128 cores,    2 groups
 distr:  one band on    4 cores,   32 groups
 vasp.6.4.1 05Apr23 (build May 18 2023 13:19:41) complex                         
 POSCAR found type information on POSCAR C S O 
 POSCAR found :  3 types and     367 ions
 Reading from existing POTCAR
 scaLAPACK will be used
 Reading from existing POTCAR
 -----------------------------------------------------------------------------
|                                                                             |
|               ----> ADVICE to this user running VASP <----                  |
|                                                                             |
|     You have a (more or less) 'large supercell' and for larger cells it     |
|     might be more efficient to use real-space projection operators.         |
|     Therefore, try LREAL= Auto in the INCAR file.                           |
|     Mind: If you want to do very accurate calculations, keep the            |
|     reciprocal projection scheme (i.e. LREAL=.FALSE.).                      |
|                                                                             |
 -----------------------------------------------------------------------------

 LDA part: xc-table for Pade appr. of Perdew
 POSCAR, INCAR and KPOINTS ok, starting setup
 FFT: planning ... GRIDC
 FFT: planning ... GRID_SOFT
 FFT: planning ... GRID
 WAVECAR not read
 charge-density read from file: 01_AOPT                                 
 WARNING: random wavefunctions but no delay for mixing, default for NELMDL
 entering main loop
       N       E                     dE             d eps       ncg     rms          rms(c)
DAV:   1     0.113271604441E+05    0.11327E+05   -0.41730E+05  4288   0.938E+02
DAV:   2     0.408940465876E+03   -0.10918E+05   -0.10162E+05  5568   0.213E+02
DAV:   3    -0.301651619053E+04   -0.34255E+04   -0.32720E+04  4608   0.116E+02
DAV:   4    -0.331388782385E+04   -0.29737E+03   -0.28664E+03  4480   0.388E+01
DAV:   5    -0.332562533242E+04   -0.11738E+02   -0.11496E+02  5152   0.682E+00    0.131E-01
DAV:   6    -0.332585565744E+04   -0.23033E+00   -0.22773E+00  4768   0.102E+00    0.329E-02
DAV:   7    -0.332586336223E+04   -0.77048E-02   -0.75927E-02  4992   0.192E-01    0.300E-02
DAV:   8    -0.332586359655E+04   -0.23432E-03   -0.25499E-03  4800   0.360E-02    0.254E-02
DAV:   9    -0.332586359027E+04    0.62850E-05   -0.12062E-04  4672   0.806E-03    0.198E-02
DAV:  10    -0.332586357654E+04    0.13730E-04   -0.11035E-05  4192   0.364E-03    0.131E-02
DAV:  11    -0.332586356612E+04    0.10420E-04   -0.39627E-06  3616   0.231E-03    0.742E-03
DAV:  12    -0.332586355672E+04    0.94054E-05   -0.98254E-07  2976   0.140E-03    0.313E-03
DAV:  13    -0.332586355102E+04    0.56927E-05   -0.50276E-07  2624   0.939E-04    0.102E-03
DAV:  14    -0.332586354982E+04    0.12021E-05   -0.95439E-08  2560   0.515E-04    0.638E-04
DAV:  15    -0.332586354911E+04    0.70850E-06    0.39865E-08  2496   0.310E-04
   1 F= -.33399928E+04 E0= -.33399928E+04  d E =-.333999E+04
 BRION: g(F)=  0.332E-02 g(S)=  0.000E+00
 bond charge predicted
       N       E                     dE             d eps       ncg     rms          rms(c)
DAV:   1    -0.332585946835E+04    0.40815E-02   -0.52866E-01  3904   0.659E-01    0.138E-01
DAV:   2    -0.332586115275E+04   -0.16844E-02   -0.20481E-02  4096   0.942E-02    0.148E-01
DAV:   3    -0.332586111131E+04    0.41448E-04   -0.46186E-04  4544   0.169E-02    0.135E-01
DAV:   4    -0.332586084292E+04    0.26839E-03   -0.49848E-04  3936   0.205E-02    0.625E-02
DAV:   5    -0.332586083286E+04    0.10064E-04   -0.36491E-04  4032   0.156E-02    0.211E-02
DAV:   6    -0.332586083316E+04   -0.30687E-06   -0.44140E-05  4064   0.613E-03    0.130E-02
DAV:   7    -0.332586083265E+04    0.51560E-06   -0.11883E-05  4032   0.276E-03    0.649E-03
DAV:   8    -0.332586083223E+04    0.41351E-06   -0.44432E-06  3072   0.173E-03
   2 F= -.33399902E+04 E0= -.33399902E+04  d E =0.264274E-02
 BRION: g(F)=  0.497E-01 g(S)=  0.000E+00 retain N=  1 mean eig= 0.16
 eig:   0.160
 bond charge predicted
       N       E                     dE             d eps       ncg     rms          rms(c)
DAV:   1    -0.332586404251E+04   -0.32099E-02   -0.24000E-01  3712   0.346E-01    0.994E-02
DAV:   2    -0.332586515159E+04   -0.11091E-02   -0.13120E-02  4000   0.580E-02    0.118E-01
DAV:   3    -0.332586515406E+04   -0.24658E-05   -0.25947E-04  4768   0.951E-03    0.114E-01
DAV:   4    -0.332586502394E+04    0.13012E-03   -0.13823E-04  3808   0.822E-03    0.760E-02
DAV:   5    -0.332586494691E+04    0.77033E-04   -0.35427E-04  3872   0.127E-02    0.252E-02
DAV:   6    -0.332586495551E+04   -0.85979E-05   -0.75012E-05  3968   0.600E-03    0.209E-02
DAV:   7    -0.332586494774E+04    0.77682E-05   -0.22280E-05  3392   0.298E-03    0.959E-03
DAV:   8    -0.332586494786E+04   -0.12794E-06   -0.19530E-05  3360   0.260E-03    0.384E-03
DAV:   9    -0.332586494771E+04    0.15681E-06   -0.51191E-06  2688   0.128E-03
   3 F= -.33399943E+04 E0= -.33399943E+04  d E =-.412325E-02
 BRION: g(F)=  0.164E-02 g(S)=  0.000E+00 retain N=  1 mean eig= 0.16
 eig:   0.159
 bond charge predicted
       N       E                     dE             d eps       ncg     rms          rms(c)
DAV:   1    -0.332586472673E+04    0.22113E-03   -0.22249E-01  3776   0.472E-01    0.962E-02
DAV:   2    -0.332586512903E+04   -0.40229E-03   -0.56636E-03  4064   0.628E-02    0.839E-02
DAV:   3    -0.332586506286E+04    0.66170E-04   -0.18975E-04  4320   0.140E-02    0.628E-02
DAV:   4    -0.332586502086E+04    0.42001E-04   -0.18383E-04  4000   0.150E-02    0.227E-02
DAV:   5    -0.332586503070E+04   -0.98464E-05   -0.64819E-05  3936   0.720E-03    0.969E-03
DAV:   6    -0.332586502947E+04    0.12293E-05   -0.10623E-05  4000   0.356E-03    0.453E-03
DAV:   7    -0.332586503009E+04   -0.61980E-06   -0.19357E-06  3008   0.145E-03
   4 F= -.33399945E+04 E0= -.33399945E+04  d E =-.164665E-03
 BRION: g(F)=  0.899E-02 g(S)=  0.000E+00 retain N=  2 mean eig= 0.10
 eig:   0.114  0.093
 bond charge predicted
       N       E                     dE             d eps       ncg     rms          rms(c)
DAV:   1    -0.332586586184E+04   -0.83237E-03   -0.61376E-02  3680   0.247E-01    0.555E-02
DAV:   2    -0.332586601989E+04   -0.15805E-03   -0.21863E-03  4192   0.372E-02    0.508E-02
DAV:   3    -0.332586599998E+04    0.19910E-04   -0.66419E-05  4576   0.746E-03    0.404E-02
DAV:   4    -0.332586597159E+04    0.28395E-04   -0.69177E-05  3968   0.853E-03    0.162E-02
DAV:   5    -0.332586597215E+04   -0.56112E-06   -0.29623E-05  4096   0.508E-03    0.564E-03
DAV:   6    -0.332586597177E+04    0.37614E-06   -0.41771E-06  3200   0.203E-03
   5 F= -.33399954E+04 E0= -.33399954E+04  d E =-.948575E-03
 BRION: g(F)=  0.101E-02 g(S)=  0.000E+00 retain N=  1 mean eig= 0.19
 eig:   0.187
 bond charge predicted
       N       E                     dE             d eps       ncg     rms          rms(c)
DAV:   1    -0.332586636165E+04   -0.38950E-03   -0.12365E-01  3712   0.371E-01    0.658E-02
DAV:   2    -0.332586651938E+04   -0.15773E-03   -0.23678E-03  3968   0.461E-02    0.585E-02
DAV:   3    -0.332586648563E+04    0.33749E-04   -0.84472E-05  4160   0.102E-02    0.434E-02
DAV:   4    -0.332586647303E+04    0.12600E-04   -0.99377E-05  4032   0.118E-02    0.129E-02
DAV:   5    -0.332586647674E+04   -0.37068E-05   -0.25187E-05  4000   0.498E-03    0.654E-03
DAV:   6    -0.332586647639E+04    0.34750E-06   -0.39047E-06  3232   0.219E-03
   6 F= -.33399960E+04 E0= -.33399960E+04  d E =-.565357E-03
 BRION: g(F)=  0.248E-02 g(S)=  0.000E+00 retain N=  2 mean eig= 0.19
 eig:   0.189  0.189
 bond charge predicted
       N       E                     dE             d eps       ncg     rms          rms(c)
DAV:   1    -0.332586678949E+04   -0.31276E-03   -0.22572E-02  3712   0.150E-01    0.346E-02
DAV:   2    -0.332586683501E+04   -0.45515E-04   -0.65906E-04  4192   0.216E-02    0.279E-02
DAV:   3    -0.332586682586E+04    0.91518E-05   -0.26178E-05  4288   0.520E-03    0.198E-02
DAV:   4    -0.332586682162E+04    0.42355E-05   -0.21239E-05  3968   0.491E-03    0.741E-03
DAV:   5    -0.332586682264E+04   -0.10236E-05   -0.64629E-06  3264   0.241E-03    0.290E-03
DAV:   6    -0.332586682254E+04    0.10955E-06   -0.82120E-07  2688   0.102E-03
   7 F= -.33399964E+04 E0= -.33399964E+04  d E =-.360479E-03
 BRION: g(F)=  0.718E-03 g(S)=  0.000E+00 retain N=  1 mean eig= 0.22
 eig:   0.224
 bond charge predicted
       N       E                     dE             d eps       ncg     rms          rms(c)
DAV:   1    -0.332586729986E+04   -0.47722E-03   -0.88200E-02  3776   0.312E-01    0.525E-02
DAV:   2    -0.332586740169E+04   -0.10183E-03   -0.15115E-03  3968   0.367E-02    0.484E-02
DAV:   3    -0.332586738392E+04    0.17766E-04   -0.43991E-05  4192   0.752E-03    0.388E-02
DAV:   4    -0.332586738184E+04    0.20813E-05   -0.95064E-05  3872   0.114E-02    0.100E-02
DAV:   5    -0.332586738286E+04   -0.10224E-05   -0.18414E-05  4032   0.465E-03    0.593E-03
DAV:   6    -0.332586738245E+04    0.41234E-06   -0.26042E-06  3136   0.178E-03
   8 F= -.33399970E+04 E0= -.33399970E+04  d E =-.614782E-03
 BRION: g(F)=  0.981E-03 g(S)=  0.000E+00 retain N=  2 mean eig= 0.23
 eig:   0.225  0.225
 bond charge predicted
       N       E                     dE             d eps       ncg     rms          rms(c)
DAV:   1    -0.332586752154E+04   -0.13868E-03   -0.96570E-03  3776   0.901E-02    0.182E-02
DAV:   2    -0.332586754812E+04   -0.26576E-04   -0.32460E-04  3904   0.123E-02    0.187E-02
DAV:   3    -0.332586754685E+04    0.12689E-05   -0.69235E-06  3552   0.227E-03    0.166E-02
DAV:   4    -0.332586754367E+04    0.31726E-05   -0.84632E-06  3584   0.303E-03    0.688E-03
DAV:   5    -0.332586754409E+04   -0.41793E-06   -0.46861E-06  2880   0.183E-03
   9 F= -.33399972E+04 E0= -.33399972E+04  d E =-.175753E-03
 BRION: g(F)=  0.708E-03 g(S)=  0.000E+00 retain N=  1 mean eig= 0.15
 eig:   0.150
 bond charge predicted
       N       E                     dE             d eps       ncg     rms          rms(c)
DAV:   1    -0.332586796004E+04   -0.41637E-03   -0.69327E-02  3776   0.273E-01    0.469E-02
DAV:   2    -0.332586804214E+04   -0.82096E-04   -0.12098E-03  3968   0.322E-02    0.431E-02
DAV:   3    -0.332586802879E+04    0.13346E-04   -0.34314E-05  4288   0.664E-03    0.347E-02
DAV:   4    -0.332586802888E+04   -0.88592E-07   -0.71301E-05  3936   0.986E-03    0.904E-03
DAV:   5    -0.332586802984E+04   -0.95938E-06   -0.14316E-05  3968   0.405E-03    0.535E-03
DAV:   6    -0.332586802956E+04    0.28429E-06   -0.20780E-06  2976   0.156E-03
  10 F= -.33399977E+04 E0= -.33399977E+04  d E =-.531576E-03
 BRION: g(F)=  0.737E-03 g(S)=  0.000E+00 retain N=  2 mean eig= 1.78
 eig:   0.129  3.440
 bond charge predicted
       N       E                     dE             d eps       ncg     rms          rms(c)
DAV:   1    -0.332586818949E+04   -0.15965E-03   -0.98904E-03  3776   0.104E-01    0.177E-02
DAV:   2    -0.332586820453E+04   -0.15047E-04   -0.20496E-04  3936   0.133E-02    0.167E-02
DAV:   3    -0.332586820239E+04    0.21389E-05   -0.58967E-06  3552   0.267E-03    0.135E-02
DAV:   4    -0.332586820124E+04    0.11580E-05   -0.86938E-06  3584   0.365E-03    0.434E-03
DAV:   5    -0.332586820161E+04   -0.37637E-06   -0.22773E-06  3104   0.159E-03
  11 F= -.33399979E+04 E0= -.33399979E+04  d E =-.186922E-03
 BRION: g(F)=  0.595E-03 g(S)=  0.000E+00 retain N=  2 mean eig= 2.24
 eig:   0.193  4.286
 bond charge predicted
       N       E                     dE             d eps       ncg     rms          rms(c)
DAV:   1    -0.332586854567E+04   -0.34444E-03   -0.49139E-02  3712   0.227E-01    0.388E-02
DAV:   2    -0.332586860091E+04   -0.55233E-04   -0.81392E-04  3968   0.266E-02    0.351E-02
DAV:   3    -0.332586859100E+04    0.99058E-05   -0.22758E-05  4192   0.559E-03    0.271E-02
DAV:   4    -0.332586859235E+04   -0.13539E-05   -0.39221E-05  3904   0.747E-03    0.641E-03
DAV:   5    -0.332586859324E+04   -0.88557E-06   -0.87987E-06  3776   0.304E-03
  12 F= -.33399983E+04 E0= -.33399983E+04  d E =-.429525E-03
 BRION: g(F)=  0.590E-03 g(S)=  0.000E+00 retain N=  2 mean eig= 0.17
 eig:   0.172  0.172
 bond charge predicted
       N       E                     dE             d eps       ncg     rms          rms(c)
DAV:   1    -0.332586880448E+04   -0.21212E-03   -0.18220E-02  3712   0.138E-01    0.250E-02
DAV:   2    -0.332586882974E+04   -0.25268E-04   -0.35672E-04  3904   0.168E-02    0.232E-02
DAV:   3    -0.332586882655E+04    0.31978E-05   -0.95773E-06  3872   0.340E-03    0.191E-02
DAV:   4    -0.332586882762E+04   -0.10759E-05   -0.19801E-05  3648   0.518E-03    0.552E-03
DAV:   5    -0.332586882792E+04   -0.29861E-06   -0.40292E-06  3328   0.223E-03
  13 F= -.33399986E+04 E0= -.33399986E+04  d E =-.254739E-03
 BRION: g(F)=  0.581E-03 g(S)=  0.000E+00 retain N=  2 mean eig= 0.90
 eig:   0.050  1.744
 bond charge predicted
       N       E                     dE             d eps       ncg     rms          rms(c)
DAV:   1    -0.332586912808E+04   -0.30046E-03   -0.45920E-02  3712   0.212E-01    0.379E-02
DAV:   2    -0.332586918766E+04   -0.59574E-04   -0.83211E-04  3936   0.250E-02    0.340E-02
DAV:   3    -0.332586917892E+04    0.87339E-05   -0.20848E-05  4096   0.510E-03    0.265E-02
DAV:   4    -0.332586918025E+04   -0.13248E-05   -0.32164E-05  3680   0.666E-03    0.637E-03
DAV:   5    -0.332586918149E+04   -0.12425E-05   -0.79554E-06  3552   0.267E-03    0.419E-03
DAV:   6    -0.332586918128E+04    0.21444E-06   -0.11546E-06  2816   0.121E-03
  14 F= -.33399989E+04 E0= -.33399989E+04  d E =-.386219E-03
 BRION: g(F)=  0.625E-03 g(S)=  0.000E+00 retain N=  2 mean eig= 2.03
 eig:   0.180  3.873
 bond charge predicted
       N       E                     dE             d eps       ncg     rms          rms(c)
DAV:   1    -0.332586929029E+04   -0.10880E-03   -0.45697E-03  3648   0.689E-02    0.127E-02
DAV:   2    -0.332586929859E+04   -0.83003E-05   -0.11339E-04  3872   0.908E-03    0.124E-02
DAV:   3    -0.332586929774E+04    0.84902E-06   -0.29223E-06  3232   0.177E-03
  15 F= -.33399991E+04 E0= -.33399991E+04  d E =-.124811E-03
 BRION: g(F)=  0.525E-03 g(S)=  0.000E+00 retain N=  2 mean eig= 3.93
 eig:   0.145  7.714
 bond charge predicted
       N       E                     dE             d eps       ncg     rms          rms(c)
DAV:   1    -0.332586956792E+04   -0.26933E-03   -0.31727E-02  3648   0.177E-01    0.334E-02
DAV:   2    -0.332586960005E+04   -0.32137E-04   -0.51693E-04  3968   0.206E-02    0.297E-02
DAV:   3    -0.332586959379E+04    0.62631E-05   -0.15101E-05  4128   0.449E-03    0.225E-02
DAV:   4    -0.332586959686E+04   -0.30681E-05   -0.23680E-05  3712   0.565E-03    0.526E-03
DAV:   5    -0.332586959758E+04   -0.72131E-06   -0.54672E-06  3392   0.226E-03
  16 F= -.33399994E+04 E0= -.33399994E+04  d E =-.326400E-03
 BRION: g(F)=  0.488E-03 g(S)=  0.000E+00 retain N=  2 mean eig= 0.74
 eig:   0.096  1.382
 bond charge predicted
       N       E                     dE             d eps       ncg     rms          rms(c)
DAV:   1    -0.332587005328E+04   -0.45642E-03   -0.28040E-01  3680   0.526E-01    0.954E-02
DAV:   2    -0.332587039400E+04   -0.34073E-03   -0.50094E-03  4000   0.629E-02    0.869E-02
DAV:   3    -0.332587033540E+04    0.58605E-04   -0.12275E-04  4192   0.126E-02    0.701E-02
DAV:   4    -0.332587035185E+04   -0.16452E-04   -0.27786E-04  4000   0.192E-02    0.185E-02
DAV:   5    -0.332587035686E+04   -0.50052E-05   -0.57716E-05  4064   0.811E-03    0.110E-02
DAV:   6    -0.332587035622E+04    0.63109E-06   -0.89621E-06  3808   0.299E-03
  17 F= -.33400002E+04 E0= -.33400002E+04  d E =-.824361E-03
 BRION: g(F)=  0.163E-02 g(S)=  0.000E+00 retain N=  3 mean eig= 0.98
 eig:   1.922  0.149  0.884
 bond charge predicted
       N       E                     dE             d eps       ncg     rms          rms(c)
DAV:   1    -0.332587077740E+04   -0.42054E-03   -0.98204E-01  3616   0.961E-01    0.175E-01
DAV:   2    -0.332587197385E+04   -0.11965E-02   -0.17340E-02  3936   0.114E-01    0.156E-01
DAV:   3    -0.332587176856E+04    0.20529E-03   -0.43740E-04  4064   0.236E-02    0.122E-01
DAV:   4    -0.332587183854E+04   -0.69985E-04   -0.72172E-04  4096   0.312E-02    0.300E-02
DAV:   5    -0.332587186243E+04   -0.23889E-04   -0.17335E-04  3840   0.124E-02    0.209E-02
DAV:   6    -0.332587185820E+04    0.42286E-05   -0.29373E-05  4064   0.553E-03    0.120E-02
DAV:   7    -0.332587185771E+04    0.49674E-06   -0.13514E-05  4256   0.431E-03    0.482E-03
DAV:   8    -0.332587185825E+04   -0.54669E-06   -0.35945E-06  3104   0.216E-03
  18 F= -.33400018E+04 E0= -.33400018E+04  d E =-.162658E-02
 BRION: g(F)=  0.144E-02 g(S)=  0.000E+00 retain N=  2 mean eig= 1.97
 eig:   0.205  3.741
 bond charge predicted
       N       E                     dE             d eps       ncg     rms          rms(c)
DAV:   1    -0.332586903932E+04    0.28184E-02   -0.11717E+00  3584   0.106E+00    0.191E-01
DAV:   2    -0.332587040714E+04   -0.13678E-02   -0.20239E-02  3968   0.126E-01    0.172E-01
DAV:   3    -0.332587016546E+04    0.24167E-03   -0.49577E-04  4128   0.257E-02    0.135E-01
DAV:   4    -0.332587024154E+04   -0.76080E-04   -0.97352E-04  4064   0.360E-02    0.322E-02
DAV:   5    -0.332587026363E+04   -0.22090E-04   -0.21367E-04  3936   0.146E-02    0.218E-02
DAV:   6    -0.332587025879E+04    0.48418E-05   -0.34034E-05  4064   0.594E-03    0.126E-02
DAV:   7    -0.332587025827E+04    0.52131E-06   -0.13707E-05  4128   0.427E-03    0.518E-03
DAV:   8    -0.332587025893E+04   -0.65879E-06   -0.34598E-06  3136   0.203E-03
  19 F= -.33400001E+04 E0= -.33400001E+04  d E =0.173343E-02
 BRION: g(F)=  0.906E-03 g(S)=  0.000E+00 retain N=  2 mean eig= 0.41
 eig:   0.191  0.622
 bond charge predicted
       N       E                     dE             d eps       ncg     rms          rms(c)
DAV:   1    -0.332587065668E+04   -0.39841E-03   -0.35573E-01  3584   0.588E-01    0.108E-01
DAV:   2    -0.332587110588E+04   -0.44919E-03   -0.66287E-03  4000   0.716E-02    0.989E-02
DAV:   3    -0.332587102937E+04    0.76505E-04   -0.16885E-04  4224   0.144E-02    0.801E-02
DAV:   4    -0.332587104088E+04   -0.11510E-04   -0.35346E-04  4064   0.214E-02    0.217E-02
DAV:   5    -0.332587104934E+04   -0.84579E-05   -0.73627E-05  4032   0.896E-03    0.128E-02
DAV:   6    -0.332587104868E+04    0.65577E-06   -0.11832E-05  3936   0.335E-03    0.742E-03
DAV:   7    -0.332587104863E+04    0.55879E-07   -0.42335E-06  3456   0.232E-03
  20 F= -.33400010E+04 E0= -.33400010E+04  d E =-.861066E-03
 BRION: g(F)=  0.238E-02 g(S)=  0.000E+00 retain N=  3 mean eig= 0.50
 eig:   0.214  0.214  1.086
 bond charge predicted
       N       E                     dE             d eps       ncg     rms          rms(c)
DAV:   1    -0.332587129419E+04   -0.24551E-03   -0.14743E-02  3648   0.131E-01    0.229E-02
DAV:   2    -0.332587133185E+04   -0.37660E-04   -0.48165E-04  4096   0.196E-02    0.241E-02
DAV:   3    -0.332587132957E+04    0.22769E-05   -0.13097E-05  4352   0.341E-03    0.218E-02
DAV:   4    -0.332587132124E+04    0.83352E-05   -0.16002E-05  3872   0.474E-03    0.102E-02
DAV:   5    -0.332587132101E+04    0.23306E-06   -0.10406E-05  3808   0.334E-03    0.352E-03
DAV:   6    -0.332587132097E+04    0.32713E-07   -0.14445E-06  2752   0.142E-03
  21 F= -.33400013E+04 E0= -.33400013E+04  d E =-.278508E-03
 BRION: g(F)=  0.422E-03 g(S)=  0.000E+00 retain N=  1 mean eig= 0.18
 eig:   0.178
 bond charge predicted
       N       E                     dE             d eps       ncg     rms          rms(c)
DAV:   1    -0.332587161229E+04   -0.29128E-03   -0.60981E-02  3584   0.236E-01    0.441E-02
DAV:   2    -0.332587168434E+04   -0.72055E-04   -0.10751E-03  3936   0.287E-02    0.395E-02
DAV:   3    -0.332587167121E+04    0.13135E-04   -0.28272E-05  4160   0.608E-03    0.309E-02
DAV:   4    -0.332587167556E+04   -0.43465E-05   -0.48246E-05  3872   0.823E-03    0.793E-03
DAV:   5    -0.332587167724E+04   -0.16835E-05   -0.11716E-05  3808   0.341E-03    0.524E-03
DAV:   6    -0.332587167705E+04    0.18522E-06   -0.20081E-06  2944   0.159E-03
  22 F= -.33400016E+04 E0= -.33400016E+04  d E =-.383069E-03
 BRION: g(F)=  0.525E-03 g(S)=  0.000E+00 retain N=  2 mean eig= 0.21
 eig:   0.178  0.233
 bond charge predicted
       N       E                     dE             d eps       ncg     rms          rms(c)
DAV:   1    -0.332587178613E+04   -0.10889E-03   -0.57696E-03  3648   0.765E-02    0.143E-02
DAV:   2    -0.332587179547E+04   -0.93335E-05   -0.13142E-04  4032   0.101E-02    0.136E-02
DAV:   3    -0.332587179419E+04    0.12773E-05   -0.33708E-06  3168   0.200E-03    0.115E-02
DAV:   4    -0.332587179435E+04   -0.15553E-06   -0.85309E-06  3616   0.340E-03
  23 F= -.33400018E+04 E0= -.33400018E+04  d E =-.122159E-03
 BRION: g(F)=  0.400E-03 g(S)=  0.000E+00 retain N=  2 mean eig= 3.63
 eig:   0.113  7.144
 bond charge predicted
       N       E                     dE             d eps       ncg     rms          rms(c)
DAV:   1    -0.332587202280E+04   -0.22861E-03   -0.38520E-02  3616   0.181E-01    0.363E-02
DAV:   2    -0.332587207142E+04   -0.48619E-04   -0.71380E-04  3904   0.218E-02    0.319E-02
DAV:   3    -0.332587206358E+04    0.78387E-05   -0.17385E-05  4064   0.457E-03    0.246E-02
DAV:   4    -0.332587206715E+04   -0.35657E-05   -0.25595E-05  3680   0.580E-03    0.621E-03
DAV:   5    -0.332587206846E+04   -0.13082E-05   -0.67336E-06  3392   0.238E-03    0.413E-03
DAV:   6    -0.332587206835E+04    0.11118E-06   -0.10850E-06  2784   0.113E-03
  24 F= -.33400021E+04 E0= -.33400021E+04  d E =-.297442E-03
 BRION: g(F)=  0.502E-03 g(S)=  0.000E+00 retain N=  2 mean eig= 1.09
 eig:   0.179  2.003
 bond charge predicted
       N       E                     dE             d eps       ncg     rms          rms(c)
DAV:   1    -0.332587220013E+04   -0.13167E-03   -0.82886E-03  3616   0.852E-02    0.172E-02
DAV:   2    -0.332587221218E+04   -0.12053E-04   -0.17584E-04  3904   0.107E-02    0.159E-02
DAV:   3    -0.332587221041E+04    0.17727E-05   -0.39156E-06  3296   0.213E-03    0.132E-02
DAV:   4    -0.332587221136E+04   -0.94855E-06   -0.98563E-06  3520   0.341E-03
  25 F= -.33400022E+04 E0= -.33400022E+04  d E =-.151528E-03
 BRION: g(F)=  0.374E-03 g(S)=  0.000E+00 retain N=  2 mean eig= 3.29
 eig:   0.075  6.497
 bond charge predicted
       N       E                     dE             d eps       ncg     rms          rms(c)
DAV:   1    -0.332587237154E+04   -0.16113E-03   -0.15882E-02  3616   0.119E-01    0.236E-02
DAV:   2    -0.332587238993E+04   -0.18387E-04   -0.27969E-04  3968   0.142E-02    0.207E-02
DAV:   3    -0.332587238689E+04    0.30380E-05   -0.71447E-06  3616   0.301E-03    0.159E-02
DAV:   4    -0.332587238918E+04   -0.22926E-05   -0.11545E-05  3648   0.392E-03    0.416E-03
DAV:   5    -0.332587238961E+04   -0.42818E-06   -0.26502E-06  3040   0.160E-03
  26 F= -.33400024E+04 E0= -.33400024E+04  d E =-.193210E-03
 BRION: g(F)=  0.414E-03 g(S)=  0.000E+00 retain N=  2 mean eig= 0.63
 eig:   0.208  1.048
 bond charge predicted
       N       E                     dE             d eps       ncg     rms          rms(c)
DAV:   1    -0.332587262945E+04   -0.24027E-03   -0.36286E-02  3584   0.177E-01    0.349E-02
DAV:   2    -0.332587267132E+04   -0.41866E-04   -0.63934E-04  3968   0.212E-02    0.309E-02
DAV:   3    -0.332587266394E+04    0.73792E-05   -0.14267E-05  3936   0.431E-03    0.243E-02
DAV:   4    -0.332587266955E+04   -0.56130E-05   -0.29548E-05  3648   0.609E-03    0.586E-03
DAV:   5    -0.332587267022E+04   -0.66939E-06   -0.63123E-06  3520   0.254E-03
  27 F= -.33400027E+04 E0= -.33400027E+04  d E =-.301744E-03
 BRION: g(F)=  0.375E-03 g(S)=  0.000E+00 retain N=  2 mean eig= 1.37
 eig:   0.098  2.642
 bond charge predicted
       N       E                     dE             d eps       ncg     rms          rms(c)
DAV:   1    -0.332587265516E+04    0.14392E-04   -0.93283E-04  3648   0.252E-02    0.636E-03
DAV:   2    -0.332587265914E+04   -0.39870E-05   -0.48329E-05  4064   0.412E-03    0.732E-03
DAV:   3    -0.332587265911E+04    0.34226E-07   -0.88463E-07  2816   0.726E-04
  28 F= -.33400027E+04 E0= -.33400027E+04  d E =0.146696E-04
 BRION: g(F)=  0.439E-03 g(S)=  0.000E+00 retain N=  3 mean eig= 2.23
 eig:   6.412  0.009  0.273
 bond charge predicted
       N       E                     dE             d eps       ncg     rms          rms(c)
DAV:   1    -0.332587283163E+04   -0.17248E-03   -0.18286E-02  3584   0.121E-01    0.241E-02
DAV:   2    -0.332587285666E+04   -0.25037E-04   -0.34983E-04  3904   0.147E-02    0.210E-02
DAV:   3    -0.332587285324E+04    0.34216E-05   -0.76631E-06  3552   0.299E-03    0.164E-02
DAV:   4    -0.332587285547E+04   -0.22283E-05   -0.11385E-05  3648   0.383E-03    0.410E-03
DAV:   5    -0.332587285608E+04   -0.60757E-06   -0.28003E-06  3040   0.154E-03
  29 F= -.33400029E+04 E0= -.33400029E+04  d E =-.209421E-03
 BRION: g(F)=  0.371E-03 g(S)=  0.000E+00 retain N=  1 mean eig= 0.13
 eig:   0.128
 bond charge predicted
       N       E                     dE             d eps       ncg     rms          rms(c)
DAV:   1    -0.332587309850E+04   -0.24303E-03   -0.49371E-02  3584   0.205E-01    0.409E-02
DAV:   2    -0.332587315645E+04   -0.57959E-04   -0.89313E-04  3968   0.251E-02    0.365E-02
DAV:   3    -0.332587314546E+04    0.10996E-04   -0.20658E-05  4160   0.510E-03    0.288E-02
DAV:   4    -0.332587315299E+04   -0.75352E-05   -0.40781E-05  3680   0.725E-03    0.724E-03
DAV:   5    -0.332587315430E+04   -0.13065E-05   -0.90254E-06  3808   0.308E-03    0.448E-03
DAV:   6    -0.332587315426E+04    0.40047E-07   -0.13336E-06  2848   0.119E-03
  30 F= -.33400032E+04 E0= -.33400032E+04  d E =-.316346E-03
 BRION: g(F)=  0.574E-03 g(S)=  0.000E+00 retain N=  2 mean eig= 0.17
 eig:   0.173  0.173
 bond charge predicted
       N       E                     dE             d eps       ncg     rms          rms(c)
DAV:   1    -0.332587324429E+04   -0.89985E-04   -0.37401E-03  3648   0.636E-02    0.112E-02
DAV:   2    -0.332587324962E+04   -0.53380E-05   -0.77456E-05  4064   0.847E-03    0.104E-02
DAV:   3    -0.332587324870E+04    0.92003E-06   -0.22358E-06  3040   0.172E-03
  31 F= -.33400033E+04 E0= -.33400033E+04  d E =-.972800E-04
 BRION: g(F)=  0.375E-03 g(S)=  0.000E+00 retain N=  1 mean eig= 0.19
 eig:   0.187
 bond charge predicted
       N       E                     dE             d eps       ncg     rms          rms(c)
DAV:   1    -0.332587352572E+04   -0.27610E-03   -0.56300E-02  3584   0.212E-01    0.450E-02
DAV:   2    -0.332587358388E+04   -0.58166E-04   -0.96642E-04  3904   0.251E-02    0.392E-02
DAV:   3    -0.332587357152E+04    0.12369E-04   -0.23599E-05  4064   0.539E-03    0.299E-02
DAV:   4    -0.332587358246E+04   -0.10941E-04   -0.40067E-05  3776   0.704E-03    0.713E-03
DAV:   5    -0.332587358403E+04   -0.15757E-05   -0.96740E-06  3584   0.284E-03    0.511E-03
DAV:   6    -0.332587358391E+04    0.12433E-06   -0.16057E-06  2816   0.131E-03
  32 F= -.33400037E+04 E0= -.33400037E+04  d E =-.353616E-03
 BRION: g(F)=  0.390E-03 g(S)=  0.000E+00 retain N=  2 mean eig= 0.16
 eig:   0.276  0.049
 bond charge predicted
       N       E                     dE             d eps       ncg     rms          rms(c)
DAV:   1    -0.332587371290E+04   -0.12887E-03   -0.10585E-02  3648   0.931E-02    0.197E-02
DAV:   2    -0.332587372783E+04   -0.14923E-04   -0.22402E-04  3872   0.118E-02    0.179E-02
DAV:   3    -0.332587372532E+04    0.25015E-05   -0.51566E-06  3360   0.239E-03    0.147E-02
DAV:   4    -0.332587372721E+04   -0.18817E-05   -0.12448E-05  3488   0.383E-03    0.439E-03
DAV:   5    -0.332587372747E+04   -0.26368E-06   -0.22877E-06  2944   0.156E-03
  33 F= -.33400038E+04 E0= -.33400038E+04  d E =-.147934E-03
 BRION: g(F)=  0.418E-03 g(S)=  0.000E+00 retain N=  2 mean eig= 2.70
 eig:   0.022  5.384
 bond charge predicted
       N       E                     dE             d eps       ncg     rms          rms(c)
DAV:   1    -0.332587394783E+04   -0.22063E-03   -0.42937E-02  3648   0.183E-01    0.382E-02
DAV:   2    -0.332587400164E+04   -0.53808E-04   -0.80765E-04  3904   0.224E-02    0.335E-02
DAV:   3    -0.332587399195E+04    0.96934E-05   -0.18424E-05  4064   0.460E-03    0.259E-02
DAV:   4    -0.332587399914E+04   -0.71983E-05   -0.28040E-05  3712   0.600E-03    0.651E-03
DAV:   5    -0.332587400071E+04   -0.15672E-05   -0.73047E-06  3456   0.245E-03    0.443E-03
DAV:   6    -0.332587400072E+04   -0.91968E-08   -0.12493E-06  2752   0.114E-03
  34 F= -.33400041E+04 E0= -.33400041E+04  d E =-.287146E-03
 BRION: g(F)=  0.535E-03 g(S)=  0.000E+00 retain N=  2 mean eig= 1.00
 eig:   0.186  1.811
 bond charge predicted
       N       E                     dE             d eps       ncg     rms          rms(c)
DAV:   1    -0.332587406176E+04   -0.61046E-04   -0.18957E-03  3648   0.475E-02    0.831E-03
DAV:   2    -0.332587406488E+04   -0.31249E-05   -0.45536E-05  4096   0.666E-03    0.807E-03
DAV:   3    -0.332587406437E+04    0.51758E-06   -0.11621E-06  2880   0.129E-03
  35 F= -.33400042E+04 E0= -.33400042E+04  d E =-.642532E-04
 BRION: g(F)=  0.362E-03 g(S)=  0.000E+00 retain N=  2 mean eig= 2.33
 eig:   0.182  4.485
 bond charge predicted
       N       E                     dE             d eps       ncg     rms          rms(c)
DAV:   1    -0.332587426310E+04   -0.19822E-03   -0.25322E-02  3648   0.138E-01    0.305E-02
DAV:   2    -0.332587428843E+04   -0.25330E-04   -0.43529E-04  3936   0.164E-02    0.265E-02
DAV:   3    -0.332587428260E+04    0.58281E-05   -0.97943E-06  3776   0.346E-03    0.203E-02
DAV:   4    -0.332587428892E+04   -0.63215E-05   -0.18769E-05  3584   0.469E-03    0.476E-03
DAV:   5    -0.332587428961E+04   -0.68697E-06   -0.42409E-06  3264   0.188E-03
  36 F= -.33400044E+04 E0= -.33400044E+04  d E =-.234548E-03
 BRION: g(F)=  0.356E-03 g(S)=  0.000E+00 retain N=  3 mean eig= 2.67
 eig:   7.182  0.349  0.479
 bond charge predicted
       N       E                     dE             d eps       ncg     rms          rms(c)
DAV:   1    -0.332587444628E+04   -0.15735E-03   -0.23143E-02  3648   0.133E-01    0.283E-02
DAV:   2    -0.332587447564E+04   -0.29361E-04   -0.44647E-04  3936   0.167E-02    0.248E-02
DAV:   3    -0.332587447017E+04    0.54669E-05   -0.10711E-05  3840   0.358E-03    0.194E-02
DAV:   4    -0.332587447520E+04   -0.50255E-05   -0.17069E-05  3616   0.486E-03    0.527E-03
DAV:   5    -0.332587447620E+04   -0.10049E-05   -0.42534E-06  3424   0.206E-03    0.345E-03
DAV:   6    -0.332587447624E+04   -0.37369E-07   -0.86685E-07  2720   0.106E-03
  37 F= -.33400046E+04 E0= -.33400046E+04  d E =-.192361E-03
 BRION: g(F)=  0.566E-03 g(S)=  0.000E+00 retain N=  3 mean eig= 0.45
 eig:   0.552  0.097  0.712
 bond charge predicted
       N       E                     dE             d eps       ncg     rms          rms(c)
DAV:   1    -0.332587455621E+04   -0.80007E-04   -0.84344E-03  3648   0.764E-02    0.183E-02
DAV:   2    -0.332587458015E+04   -0.23942E-04   -0.30928E-04  3872   0.108E-02    0.193E-02
DAV:   3    -0.332587457836E+04    0.17945E-05   -0.65341E-06  3296   0.197E-03    0.174E-02
DAV:   4    -0.332587457688E+04    0.14752E-05   -0.13561E-05  3552   0.319E-03    0.629E-03
DAV:   5    -0.332587457738E+04   -0.49884E-06   -0.32623E-06  2816   0.145E-03
  38 F= -.33400047E+04 E0= -.33400047E+04  d E =-.104115E-03
 BRION: g(F)=  0.673E-03 g(S)=  0.000E+00 retain N=  2 mean eig= 0.72
 eig:   0.078  1.357
 bond charge predicted
       N       E                     dE             d eps       ncg     rms          rms(c)
DAV:   1    -0.332587467730E+04   -0.10041E-03   -0.63927E-03  3648   0.660E-02    0.155E-02
DAV:   2    -0.332587469213E+04   -0.14835E-04   -0.19090E-04  3936   0.902E-03    0.146E-02
DAV:   3    -0.332587469052E+04    0.16125E-05   -0.37388E-06  3008   0.171E-03    0.122E-02
DAV:   4    -0.332587469006E+04    0.45507E-06   -0.48228E-06  2976   0.226E-03
  39 F= -.33400048E+04 E0= -.33400048E+04  d E =-.117097E-03
 BRION: g(F)=  0.384E-03 g(S)=  0.000E+00 retain N=  2 mean eig= 3.56
 eig:   0.166  6.951
 bond charge predicted
       N       E                     dE             d eps       ncg     rms          rms(c)
DAV:   1    -0.332587490611E+04   -0.21559E-03   -0.40032E-02  3648   0.176E-01    0.377E-02
DAV:   2    -0.332587495055E+04   -0.44440E-04   -0.73231E-04  3968   0.219E-02    0.332E-02
DAV:   3    -0.332587493968E+04    0.10874E-04   -0.17441E-05  4160   0.461E-03    0.262E-02
DAV:   4    -0.332587495022E+04   -0.10538E-04   -0.33770E-05  3776   0.659E-03    0.695E-03
DAV:   5    -0.332587495182E+04   -0.16057E-05   -0.77592E-06  3520   0.282E-03    0.438E-03
DAV:   6    -0.332587495190E+04   -0.73225E-07   -0.13153E-06  2784   0.121E-03
  40 F= -.33400051E+04 E0= -.33400051E+04  d E =-.268146E-03
 BRION: g(F)=  0.524E-03 g(S)=  0.000E+00 retain N=  3 mean eig= 2.58
 eig:   7.357  0.168  0.222
 bond charge predicted
       N       E                     dE             d eps       ncg     rms          rms(c)
DAV:   1    -0.332587505843E+04   -0.10660E-03   -0.58260E-03  3648   0.743E-02    0.146E-02
DAV:   2    -0.332587506603E+04   -0.76087E-05   -0.12157E-04  4032   0.100E-02    0.133E-02
DAV:   3    -0.332587506411E+04    0.19209E-05   -0.33682E-06  3168   0.212E-03    0.105E-02
DAV:   4    -0.332587506459E+04   -0.47649E-06   -0.70426E-06  3584   0.321E-03
  41 F= -.33400052E+04 E0= -.33400052E+04  d E =-.114937E-03
 BRION: g(F)=  0.340E-03 g(S)=  0.000E+00 retain N=  1 mean eig= 0.23
 eig:   0.226
 bond charge predicted
       N       E                     dE             d eps       ncg     rms          rms(c)
DAV:   1    -0.332587532602E+04   -0.26191E-03   -0.51199E-02  3648   0.189E-01    0.432E-02
DAV:   2    -0.332587537961E+04   -0.53589E-04   -0.92326E-04  3968   0.227E-02    0.376E-02
DAV:   3    -0.332587536655E+04    0.13059E-04   -0.18449E-05  4032   0.462E-03    0.295E-02
DAV:   4    -0.332587538353E+04   -0.16980E-04   -0.41451E-05  3616   0.663E-03    0.740E-03
DAV:   5    -0.332587538512E+04   -0.15885E-05   -0.88252E-06  3648   0.279E-03    0.477E-03
DAV:   6    -0.332587538534E+04   -0.21770E-06   -0.12868E-06  2816   0.106E-03
  42 F= -.33400055E+04 E0= -.33400055E+04  d E =-.326853E-03
 BRION: g(F)=  0.410E-03 g(S)=  0.000E+00 retain N=  2 mean eig= 0.19
 eig:   0.190  0.190
 bond charge predicted
       N       E                     dE             d eps       ncg     rms          rms(c)
DAV:   1    -0.332587544354E+04   -0.58414E-04   -0.19181E-03  3648   0.355E-02    0.831E-03
DAV:   2    -0.332587544687E+04   -0.33388E-05   -0.46622E-05  3968   0.466E-03    0.736E-03
DAV:   3    -0.332587544638E+04    0.49523E-06   -0.79487E-07  2816   0.918E-04
  43 F= -.33400056E+04 E0= -.33400056E+04  d E =-.618881E-04
 BRION: g(F)=  0.362E-03 g(S)=  0.000E+00 retain N=  1 mean eig= 0.13
 eig:   0.126
 bond charge predicted
       N       E                     dE             d eps       ncg     rms          rms(c)
DAV:   1    -0.332587572249E+04   -0.27562E-03   -0.58380E-02  3648   0.199E-01    0.461E-02
DAV:   2    -0.332587577905E+04   -0.56553E-04   -0.10160E-03  3904   0.238E-02    0.398E-02
DAV:   3    -0.332587576461E+04    0.14432E-04   -0.22030E-05  4064   0.498E-03    0.305E-02
DAV:   4    -0.332587578340E+04   -0.18786E-04   -0.39987E-05  3712   0.671E-03    0.730E-03
DAV:   5    -0.332587578557E+04   -0.21711E-05   -0.96948E-06  3552   0.270E-03    0.536E-03
DAV:   6    -0.332587578578E+04   -0.20699E-06   -0.16497E-06  2848   0.124E-03
  44 F= -.33400059E+04 E0= -.33400059E+04  d E =-.344833E-03
 BRION: g(F)=  0.423E-03 g(S)=  0.000E+00 retain N=  2 mean eig= 0.69
 eig:   0.177  1.199
 bond charge predicted
       N       E                     dE             d eps       ncg     rms          rms(c)
DAV:   1    -0.332587588486E+04   -0.99290E-04   -0.60368E-03  3648   0.687E-02    0.145E-02
DAV:   2    -0.332587589217E+04   -0.73104E-05   -0.12025E-04  4032   0.896E-03    0.129E-02
DAV:   3    -0.332587589036E+04    0.18094E-05   -0.26526E-06  3072   0.183E-03    0.101E-02
DAV:   4    -0.332587589251E+04   -0.21487E-05   -0.54257E-06  3456   0.273E-03    0.286E-03
DAV:   5    -0.332587589281E+04   -0.30373E-06   -0.10582E-06  2720   0.108E-03
  45 F= -.33400060E+04 E0= -.33400060E+04  d E =-.105148E-03
 BRION: g(F)=  0.407E-03 g(S)=  0.000E+00 retain N=  2 mean eig= 0.79
 eig:   0.257  1.332
 bond charge predicted
       N       E                     dE             d eps       ncg     rms          rms(c)
DAV:   1    -0.332587590460E+04   -0.12088E-04   -0.66452E-04  3648   0.209E-02    0.539E-03
DAV:   2    -0.332587590770E+04   -0.30993E-05   -0.36982E-05  3712   0.348E-03    0.647E-03
DAV:   3    -0.332587590767E+04    0.26892E-07   -0.68094E-07  2784   0.663E-04
  46 F= -.33400060E+04 E0= -.33400060E+04  d E =-.155348E-04
 BRION: g(F)=  0.365E-03 g(S)=  0.000E+00 retain N=  2 mean eig= 0.21
 eig:   0.097  0.332
 bond charge predicted
       N       E                     dE             d eps       ncg     rms          rms(c)
DAV:   1    -0.332587617735E+04   -0.26966E-03   -0.50596E-02  3648   0.180E-01    0.425E-02
DAV:   2    -0.332587622802E+04   -0.50669E-04   -0.88803E-04  3904   0.215E-02    0.367E-02
DAV:   3    -0.332587621519E+04    0.12835E-04   -0.17584E-05  3968   0.442E-03    0.282E-02
DAV:   4    -0.332587623238E+04   -0.17194E-04   -0.35223E-05  3648   0.610E-03    0.656E-03
DAV:   5    -0.332587623408E+04   -0.16936E-05   -0.81795E-06  3424   0.241E-03    0.501E-03
DAV:   6    -0.332587623436E+04   -0.28650E-06   -0.12830E-06  2784   0.110E-03
  47 F= -.33400064E+04 E0= -.33400064E+04  d E =-.326922E-03
 BRION: g(F)=  0.361E-03 g(S)=  0.000E+00 retain N=  3 mean eig= 1.46
 eig:   3.888  0.243  0.243
 bond charge predicted
       N       E                     dE             d eps       ncg     rms          rms(c)
DAV:   1    -0.332587626783E+04   -0.33755E-04   -0.53152E-04  3648   0.183E-02    0.452E-03
DAV:   2    -0.332587626836E+04   -0.52969E-06   -0.10202E-05  3424   0.235E-03    0.384E-03
DAV:   3    -0.332587626826E+04    0.10186E-06   -0.10824E-07  2464   0.539E-04
  48 F= -.33400064E+04 E0= -.33400064E+04  d E =-.333208E-04
 BRION: g(F)=  0.362E-03 g(S)=  0.000E+00 retain N=  2 mean eig= 1.53
 eig:   0.525  2.526
 bond charge predicted
       N       E                     dE             d eps       ncg     rms          rms(c)
DAV:   1    -0.332587618004E+04    0.88320E-04   -0.33399E-03  3648   0.557E-02    0.115E-02
DAV:   2    -0.332587619070E+04   -0.10659E-04   -0.13437E-04  4000   0.845E-03    0.125E-02
DAV:   3    -0.332587619003E+04    0.67230E-06   -0.29830E-06  3200   0.149E-03
  49 F= -.33400063E+04 E0= -.33400063E+04  d E =0.849302E-04
 BRION: g(F)=  0.674E-03 g(S)=  0.000E+00 retain N=  2 mean eig= 0.14
 eig:   0.135  0.135
 bond charge predicted
       N       E                     dE             d eps       ncg     rms          rms(c)
DAV:   1    -0.332587641366E+04   -0.22296E-03   -0.33772E-02  3584   0.144E-01    0.337E-02
DAV:   2    -0.332587647343E+04   -0.59771E-04   -0.82408E-04  3872   0.186E-02    0.306E-02
DAV:   3    -0.332587646366E+04    0.97750E-05   -0.16318E-05  3808   0.358E-03    0.253E-02
DAV:   4    -0.332587647124E+04   -0.75891E-05   -0.31088E-05  3616   0.514E-03    0.822E-03
DAV:   5    -0.332587647340E+04   -0.21543E-05   -0.66554E-06  3456   0.226E-03    0.416E-03
DAV:   6    -0.332587647424E+04   -0.84552E-06   -0.96657E-07  2656   0.817E-04
  50 F= -.33400066E+04 E0= -.33400066E+04  d E =-.276255E-03
 BRION: g(F)=  0.550E-03 g(S)=  0.000E+00 retain N=  2 mean eig= 3.35
 eig:   0.177  6.527
 bond charge predicted
       N       E                     dE             d eps       ncg     rms          rms(c)
DAV:   1    -0.332587661853E+04   -0.14513E-03   -0.12070E-02  3648   0.947E-02    0.210E-02
DAV:   2    -0.332587663405E+04   -0.15514E-04   -0.25150E-04  3904   0.121E-02    0.186E-02
DAV:   3    -0.332587663029E+04    0.37529E-05   -0.58488E-06  3456   0.252E-03    0.145E-02
DAV:   4    -0.332587663401E+04   -0.37119E-05   -0.81284E-06  3552   0.325E-03    0.399E-03
DAV:   5    -0.332587663501E+04   -0.10036E-05   -0.22232E-06  2880   0.139E-03    0.224E-03
DAV:   6    -0.332587663511E+04   -0.10361E-06   -0.32328E-07  2656   0.741E-04
  51 F= -.33400068E+04 E0= -.33400068E+04  d E =-.171058E-03
 BRION: g(F)=  0.373E-03 g(S)=  0.000E+00 retain N=  2 mean eig= 1.10
 eig:   0.197  2.009
 bond charge predicted
       N       E                     dE             d eps       ncg     rms          rms(c)
DAV:   1    -0.332587686483E+04   -0.22982E-03   -0.33419E-02  3584   0.142E-01    0.341E-02
DAV:   2    -0.332587689920E+04   -0.34367E-04   -0.59925E-04  3904   0.172E-02    0.295E-02
DAV:   3    -0.332587688994E+04    0.92578E-05   -0.11557E-05  3680   0.346E-03    0.231E-02
DAV:   4    -0.332587690263E+04   -0.12688E-04   -0.24591E-05  3552   0.500E-03    0.599E-03
DAV:   5    -0.332587690396E+04   -0.13292E-05   -0.54769E-06  3328   0.200E-03    0.439E-03
DAV:   6    -0.332587690422E+04   -0.26531E-06   -0.10221E-06  2720   0.937E-04
  52 F= -.33400070E+04 E0= -.33400070E+04  d E =-.261713E-03
 BRION: g(F)=  0.402E-03 g(S)=  0.000E+00 retain N=  3 mean eig= 0.78
 eig:   2.110  0.169  0.068
 bond charge predicted
       N       E                     dE             d eps       ncg     rms          rms(c)
DAV:   1    -0.332587696327E+04   -0.59314E-04   -0.17066E-03  3648   0.343E-02    0.790E-03
DAV:   2    -0.332587696518E+04   -0.19115E-05   -0.34182E-05  3968   0.445E-03    0.685E-03
DAV:   3    -0.332587696468E+04    0.50012E-06   -0.60641E-07  2784   0.921E-04
  53 F= -.33400071E+04 E0= -.33400071E+04  d E =-.588169E-04
 BRION: g(F)=  0.377E-03 g(S)=  0.000E+00 retain N=  1 mean eig= 0.16
 eig:   0.159
 bond charge predicted
       N       E                     dE             d eps       ncg     rms          rms(c)
DAV:   1    -0.332587725325E+04   -0.28807E-03   -0.62404E-02  3584   0.193E-01    0.472E-02
DAV:   2    -0.332587731526E+04   -0.62006E-04   -0.10934E-03  3904   0.231E-02    0.405E-02
DAV:   3    -0.332587729932E+04    0.15938E-04   -0.21917E-05  4032   0.477E-03    0.310E-02
DAV:   4    -0.332587732119E+04   -0.21866E-04   -0.37638E-05  3680   0.630E-03    0.737E-03
DAV:   5    -0.332587732415E+04   -0.29672E-05   -0.96736E-06  3488   0.256E-03    0.544E-03
DAV:   6    -0.332587732458E+04   -0.42724E-06   -0.16546E-06  2816   0.121E-03
  54 F= -.33400074E+04 E0= -.33400074E+04  d E =-.353815E-03
 BRION: g(F)=  0.474E-03 g(S)=  0.000E+00 retain N=  2 mean eig= 0.20
 eig:   0.127  0.270
 bond charge predicted
       N       E                     dE             d eps       ncg     rms          rms(c)
DAV:   1    -0.332587740444E+04   -0.80287E-04   -0.31580E-03  3648   0.495E-02    0.111E-02
DAV:   2    -0.332587740911E+04   -0.46709E-05   -0.76261E-05  4000   0.677E-03    0.103E-02
DAV:   3    -0.332587740792E+04    0.11943E-05   -0.15364E-06  2976   0.130E-03    0.850E-03
DAV:   4    -0.332587740930E+04   -0.13834E-05   -0.37846E-06  2784   0.214E-03    0.265E-03
DAV:   5    -0.332587740951E+04   -0.21351E-06   -0.72458E-07  2816   0.947E-04
  55 F= -.33400075E+04 E0= -.33400075E+04  d E =-.815568E-04
 BRION: g(F)=  0.389E-03 g(S)=  0.000E+00 retain N=  1 mean eig= 0.19
 eig:   0.193
 bond charge predicted
       N       E                     dE             d eps       ncg     rms          rms(c)
DAV:   1    -0.332587767804E+04   -0.26874E-03   -0.57892E-02  3584   0.189E-01    0.453E-02
DAV:   2    -0.332587773923E+04   -0.61191E-04   -0.10491E-03  3904   0.233E-02    0.393E-02
DAV:   3    -0.332587772374E+04    0.15489E-04   -0.21594E-05  4224   0.475E-03    0.307E-02
DAV:   4    -0.332587774264E+04   -0.18898E-04   -0.41889E-05  3648   0.675E-03    0.804E-03
DAV:   5    -0.332587774537E+04   -0.27320E-05   -0.99212E-06  3552   0.279E-03    0.559E-03
DAV:   6    -0.332587774591E+04   -0.54366E-06   -0.19816E-06  2816   0.128E-03
  56 F= -.33400079E+04 E0= -.33400079E+04  d E =-.327102E-03
 BRION: g(F)=  0.606E-03 g(S)=  0.000E+00 retain N=  2 mean eig= 0.18
 eig:   0.180  0.180
 bond charge predicted
       N       E                     dE             d eps       ncg     rms          rms(c)
DAV:   1    -0.332587783898E+04   -0.93611E-04   -0.37936E-03  3584   0.578E-02    0.118E-02
DAV:   2    -0.332587784469E+04   -0.57081E-05   -0.88646E-05  4064   0.799E-03    0.107E-02
DAV:   3    -0.332587784331E+04    0.13780E-05   -0.21328E-06  3008   0.162E-03    0.851E-03
DAV:   4    -0.332587784433E+04   -0.10234E-05   -0.37154E-06  3328   0.231E-03    0.293E-03
DAV:   5    -0.332587784468E+04   -0.34506E-06   -0.72875E-07  2752   0.954E-04
  57 F= -.33400080E+04 E0= -.33400080E+04  d E =-.962022E-04
 BRION: g(F)=  0.374E-03 g(S)=  0.000E+00 retain N=  1 mean eig= 0.18
 eig:   0.180
 bond charge predicted
       N       E                     dE             d eps       ncg     rms          rms(c)
DAV:   1    -0.332587814435E+04   -0.30002E-03   -0.62446E-02  3584   0.186E-01    0.475E-02
DAV:   2    -0.332587821090E+04   -0.66542E-04   -0.11405E-03  3840   0.226E-02    0.411E-02
DAV:   3    -0.332587819430E+04    0.16600E-04   -0.21480E-05  3968   0.458E-03    0.323E-02
DAV:   4    -0.332587821704E+04   -0.22748E-04   -0.47517E-05  3584   0.666E-03    0.847E-03
DAV:   5    -0.332587821945E+04   -0.24047E-05   -0.10462E-05  3456   0.272E-03    0.582E-03
DAV:   6    -0.332587822003E+04   -0.57847E-06   -0.19916E-06  2848   0.121E-03
  58 F= -.33400083E+04 E0= -.33400083E+04  d E =-.363379E-03
 BRION: g(F)=  0.478E-03 g(S)=  0.000E+00 retain N=  2 mean eig= 0.20
 eig:   0.202  0.202
 bond charge predicted
       N       E                     dE             d eps       ncg     rms          rms(c)
DAV:   1    -0.332587828458E+04   -0.65135E-04   -0.21227E-03  3584   0.329E-02    0.905E-03
DAV:   2    -0.332587828879E+04   -0.42063E-05   -0.57446E-05  3936   0.441E-03    0.800E-03
DAV:   3    -0.332587828814E+04    0.65006E-06   -0.89308E-07  2816   0.839E-04
  59 F= -.33400084E+04 E0= -.33400084E+04  d E =-.659605E-04
 BRION: g(F)=  0.395E-03 g(S)=  0.000E+00 retain N=  1 mean eig= 0.13
 eig:   0.135
 bond charge predicted
       N       E                     dE             d eps       ncg     rms          rms(c)
DAV:   1    -0.332587860959E+04   -0.32080E-03   -0.69554E-02  3584   0.192E-01    0.508E-02
DAV:   2    -0.332587867510E+04   -0.65508E-04   -0.12145E-03  3840   0.230E-02    0.434E-02
DAV:   3    -0.332587865680E+04    0.18300E-04   -0.22839E-05  4064   0.475E-03    0.331E-02
DAV:   4    -0.332587868443E+04   -0.27634E-04   -0.43059E-05  3712   0.646E-03    0.766E-03
DAV:   5    -0.332587868715E+04   -0.27108E-05   -0.10827E-05  3488   0.261E-03    0.578E-03
DAV:   6    -0.332587868739E+04   -0.24075E-06   -0.18389E-06  2848   0.122E-03
  60 F= -.33400088E+04 E0= -.33400088E+04  d E =-.385700E-03
 BRION: g(F)=  0.432E-03 g(S)=  0.000E+00 retain N=  2 mean eig= 0.85
 eig:   0.160  1.533
 bond charge predicted
       N       E                     dE             d eps       ncg     rms          rms(c)
DAV:   1    -0.332587880994E+04   -0.12279E-03   -0.77573E-03  3584   0.687E-02    0.166E-02
DAV:   2    -0.332587881899E+04   -0.90566E-05   -0.14729E-04  4000   0.882E-03    0.144E-02
DAV:   3    -0.332587881692E+04    0.20693E-05   -0.27562E-06  2944   0.178E-03    0.113E-02
DAV:   4    -0.332587881980E+04   -0.28799E-05   -0.60402E-06  3520   0.268E-03    0.312E-03
DAV:   5    -0.332587882010E+04   -0.29639E-06   -0.12061E-06  2752   0.108E-03
  61 F= -.33400089E+04 E0= -.33400089E+04  d E =-.126004E-03
 BRION: g(F)=  0.415E-03 g(S)=  0.000E+00 retain N=  2 mean eig= 0.91
 eig:   0.167  1.643
 bond charge predicted
       N       E                     dE             d eps       ncg     rms          rms(c)
DAV:   1    -0.332587889948E+04   -0.79675E-04   -0.34387E-03  3584   0.459E-02    0.119E-02
DAV:   2    -0.332587890550E+04   -0.60186E-05   -0.89385E-05  4000   0.619E-03    0.111E-02
DAV:   3    -0.332587890446E+04    0.10342E-05   -0.16940E-06  2944   0.121E-03    0.919E-03
DAV:   4    -0.332587890532E+04   -0.86008E-06   -0.39850E-06  2752   0.195E-03
  62 F= -.33400090E+04 E0= -.33400090E+04  d E =-.819148E-04
 BRION: g(F)=  0.406E-03 g(S)=  0.000E+00 retain N=  2 mean eig= 0.15
 eig:   0.152  0.152
 bond charge predicted
       N       E                     dE             d eps       ncg     rms          rms(c)
DAV:   1    -0.332587917387E+04   -0.26941E-03   -0.46210E-02  3584   0.153E-01    0.409E-02
DAV:   2    -0.332587922407E+04   -0.50197E-04   -0.84151E-04  3840   0.184E-02    0.348E-02
DAV:   3    -0.332587921158E+04    0.12482E-04   -0.14867E-05  3776   0.372E-03    0.266E-02
DAV:   4    -0.332587922811E+04   -0.16521E-04   -0.25917E-05  3648   0.491E-03    0.611E-03
DAV:   5    -0.332587922987E+04   -0.17681E-05   -0.68523E-06  3232   0.198E-03    0.461E-03
DAV:   6    -0.332587923000E+04   -0.12526E-06   -0.10651E-06  2752   0.935E-04
  63 F= -.33400093E+04 E0= -.33400093E+04  d E =-.314798E-03
 BRION: g(F)=  0.408E-03 g(S)=  0.000E+00 retain N=  2 mean eig= 2.99
 eig:   0.190  5.787
 bond charge predicted
       N       E                     dE             d eps       ncg     rms          rms(c)
DAV:   1    -0.332587933185E+04   -0.10197E-03   -0.49184E-03  3584   0.504E-02    0.134E-02
DAV:   2    -0.332587933730E+04   -0.54578E-05   -0.89966E-05  3776   0.619E-03    0.114E-02
DAV:   3    -0.332587933614E+04    0.11601E-05   -0.13485E-06  2912   0.123E-03    0.892E-03
DAV:   4    -0.332587933805E+04   -0.19086E-05   -0.31737E-06  2752   0.180E-03    0.218E-03
DAV:   5    -0.332587933819E+04   -0.13772E-06   -0.67975E-07  2720   0.772E-04
  64 F= -.33400094E+04 E0= -.33400094E+04  d E =-.104445E-03
 BRION: g(F)=  0.393E-03 g(S)=  0.000E+00 retain N=  2 mean eig= 0.19
 eig:   0.192  0.192
 bond charge predicted
       N       E                     dE             d eps       ncg     rms          rms(c)
DAV:   1    -0.332587956875E+04   -0.23070E-03   -0.32446E-02  3584   0.132E-01    0.343E-02
DAV:   2    -0.332587960370E+04   -0.34948E-04   -0.58174E-04  3808   0.161E-02    0.294E-02
DAV:   3    -0.332587959496E+04    0.87339E-05   -0.10869E-05  3712   0.331E-03    0.227E-02
DAV:   4    -0.332587960584E+04   -0.10874E-04   -0.21332E-05  3648   0.458E-03    0.561E-03
DAV:   5    -0.332587960689E+04   -0.10571E-05   -0.50391E-06  3200   0.186E-03    0.413E-03
DAV:   6    -0.332587960700E+04   -0.10186E-06   -0.93991E-07  2752   0.905E-04
  65 F= -.33400097E+04 E0= -.33400097E+04  d E =-.262648E-03
 BRION: g(F)=  0.440E-03 g(S)=  0.000E+00 retain N=  3 mean eig= 0.19
 eig:   0.317  0.006  0.246
 bond charge predicted
       N       E                     dE             d eps       ncg     rms          rms(c)
DAV:   1    -0.332587971279E+04   -0.10589E-03   -0.53253E-03  3584   0.558E-02    0.140E-02
DAV:   2    -0.332587971875E+04   -0.59574E-05   -0.98561E-05  3936   0.702E-03    0.120E-02
DAV:   3    -0.332587971747E+04    0.12735E-05   -0.17240E-06  2912   0.142E-03    0.931E-03
DAV:   4    -0.332587971929E+04   -0.18197E-05   -0.36691E-06  2816   0.208E-03    0.236E-03
DAV:   5    -0.332587971948E+04   -0.18615E-06   -0.82500E-07  2720   0.919E-04
  66 F= -.33400098E+04 E0= -.33400098E+04  d E =-.109840E-03
 BRION: g(F)=  0.396E-03 g(S)=  0.000E+00 retain N=  2 mean eig= 3.37
 eig:   0.169  6.564
 bond charge predicted
       N       E                     dE             d eps       ncg     rms          rms(c)
DAV:   1    -0.332587979111E+04   -0.71820E-04   -0.80399E-03  3584   0.604E-02    0.183E-02
DAV:   2    -0.332587981235E+04   -0.21239E-04   -0.28068E-04  3840   0.855E-03    0.185E-02
DAV:   3    -0.332587981015E+04    0.22004E-05   -0.52379E-06  3008   0.160E-03    0.162E-02
DAV:   4    -0.332587981031E+04   -0.16042E-06   -0.11886E-05  3008   0.263E-03    0.528E-03
DAV:   5    -0.332587981086E+04   -0.54634E-06   -0.24350E-06  2880   0.122E-03
  67 F= -.33400098E+04 E0= -.33400098E+04  d E =-.828668E-04
 BRION: g(F)=  0.812E-03 g(S)=  0.000E+00 retain N=  3 mean eig= 2.29
 eig:   6.547  0.281  0.040
 bond charge predicted
       N       E                     dE             d eps       ncg     rms          rms(c)
DAV:   1    -0.332587989139E+04   -0.81079E-04   -0.38105E-03  3584   0.345E-02    0.123E-02
DAV:   2    -0.332587990446E+04   -0.13070E-04   -0.15732E-04  3584   0.511E-03    0.127E-02
DAV:   3    -0.332587990367E+04    0.79221E-06   -0.25320E-06  3008   0.958E-04
  68 F= -.33400099E+04 E0= -.33400099E+04  d E =-.923779E-04
 BRION: g(F)=  0.399E-03 g(S)=  0.000E+00 retain N=  1 mean eig= 0.15
 eig:   0.152
 bond charge predicted
       N       E                     dE             d eps       ncg     rms          rms(c)
DAV:   1    -0.332588022304E+04   -0.31858E-03   -0.69368E-02  3584   0.185E-01    0.525E-02
DAV:   2    -0.332588028714E+04   -0.64099E-04   -0.12105E-03  3776   0.222E-02    0.444E-02
DAV:   3    -0.332588026812E+04    0.19018E-04   -0.23055E-05  4064   0.468E-03    0.333E-02
DAV:   4    -0.332588029515E+04   -0.27031E-04   -0.42783E-05  3712   0.618E-03    0.760E-03
DAV:   5    -0.332588029749E+04   -0.23425E-05   -0.10576E-05  3456   0.252E-03    0.569E-03
DAV:   6    -0.332588029772E+04   -0.23306E-06   -0.17684E-06  2848   0.117E-03
  69 F= -.33400103E+04 E0= -.33400103E+04  d E =-.381727E-03
 BRION: g(F)=  0.441E-03 g(S)=  0.000E+00 retain N=  2 mean eig= 0.96
 eig:   0.162  1.767
 bond charge predicted
       N       E                     dE             d eps       ncg     rms          rms(c)
DAV:   1    -0.332588042390E+04   -0.12641E-03   -0.86745E-03  3584   0.727E-02    0.178E-02
DAV:   2    -0.332588043400E+04   -0.10093E-04   -0.16431E-04  3936   0.936E-03    0.154E-02
DAV:   3    -0.332588043187E+04    0.21267E-05   -0.31921E-06  3040   0.190E-03    0.120E-02
DAV:   4    -0.332588043455E+04   -0.26834E-05   -0.68064E-06  3552   0.282E-03    0.324E-03
DAV:   5    -0.332588043486E+04   -0.30536E-06   -0.12988E-06  2752   0.112E-03
  70 F= -.33400105E+04 E0= -.33400105E+04  d E =-.132448E-03
 BRION: g(F)=  0.421E-03 g(S)=  0.000E+00 retain N=  2 mean eig= 1.06
 eig:   0.148  1.971
 bond charge predicted
       N       E                     dE             d eps       ncg     rms          rms(c)
DAV:   1    -0.332588055406E+04   -0.11951E-03   -0.86049E-03  3584   0.670E-02    0.189E-02
DAV:   2    -0.332588056808E+04   -0.14026E-04   -0.21034E-04  3744   0.876E-03    0.171E-02
DAV:   3    -0.332588056567E+04    0.24185E-05   -0.39850E-06  3136   0.174E-03    0.140E-02
DAV:   4    -0.332588056780E+04   -0.21323E-05   -0.92503E-06  3104   0.268E-03    0.419E-03
DAV:   5    -0.332588056826E+04   -0.46089E-06   -0.16862E-06  2944   0.120E-03
  71 F= -.33400106E+04 E0= -.33400106E+04  d E =-.128490E-03
 BRION: g(F)=  0.484E-03 g(S)=  0.000E+00 retain N=  2 mean eig= 0.17
 eig:   0.175  0.175
 bond charge predicted
       N       E                     dE             d eps       ncg     rms          rms(c)
DAV:   1    -0.332588079189E+04   -0.22410E-03   -0.28897E-02  3584   0.117E-01    0.325E-02
DAV:   2    -0.332588082540E+04   -0.33506E-04   -0.53750E-04  3808   0.141E-02    0.275E-02
DAV:   3    -0.332588081824E+04    0.71602E-05   -0.92073E-06  3488   0.284E-03    0.208E-02
DAV:   4    -0.332588082719E+04   -0.89544E-05   -0.15147E-05  3552   0.364E-03    0.462E-03
DAV:   5    -0.332588082832E+04   -0.11285E-05   -0.38809E-06  3040   0.148E-03    0.342E-03
DAV:   6    -0.332588082845E+04   -0.13248E-06   -0.56006E-07  2752   0.733E-04
  72 F= -.33400108E+04 E0= -.33400108E+04  d E =-.253818E-03
 BRION: g(F)=  0.380E-03 g(S)=  0.000E+00 retain N=  1 mean eig= 0.07
 eig:   0.073
 bond charge predicted
       N       E                     dE             d eps       ncg     rms          rms(c)
DAV:   1    -0.332588111922E+04   -0.29090E-03   -0.55898E-02  3584   0.165E-01    0.453E-02
DAV:   2    -0.332588117662E+04   -0.57399E-04   -0.98629E-04  3776   0.199E-02    0.384E-02
DAV:   3    -0.332588116178E+04    0.14839E-04   -0.17630E-05  3936   0.406E-03    0.293E-02
DAV:   4    -0.332588118141E+04   -0.19630E-04   -0.34838E-05  3648   0.554E-03    0.688E-03
DAV:   5    -0.332588118315E+04   -0.17438E-05   -0.80705E-06  3360   0.222E-03    0.523E-03
DAV:   6    -0.332588118352E+04   -0.36613E-06   -0.14296E-06  2752   0.105E-03
  73 F= -.33400112E+04 E0= -.33400112E+04  d E =-.344871E-03
 BRION: g(F)=  0.421E-03 g(S)=  0.000E+00 retain N=  2 mean eig= 0.13
 eig:   0.073  0.184
 bond charge predicted
       N       E                     dE             d eps       ncg     rms          rms(c)
DAV:   1    -0.332588124779E+04   -0.64635E-04   -0.18798E-03  3584   0.339E-02    0.853E-03
DAV:   2    -0.332588124987E+04   -0.20806E-05   -0.36222E-05  3936   0.441E-03    0.729E-03
DAV:   3    -0.332588124943E+04    0.43493E-06   -0.60065E-07  2848   0.900E-04
  74 F= -.33400112E+04 E0= -.33400112E+04  d E =-.640042E-04
 BRION: g(F)=  0.390E-03 g(S)=  0.000E+00 retain N=  1 mean eig= 0.17
 eig:   0.172
 bond charge predicted
       N       E                     dE             d eps       ncg     rms          rms(c)
DAV:   1    -0.332588156129E+04   -0.31142E-03   -0.64400E-02  3584   0.176E-01    0.502E-02
DAV:   2    -0.332588162339E+04   -0.62100E-04   -0.11322E-03  3808   0.211E-02    0.425E-02
DAV:   3    -0.332588160700E+04    0.16388E-04   -0.21020E-05  3904   0.434E-03    0.324E-02
DAV:   4    -0.332588163050E+04   -0.23501E-04   -0.43372E-05  3616   0.593E-03    0.785E-03
DAV:   5    -0.332588163265E+04   -0.21508E-05   -0.94301E-06  3456   0.239E-03    0.569E-03
DAV:   6    -0.332588163308E+04   -0.43027E-06   -0.17119E-06  2848   0.108E-03
  75 F= -.33400116E+04 E0= -.33400116E+04  d E =-.375425E-03
 BRION: g(F)=  0.455E-03 g(S)=  0.000E+00 retain N=  2 mean eig= 0.20
 eig:   0.032  0.364
 bond charge predicted
       N       E                     dE             d eps       ncg     rms          rms(c)
DAV:   1    -0.332588170731E+04   -0.74659E-04   -0.35022E-03  3584   0.372E-02    0.117E-02
DAV:   2    -0.332588171445E+04   -0.71399E-05   -0.96880E-05  3840   0.495E-03    0.104E-02
DAV:   3    -0.332588171344E+04    0.10118E-05   -0.15032E-06  2848   0.923E-04    0.834E-03
DAV:   4    -0.332588171446E+04   -0.10190E-05   -0.17276E-06  2656   0.111E-03    0.259E-03
DAV:   5    -0.332588171486E+04   -0.39744E-06   -0.66612E-07  2720   0.589E-04
  76 F= -.33400117E+04 E0= -.33400117E+04  d E =-.795522E-04
 BRION: g(F)=  0.400E-03 g(S)=  0.000E+00 retain N=  1 mean eig= 0.13
 eig:   0.131
 bond charge predicted
       N       E                     dE             d eps       ncg     rms          rms(c)
DAV:   1    -0.332588199156E+04   -0.27710E-03   -0.56310E-02  3584   0.171E-01    0.462E-02
DAV:   2    -0.332588205080E+04   -0.59240E-04   -0.10198E-03  3840   0.211E-02    0.395E-02
DAV:   3    -0.332588203584E+04    0.14964E-04   -0.19857E-05  4000   0.434E-03    0.304E-02
DAV:   4    -0.332588205386E+04   -0.18027E-04   -0.39061E-05  3680   0.604E-03    0.755E-03
DAV:   5    -0.332588205590E+04   -0.20385E-05   -0.87068E-06  3424   0.251E-03    0.520E-03
DAV:   6    -0.332588205636E+04   -0.46298E-06   -0.16380E-06  2848   0.111E-03
  77 F= -.33400120E+04 E0= -.33400120E+04  d E =-.334645E-03
 BRION: g(F)=  0.598E-03 g(S)=  0.000E+00 retain N=  2 mean eig= 0.20
 eig:   0.128  0.279
 bond charge predicted
       N       E                     dE             d eps       ncg     rms          rms(c)
DAV:   1    -0.332588214587E+04   -0.89967E-04   -0.32058E-03  3584   0.522E-02    0.111E-02
DAV:   2    -0.332588214987E+04   -0.39983E-05   -0.66790E-05  4000   0.710E-03    0.987E-03
DAV:   3    -0.332588214890E+04    0.96858E-06   -0.16854E-06  2880   0.148E-03
  78 F= -.33400121E+04 E0= -.33400121E+04  d E =-.906320E-04
 BRION: g(F)=  0.403E-03 g(S)=  0.000E+00 retain N=  2 mean eig= 3.35
 eig:   0.221  6.470
 bond charge predicted
       N       E                     dE             d eps       ncg     rms          rms(c)
DAV:   1    -0.332588220049E+04   -0.50622E-04   -0.21284E-03  3584   0.320E-02    0.110E-02
DAV:   2    -0.332588220375E+04   -0.32592E-05   -0.57916E-05  3712   0.410E-03    0.986E-03
DAV:   3    -0.332588220315E+04    0.60233E-06   -0.11528E-06  2848   0.903E-04
  79 F= -.33400122E+04 E0= -.33400122E+04  d E =-.529993E-04
 BRION: g(F)=  0.541E-03 g(S)=  0.000E+00 retain N=  2 mean eig= 0.15
 eig:   0.263  0.045
 bond charge predicted
       N       E                     dE             d eps       ncg     rms          rms(c)
DAV:   1    -0.332588248437E+04   -0.28062E-03   -0.46221E-02  3584   0.144E-01    0.424E-02
DAV:   2    -0.332588253201E+04   -0.47645E-04   -0.83376E-04  3840   0.173E-02    0.356E-02
DAV:   3    -0.332588252052E+04    0.11490E-04   -0.15740E-05  3712   0.361E-03    0.264E-02
DAV:   4    -0.332588253619E+04   -0.15670E-04   -0.22372E-05  3584   0.436E-03    0.594E-03
DAV:   5    -0.332588253864E+04   -0.24455E-05   -0.61367E-06  3168   0.181E-03    0.416E-03
DAV:   6    -0.332588253901E+04   -0.36613E-06   -0.85777E-07  2752   0.861E-04
  80 F= -.33400125E+04 E0= -.33400125E+04  d E =-.330563E-03
 BRION: g(F)=  0.399E-03 g(S)=  0.000E+00 retain N=  1 mean eig= 0.09
 eig:   0.093
 bond charge predicted
       N       E                     dE             d eps       ncg     rms          rms(c)
DAV:   1    -0.332588283335E+04   -0.29471E-03   -0.62496E-02  3584   0.174E-01    0.485E-02
DAV:   2    -0.332588289656E+04   -0.63204E-04   -0.11149E-03  3840   0.215E-02    0.412E-02
DAV:   3    -0.332588288015E+04    0.16407E-04   -0.20985E-05  4160   0.445E-03    0.312E-02
DAV:   4    -0.332588290235E+04   -0.22206E-04   -0.39709E-05  3680   0.609E-03    0.747E-03
DAV:   5    -0.332588290484E+04   -0.24874E-05   -0.91919E-06  3424   0.251E-03    0.536E-03
DAV:   6    -0.332588290542E+04   -0.58208E-06   -0.17579E-06  2848   0.119E-03
  81 F= -.33400129E+04 E0= -.33400129E+04  d E =-.356137E-03
 BRION: g(F)=  0.567E-03 g(S)=  0.000E+00 retain N=  2 mean eig= 0.12
 eig:   0.068  0.182
 bond charge predicted
       N       E                     dE             d eps       ncg     rms          rms(c)
DAV:   1    -0.332588300656E+04   -0.10172E-03   -0.41170E-03  3584   0.554E-02    0.127E-02
DAV:   2    -0.332588301119E+04   -0.46304E-05   -0.82316E-05  3936   0.745E-03    0.111E-02
DAV:   3    -0.332588300994E+04    0.12567E-05   -0.19795E-06  3040   0.157E-03    0.849E-03
DAV:   4    -0.332588301149E+04   -0.15501E-05   -0.39989E-06  3328   0.228E-03    0.267E-03
DAV:   5    -0.332588301171E+04   -0.22177E-06   -0.62156E-07  2656   0.919E-04
  82 F= -.33400130E+04 E0= -.33400130E+04  d E =-.103351E-03
 BRION: g(F)=  0.392E-03 g(S)=  0.000E+00 retain N=  1 mean eig= 0.20
 eig:   0.198
 bond charge predicted
       N       E                     dE             d eps       ncg     rms          rms(c)
DAV:   1    -0.332588331689E+04   -0.30540E-03   -0.67798E-02  3584   0.172E-01    0.505E-02
DAV:   2    -0.332588338825E+04   -0.71360E-04   -0.12214E-03  3808   0.207E-02    0.424E-02
DAV:   3    -0.332588337114E+04    0.17103E-04   -0.20572E-05  3808   0.422E-03    0.317E-02
DAV:   4    -0.332588339430E+04   -0.23159E-04   -0.36668E-05  3552   0.552E-03    0.647E-03
DAV:   5    -0.332588339691E+04   -0.26047E-05   -0.91933E-06  3424   0.224E-03    0.504E-03
DAV:   6    -0.332588339740E+04   -0.49814E-06   -0.12565E-06  2816   0.105E-03
  83 F= -.33400133E+04 E0= -.33400133E+04  d E =-.377871E-03
 BRION: g(F)=  0.538E-03 g(S)=  0.000E+00 retain N=  2 mean eig= 0.11
 eig:   0.225  0.004
 bond charge predicted
       N       E                     dE             d eps       ncg     rms          rms(c)
DAV:   1    -0.332588346180E+04   -0.64890E-04   -0.16325E-03  3584   0.257E-02    0.863E-03
DAV:   2    -0.332588346546E+04   -0.36600E-05   -0.52319E-05  3584   0.362E-03    0.824E-03
DAV:   3    -0.332588346487E+04    0.59127E-06   -0.85429E-07  2912   0.718E-04
  84 F= -.33400134E+04 E0= -.33400134E+04  d E =-.652379E-04
 BRION: g(F)=  0.414E-03 g(S)=  0.000E+00 retain N=  1 mean eig= 0.18
 eig:   0.184
 bond charge predicted
       N       E                     dE             d eps       ncg     rms          rms(c)
DAV:   1    -0.332588380685E+04   -0.34139E-03   -0.72422E-02  3584   0.180E-01    0.541E-02
DAV:   2    -0.332588387069E+04   -0.63839E-04   -0.12434E-03  3808   0.214E-02    0.455E-02
DAV:   3    -0.332588385301E+04    0.17682E-04   -0.22630E-05  3968   0.450E-03    0.339E-02
DAV:   4    -0.332588388124E+04   -0.28231E-04   -0.44026E-05  3552   0.595E-03    0.747E-03
DAV:   5    -0.332588388379E+04   -0.25566E-05   -0.10042E-05  3488   0.242E-03    0.561E-03
DAV:   6    -0.332588388436E+04   -0.56531E-06   -0.16967E-06  2848   0.113E-03
  85 F= -.33400138E+04 E0= -.33400138E+04  d E =-.410681E-03
 BRION: g(F)=  0.444E-03 g(S)=  0.000E+00 retain N=  2 mean eig= 0.90
 eig:   0.195  1.600
 bond charge predicted
       N       E                     dE             d eps       ncg     rms          rms(c)
DAV:   1    -0.332588400039E+04   -0.11659E-03   -0.63805E-03  3584   0.571E-02    0.157E-02
DAV:   2    -0.332588400681E+04   -0.64269E-05   -0.11764E-04  3936   0.725E-03    0.132E-02
DAV:   3    -0.332588400518E+04    0.16354E-05   -0.20395E-06  2912   0.149E-03    0.100E-02
DAV:   4    -0.332588400831E+04   -0.31274E-05   -0.41269E-06  2880   0.215E-03    0.246E-03
DAV:   5    -0.332588400857E+04   -0.26927E-06   -0.89544E-07  2720   0.953E-04
  86 F= -.33400139E+04 E0= -.33400139E+04  d E =-.120067E-03
 BRION: g(F)=  0.420E-03 g(S)=  0.000E+00 retain N=  2 mean eig= 0.50
 eig:   0.162  0.846
 bond charge predicted
       N       E                     dE             d eps       ncg     rms          rms(c)
DAV:   1    -0.332588412090E+04   -0.11259E-03   -0.62461E-03  3584   0.527E-02    0.155E-02
DAV:   2    -0.332588412800E+04   -0.71065E-05   -0.11999E-04  3872   0.652E-03    0.130E-02
DAV:   3    -0.332588412632E+04    0.16793E-05   -0.19228E-06  2848   0.133E-03    0.983E-03
DAV:   4    -0.332588412888E+04   -0.25533E-05   -0.34559E-06  2816   0.183E-03    0.204E-03
DAV:   5    -0.332588412915E+04   -0.27497E-06   -0.82475E-07  2720   0.815E-04
  87 F= -.33400141E+04 E0= -.33400141E+04  d E =-.117810E-03
 BRION: g(F)=  0.412E-03 g(S)=  0.000E+00 retain N=  2 mean eig= 0.34
 eig:   0.277  0.403
 bond charge predicted
       N       E                     dE             d eps       ncg     rms          rms(c)
DAV:   1    -0.332588442567E+04   -0.29680E-03   -0.49000E-02  3584   0.144E-01    0.436E-02
DAV:   2    -0.332588447288E+04   -0.47204E-04   -0.85599E-04  3808   0.172E-02    0.366E-02
DAV:   3    -0.332588446028E+04    0.12597E-04   -0.14320E-05  3808   0.353E-03    0.276E-02
DAV:   4    -0.332588447928E+04   -0.18995E-04   -0.30095E-05  3520   0.474E-03    0.620E-03
DAV:   5    -0.332588448083E+04   -0.15546E-05   -0.65329E-06  3200   0.194E-03    0.453E-03
DAV:   6    -0.332588448123E+04   -0.39733E-06   -0.10280E-06  2816   0.871E-04
  88 F= -.33400144E+04 E0= -.33400144E+04  d E =-.343092E-03
 BRION: g(F)=  0.411E-03 g(S)=  0.000E+00 retain N=  2 mean eig= 1.84
 eig:   0.106  3.571
 bond charge predicted
       N       E                     dE             d eps       ncg     rms          rms(c)
DAV:   1    -0.332588428732E+04    0.19351E-03   -0.12603E-02  3584   0.725E-02    0.217E-02
DAV:   2    -0.332588430021E+04   -0.12886E-04   -0.21929E-04  3808   0.869E-03    0.183E-02
DAV:   3    -0.332588429665E+04    0.35607E-05   -0.36637E-06  3136   0.181E-03    0.136E-02
DAV:   4    -0.332588429996E+04   -0.33177E-05   -0.74580E-06  3168   0.244E-03    0.273E-03
DAV:   5    -0.332588430039E+04   -0.42957E-06   -0.17107E-06  2720   0.102E-03
  89 F= -.33400142E+04 E0= -.33400142E+04  d E =0.175768E-03
 BRION: g(F)=  0.473E-03 g(S)=  0.000E+00 retain N=  2 mean eig= 1.62
 eig:   0.385  2.847
 bond charge predicted
       N       E                     dE             d eps       ncg     rms          rms(c)
DAV:   1    -0.332588469478E+04   -0.39481E-03   -0.98999E-02  3584   0.203E-01    0.613E-02
DAV:   2    -0.332588479204E+04   -0.97265E-04   -0.17067E-03  3808   0.243E-02    0.515E-02
DAV:   3    -0.332588476608E+04    0.25961E-04   -0.29619E-05  4096   0.502E-03    0.385E-02
DAV:   4    -0.332588479683E+04   -0.30753E-04   -0.58657E-05  3680   0.671E-03    0.835E-03
DAV:   5    -0.332588480021E+04   -0.33710E-05   -0.13655E-05  3520   0.273E-03    0.640E-03
DAV:   6    -0.332588480090E+04   -0.69698E-06   -0.21750E-06  2848   0.126E-03
  90 F= -.33400147E+04 E0= -.33400147E+04  d E =-.485261E-03
 BRION: g(F)=  0.461E-03 g(S)=  0.000E+00 retain N=  2 mean eig= 0.56
 eig:   0.190  0.931
 bond charge predicted
       N       E                     dE             d eps       ncg     rms          rms(c)
DAV:   1    -0.332588493753E+04   -0.13732E-03   -0.83762E-03  3584   0.585E-02    0.181E-02
DAV:   2    -0.332588494615E+04   -0.86179E-05   -0.15277E-04  3808   0.714E-03    0.150E-02
DAV:   3    -0.332588494429E+04    0.18533E-05   -0.22660E-06  2976   0.143E-03    0.112E-02
DAV:   4    -0.332588494833E+04   -0.40344E-05   -0.40817E-06  2880   0.188E-03    0.231E-03
DAV:   5    -0.332588494863E+04   -0.30186E-06   -0.93771E-07  2720   0.805E-04
  91 F= -.33400149E+04 E0= -.33400149E+04  d E =-.142891E-03
 BRION: g(F)=  0.411E-03 g(S)=  0.000E+00 retain N=  2 mean eig= 0.52
 eig:   0.336  0.710
 bond charge predicted
       N       E                     dE             d eps       ncg     rms          rms(c)
DAV:   1    -0.332588534854E+04   -0.40022E-03   -0.10537E-01  3584   0.209E-01    0.641E-02
DAV:   2    -0.332588545131E+04   -0.10276E-03   -0.18336E-03  3776   0.250E-02    0.536E-02
DAV:   3    -0.332588542560E+04    0.25706E-04   -0.30855E-05  4096   0.515E-03    0.401E-02
DAV:   4    -0.332588546303E+04   -0.37426E-04   -0.61287E-05  3680   0.680E-03    0.873E-03
DAV:   5    -0.332588546621E+04   -0.31824E-05   -0.14000E-05  3520   0.280E-03    0.652E-03
DAV:   6    -0.332588546692E+04   -0.70699E-06   -0.22596E-06  2848   0.126E-03
  92 F= -.33400154E+04 E0= -.33400154E+04  d E =-.505673E-03
 BRION: g(F)=  0.444E-03 g(S)=  0.000E+00 retain N=  3 mean eig= 0.62
 eig:   1.322  0.270  0.270
 bond charge predicted
       N       E                     dE             d eps       ncg     rms          rms(c)
DAV:   1    -0.332588543095E+04    0.35263E-04   -0.48862E-04  3648   0.140E-02    0.461E-03
DAV:   2    -0.332588543146E+04   -0.51456E-06   -0.76341E-06  2944   0.164E-03
  93 F= -.33400153E+04 E0= -.33400153E+04  d E =0.345067E-04
 BRION: g(F)=  0.441E-03 g(S)=  0.000E+00 retain N=  3 mean eig= 1.78
 eig:   4.702  0.176  0.451
 bond charge predicted
       N       E                     dE             d eps       ncg     rms          rms(c)
DAV:   1    -0.332588234895E+04    0.30820E-02   -0.12063E+00  3584   0.662E-01    0.217E-01
DAV:   2    -0.332588358676E+04   -0.12378E-02   -0.20666E-02  3744   0.790E-02    0.181E-01
DAV:   3    -0.332588333387E+04    0.25290E-03   -0.33925E-04  4096   0.161E-02    0.134E-01
DAV:   4    -0.332588360041E+04   -0.26655E-03   -0.66146E-04  3904   0.211E-02    0.270E-02
DAV:   5    -0.332588363722E+04   -0.36804E-04   -0.15283E-04  3968   0.852E-03    0.213E-02
DAV:   6    -0.332588364552E+04   -0.83031E-05   -0.20993E-05  3456   0.380E-03    0.121E-02
DAV:   7    -0.332588365028E+04   -0.47592E-05   -0.57541E-06  3424   0.242E-03    0.577E-03
DAV:   8    -0.332588365128E+04   -0.10052E-05   -0.26798E-06  2816   0.153E-03    0.171E-03
DAV:   9    -0.332588365130E+04   -0.16065E-07   -0.47169E-07  2656   0.732E-04
  94 F= -.33400136E+04 E0= -.33400136E+04  d E =0.170735E-02
 BRION: g(F)=  0.853E-03 g(S)=  0.000E+00 retain N=  3 mean eig= 1.84
 eig:   4.692  0.414  0.414
 bond charge predicted
       N       E                     dE             d eps       ncg     rms          rms(c)
DAV:   1    -0.332588287838E+04    0.77290E-03   -0.15434E-01  3584   0.240E-01    0.770E-02
DAV:   2    -0.332588303043E+04   -0.15204E-03   -0.26780E-03  3744   0.295E-02    0.648E-02
DAV:   3    -0.332588299035E+04    0.40075E-04   -0.47273E-05  4192   0.608E-03    0.484E-02
DAV:   4    -0.332588303898E+04   -0.48625E-04   -0.89196E-05  3840   0.828E-03    0.107E-02
DAV:   5    -0.332588304540E+04   -0.64215E-05   -0.20852E-05  3776   0.341E-03    0.781E-03
DAV:   6    -0.332588304690E+04   -0.15013E-05   -0.35598E-06  2912   0.159E-03    0.436E-03
DAV:   7    -0.332588304744E+04   -0.54459E-06   -0.71072E-07  2944   0.901E-04
  95 F= -.33400131E+04 E0= -.33400131E+04  d E =0.565943E-03
 BRION: g(F)=  0.765E-03 g(S)=  0.000E+00 retain N=  3 mean eig= 1.53
 eig:   4.326  0.129  0.129
 bond charge predicted
       N       E                     dE             d eps       ncg     rms          rms(c)
DAV:   1    -0.332588282621E+04    0.22069E-03   -0.22459E+00  3584   0.911E-01    0.294E-01
DAV:   2    -0.332588527230E+04   -0.24461E-02   -0.39283E-02  3776   0.109E-01    0.245E-01
DAV:   3    -0.332588479871E+04    0.47359E-03   -0.63309E-04  4064   0.220E-02    0.183E-01
DAV:   4    -0.332588527539E+04   -0.47668E-03   -0.12730E-03  4032   0.296E-02    0.389E-02
DAV:   5    -0.332588534277E+04   -0.67385E-04   -0.30035E-04  3968   0.119E-02    0.309E-02
DAV:   6    -0.332588535595E+04   -0.13181E-04   -0.54423E-05  3936   0.579E-03    0.164E-02
DAV:   7    -0.332588536295E+04   -0.69999E-05   -0.11421E-05  3808   0.320E-03    0.894E-03
DAV:   8    -0.332588536479E+04   -0.18358E-05   -0.52867E-06  2880   0.213E-03    0.261E-03
DAV:   9    -0.332588536487E+04   -0.77416E-07   -0.12419E-06  2848   0.104E-03
  96 F= -.33400153E+04 E0= -.33400153E+04  d E =-.222234E-02
 BRION: g(F)=  0.121E-02 g(S)=  0.000E+00 retain N=  3 mean eig= 1.94
 eig:   0.369  0.270  5.183
 bond charge predicted
       N       E                     dE             d eps       ncg     rms          rms(c)
DAV:   1    -0.332588566676E+04   -0.30197E-03   -0.30347E-02  3584   0.122E-01    0.354E-02
DAV:   2    -0.332588570711E+04   -0.40350E-04   -0.64837E-04  3872   0.162E-02    0.310E-02
DAV:   3    -0.332588569752E+04    0.95909E-05   -0.13740E-05  3872   0.329E-03    0.244E-02
DAV:   4    -0.332588570537E+04   -0.78466E-05   -0.26727E-05  3712   0.489E-03    0.666E-03
DAV:   5    -0.332588570707E+04   -0.17034E-05   -0.56258E-06  3264   0.207E-03    0.378E-03
DAV:   6    -0.332588570750E+04   -0.43376E-06   -0.91600E-07  2848   0.832E-04
  97 F= -.33400156E+04 E0= -.33400156E+04  d E =-.324972E-03
 BRION: g(F)=  0.434E-03 g(S)=  0.000E+00 retain N=  2 mean eig= 2.69
 eig:   0.005  5.383
 bond charge predicted
       N       E                     dE             d eps       ncg     rms          rms(c)
DAV:   1    -0.332588559028E+04    0.11679E-03   -0.53651E-03  3584   0.479E-02    0.142E-02
DAV:   2    -0.332588559720E+04   -0.69145E-05   -0.10513E-04  3872   0.642E-03    0.120E-02
DAV:   3    -0.332588559562E+04    0.15772E-05   -0.18816E-06  2944   0.136E-03    0.901E-03
DAV:   4    -0.332588559656E+04   -0.94541E-06   -0.40392E-06  2816   0.200E-03
  98 F= -.33400155E+04 E0= -.33400155E+04  d E =0.997901E-04
 BRION: g(F)=  0.504E-03 g(S)=  0.000E+00 retain N=  3 mean eig= 2.00
 eig:   5.783  0.007  0.224
 bond charge predicted
       N       E                     dE             d eps       ncg     rms          rms(c)
DAV:   1    -0.332588561653E+04   -0.20908E-04   -0.38839E-04  3712   0.192E-02    0.435E-03
DAV:   2    -0.332588561730E+04   -0.77696E-06   -0.11825E-05  3744   0.291E-03    0.374E-03
DAV:   3    -0.332588561708E+04    0.22072E-06   -0.38368E-07  2816   0.765E-04
  99 F= -.33400155E+04 E0= -.33400155E+04  d E =-.219526E-04
 BRION: g(F)=  0.432E-03 g(S)=  0.000E+00 retain N=  1 mean eig= 0.21
 eig:   0.211
 bond charge predicted
       N       E                     dE             d eps       ncg     rms          rms(c)
DAV:   1    -0.332588594639E+04   -0.32908E-03   -0.72713E-02  3584   0.173E-01    0.543E-02
DAV:   2    -0.332588602127E+04   -0.74882E-04   -0.13271E-03  3776   0.211E-02    0.456E-02
DAV:   3    -0.332588600212E+04    0.19148E-04   -0.22927E-05  3840   0.430E-03    0.347E-02
DAV:   4    -0.332588602605E+04   -0.23924E-04   -0.50577E-05  3584   0.601E-03    0.811E-03
DAV:   5    -0.332588602813E+04   -0.20827E-05   -0.10547E-05  3456   0.252E-03    0.553E-03
DAV:   6    -0.332588602866E+04   -0.53225E-06   -0.17188E-06  2816   0.104E-03
 100 F= -.33400159E+04 E0= -.33400159E+04  d E =-.402689E-03
 BRION: g(F)=  0.651E-03 g(S)=  0.000E+00 retain N=  2 mean eig= 0.23
 eig:   0.225  0.225
 bond charge predicted
       N       E                     dE             d eps       ncg     rms          rms(c)
DAV:   1    -0.332588611728E+04   -0.89156E-04   -0.35590E-03  3584   0.404E-02    0.125E-02
DAV:   2    -0.332588612563E+04   -0.83440E-05   -0.10969E-04  4000   0.575E-03    0.112E-02
DAV:   3    -0.332588612466E+04    0.96892E-06   -0.20588E-06  2944   0.113E-03
 101 F= -.33400160E+04 E0= -.33400160E+04  d E =-.936514E-04
 BRION: g(F)=  0.444E-03 g(S)=  0.000E+00 retain N=  1 mean eig= 0.15
 eig:   0.152
 bond charge predicted
       N       E                     dE             d eps       ncg     rms          rms(c)
DAV:   1    -0.332588647450E+04   -0.34888E-03   -0.74072E-02  3584   0.176E-01    0.560E-02
DAV:   2    -0.332588654087E+04   -0.66366E-04   -0.12786E-03  3808   0.212E-02    0.468E-02
DAV:   3    -0.332588652305E+04    0.17824E-04   -0.23383E-05  4000   0.450E-03    0.345E-02
DAV:   4    -0.332588654997E+04   -0.26920E-04   -0.42669E-05  3744   0.585E-03    0.734E-03
DAV:   5    -0.332588655238E+04   -0.24121E-05   -0.10223E-05  3456   0.244E-03    0.544E-03
DAV:   6    -0.332588655279E+04   -0.40710E-06   -0.16544E-06  2816   0.112E-03
 102 F= -.33400164E+04 E0= -.33400164E+04  d E =-.417650E-03
 BRION: g(F)=  0.574E-03 g(S)=  0.000E+00 retain N=  2 mean eig= 0.15
 eig:   0.195  0.108
 bond charge predicted
       N       E                     dE             d eps       ncg     rms          rms(c)
DAV:   1    -0.332588665036E+04   -0.97983E-04   -0.40743E-03  3584   0.538E-02    0.126E-02
DAV:   2    -0.332588665579E+04   -0.54240E-05   -0.84522E-05  3936   0.726E-03    0.110E-02
DAV:   3    -0.332588665472E+04    0.10672E-05   -0.17552E-06  2912   0.145E-03    0.845E-03
DAV:   4    -0.332588665561E+04   -0.89046E-06   -0.30327E-06  2848   0.210E-03
 103 F= -.33400165E+04 E0= -.33400165E+04  d E =-.100079E-03
 BRION: g(F)=  0.438E-03 g(S)=  0.000E+00 retain N=  2 mean eig= 3.72
 eig:   0.199  7.234
 bond charge predicted
       N       E                     dE             d eps       ncg     rms          rms(c)
DAV:   1    -0.332588684938E+04   -0.19466E-03   -0.19866E-02  3584   0.890E-02    0.292E-02
DAV:   2    -0.332588687336E+04   -0.23975E-04   -0.40052E-04  3776   0.111E-02    0.247E-02
DAV:   3    -0.332588686843E+04    0.49244E-05   -0.69375E-06  3392   0.226E-03    0.193E-02
DAV:   4    -0.332588687474E+04   -0.63083E-05   -0.15703E-05  3360   0.322E-03    0.493E-03
DAV:   5    -0.332588687537E+04   -0.63237E-06   -0.29777E-06  3008   0.139E-03
 104 F= -.33400168E+04 E0= -.33400168E+04  d E =-.213950E-03
 BRION: g(F)=  0.539E-03 g(S)=  0.000E+00 retain N=  2 mean eig= 0.17
 eig:   0.169  0.169
 bond charge predicted
       N       E                     dE             d eps       ncg     rms          rms(c)
DAV:   1    -0.332588710978E+04   -0.23503E-03   -0.26431E-02  3584   0.101E-01    0.324E-02
DAV:   2    -0.332588713988E+04   -0.30105E-04   -0.49084E-04  3808   0.122E-02    0.269E-02
DAV:   3    -0.332588713429E+04    0.55941E-05   -0.79776E-06  3424   0.248E-03    0.201E-02
DAV:   4    -0.332588714221E+04   -0.79237E-05   -0.12840E-05  3360   0.311E-03    0.407E-03
[...]
 eig:   0.180  0.180
 bond charge predicted
       N       E                     dE             d eps       ncg     rms          rms(c)
DAV:   1    -0.332589249008E+04   -0.96473E-04   -0.42840E-03  3648   0.500E-02    0.135E-02
DAV:   2    -0.332589249862E+04   -0.85426E-05   -0.11608E-04  3904   0.700E-03    0.119E-02
DAV:   3    -0.332589249765E+04    0.97079E-06   -0.22222E-06  3040   0.134E-03
 126 F= -.33400223E+04 E0= -.33400223E+04  d E =-.102690E-03
 BRION: g(F)=  0.475E-03 g(S)=  0.000E+00 retain N=  1 mean eig= 0.15
 eig:   0.152
 bond charge predicted
       N       E                     dE             d eps       ncg     rms          rms(c)
DAV:   1    -0.332589284821E+04   -0.34959E-03   -0.67622E-02  3616   0.160E-01    0.558E-02
DAV:   2    -0.332589291478E+04   -0.66571E-04   -0.12312E-03  3776   0.194E-02    0.465E-02
DAV:   3    -0.332589290067E+04    0.14111E-04   -0.22840E-05  3936   0.412E-03    0.347E-02
DAV:   4    -0.332589291893E+04   -0.18260E-04   -0.44920E-05  3616   0.551E-03    0.801E-03
DAV:   5    -0.332589292085E+04   -0.19164E-05   -0.96914E-06  3456   0.232E-03    0.554E-03
DAV:   6    -0.332589292116E+04   -0.30873E-06   -0.16602E-06  2880   0.977E-04
 127 F= -.33400227E+04 E0= -.33400227E+04  d E =-.417052E-03
 BRION: g(F)=  0.658E-03 g(S)=  0.000E+00 retain N=  2 mean eig= 0.17
 eig:   0.172  0.172
 bond charge predicted
       N       E                     dE             d eps       ncg     rms          rms(c)
DAV:   1    -0.332589301621E+04   -0.95364E-04   -0.42396E-03  3648   0.480E-02    0.136E-02
DAV:   2    -0.332589302613E+04   -0.99163E-05   -0.12981E-04  3936   0.690E-03    0.124E-02
DAV:   3    -0.332589302516E+04    0.96625E-06   -0.24695E-06  3072   0.130E-03
 128 F= -.33400228E+04 E0= -.33400228E+04  d E =-.102904E-03
 BRION: g(F)=  0.476E-03 g(S)=  0.000E+00 retain N=  1 mean eig= 0.15
 eig:   0.151
 bond charge predicted
       N       E                     dE             d eps       ncg     rms          rms(c)
DAV:   1    -0.332589338280E+04   -0.35667E-03   -0.67207E-02  3616   0.161E-01    0.562E-02
DAV:   2    -0.332589344696E+04   -0.64160E-04   -0.12098E-03  3776   0.196E-02    0.467E-02
DAV:   3    -0.332589343286E+04    0.14095E-04   -0.23546E-05  3968   0.427E-03    0.345E-02
DAV:   4    -0.332589345091E+04   -0.18043E-04   -0.43227E-05  3648   0.562E-03    0.794E-03
DAV:   5    -0.332589345299E+04   -0.20792E-05   -0.97012E-06  3360   0.236E-03    0.537E-03
DAV:   6    -0.332589345328E+04   -0.29837E-06   -0.16507E-06  2880   0.101E-03
 129 F= -.33400232E+04 E0= -.33400232E+04  d E =-.420730E-03
 BRION: g(F)=  0.631E-03 g(S)=  0.000E+00 retain N=  2 mean eig= 0.18
 eig:   0.184  0.184
 bond charge predicted
       N       E                     dE             d eps       ncg     rms          rms(c)
DAV:   1    -0.332589355286E+04   -0.99874E-04   -0.47561E-03  3648   0.527E-02    0.143E-02
DAV:   2    -0.332589356224E+04   -0.93818E-05   -0.12872E-04  3904   0.739E-03    0.126E-02
DAV:   3    -0.332589356114E+04    0.11041E-05   -0.25235E-06  3072   0.143E-03    0.994E-03
DAV:   4    -0.332589356120E+04   -0.66706E-07   -0.34161E-06  2752   0.193E-03
 130 F= -.33400233E+04 E0= -.33400233E+04  d E =-.107158E-03
 BRION: g(F)=  0.464E-03 g(S)=  0.000E+00 retain N=  1 mean eig= 0.15
 eig:   0.153
 bond charge predicted
       N       E                     dE             d eps       ncg     rms          rms(c)
DAV:   1    -0.332589388985E+04   -0.32871E-03   -0.64089E-02  3616   0.154E-01    0.534E-02
DAV:   2    -0.332589396205E+04   -0.72200E-04   -0.12297E-03  3776   0.190E-02    0.445E-02
DAV:   3    -0.332589394874E+04    0.13310E-04   -0.22027E-05  3904   0.394E-03    0.339E-02
DAV:   4    -0.332589396376E+04   -0.15021E-04   -0.45067E-05  3552   0.534E-03    0.813E-03
DAV:   5    -0.332589396558E+04   -0.18161E-05   -0.92713E-06  3360   0.226E-03    0.537E-03
DAV:   6    -0.332589396591E+04   -0.33481E-06   -0.15818E-06  2880   0.934E-04
 131 F= -.33400237E+04 E0= -.33400237E+04  d E =-.398085E-03
 BRION: g(F)=  0.719E-03 g(S)=  0.000E+00 retain N=  2 mean eig= 0.20
 eig:   0.075  0.329
 bond charge predicted
       N       E                     dE             d eps       ncg     rms          rms(c)
DAV:   1    -0.332589406213E+04   -0.96550E-04   -0.38536E-03  3648   0.456E-02    0.132E-02
DAV:   2    -0.332589407168E+04   -0.95521E-05   -0.12382E-04  3936   0.662E-03    0.121E-02
DAV:   3    -0.332589407078E+04    0.90117E-06   -0.24077E-06  3072   0.126E-03
 132 F= -.33400238E+04 E0= -.33400238E+04  d E =-.103644E-03
 BRION: g(F)=  0.460E-03 g(S)=  0.000E+00 retain N=  1 mean eig= 0.15
 eig:   0.153
 bond charge predicted
       N       E                     dE             d eps       ncg     rms          rms(c)
DAV:   1    -0.332589444578E+04   -0.37410E-03   -0.70976E-02  3616   0.162E-01    0.573E-02
DAV:   2    -0.332589451153E+04   -0.65750E-04   -0.12379E-03  3776   0.194E-02    0.473E-02
DAV:   3    -0.332589449756E+04    0.13973E-04   -0.23647E-05  3904   0.428E-03    0.340E-02
DAV:   4    -0.332589451550E+04   -0.17944E-04   -0.38120E-05  3648   0.530E-03    0.708E-03
DAV:   5    -0.332589451770E+04   -0.21996E-05   -0.95387E-06  3296   0.218E-03    0.541E-03
DAV:   6    -0.332589451796E+04   -0.25774E-06   -0.17378E-06  2848   0.112E-03
 133 F= -.33400243E+04 E0= -.33400243E+04  d E =-.439571E-03
 BRION: g(F)=  0.501E-03 g(S)=  0.000E+00 retain N=  2 mean eig= 0.86
 eig:   0.164  1.561
 bond charge predicted
       N       E                     dE             d eps       ncg     rms          rms(c)
DAV:   1    -0.332589465562E+04   -0.13792E-03   -0.86016E-03  3616   0.634E-02    0.194E-02
DAV:   2    -0.332589466613E+04   -0.10512E-04   -0.17339E-04  3840   0.819E-03    0.161E-02
DAV:   3    -0.332589466434E+04    0.17913E-05   -0.30455E-06  3200   0.164E-03    0.123E-02
DAV:   4    -0.332589466626E+04   -0.19158E-05   -0.66044E-06  3008   0.246E-03    0.290E-03
DAV:   5    -0.332589466651E+04   -0.25565E-06   -0.12637E-06  2848   0.101E-03
 134 F= -.33400244E+04 E0= -.33400244E+04  d E =-.146309E-03
 BRION: g(F)=  0.470E-03 g(S)=  0.000E+00 retain N=  2 mean eig= 3.52
 eig:   0.004  7.045
 bond charge predicted
       N       E                     dE             d eps       ncg     rms          rms(c)
DAV:   1    -0.332589489667E+04   -0.23041E-03   -0.27200E-02  3616   0.110E-01    0.346E-02
DAV:   2    -0.332589492846E+04   -0.31798E-04   -0.52885E-04  3840   0.139E-02    0.290E-02
DAV:   3    -0.332589492277E+04    0.56906E-05   -0.10094E-05  3680   0.287E-03    0.220E-02
DAV:   4    -0.332589492867E+04   -0.58969E-05   -0.18845E-05  3648   0.397E-03    0.552E-03
DAV:   5    -0.332589492953E+04   -0.86008E-06   -0.40342E-06  2944   0.166E-03
 135 F= -.33400247E+04 E0= -.33400247E+04  d E =-.256960E-03
 BRION: g(F)=  0.607E-03 g(S)=  0.000E+00 retain N=  2 mean eig= 0.23
 eig:   0.231  0.231
 bond charge predicted
       N       E                     dE             d eps       ncg     rms          rms(c)
DAV:   1    -0.332589511356E+04   -0.18489E-03   -0.14348E-02  3616   0.753E-02    0.251E-02
DAV:   2    -0.332589513361E+04   -0.20052E-04   -0.30600E-04  3840   0.962E-03    0.209E-02
DAV:   3    -0.332589513080E+04    0.28064E-05   -0.54674E-06  3264   0.197E-03    0.157E-02
DAV:   4    -0.332589513380E+04   -0.29994E-05   -0.78739E-06  3136   0.258E-03    0.343E-03
DAV:   5    -0.332589513445E+04   -0.64436E-06   -0.20174E-06  2976   0.108E-03
 136 F= -.33400249E+04 E0= -.33400249E+04  d E =-.201983E-03
 BRION: g(F)=  0.442E-03 g(S)=  0.000E+00 retain N=  2 mean eig= 4.01
 eig:   0.224  7.791
 bond charge predicted
       N       E                     dE             d eps       ncg     rms          rms(c)
DAV:   1    -0.332589536215E+04   -0.22835E-03   -0.22252E-02  3616   0.907E-02    0.315E-02
DAV:   2    -0.332589538637E+04   -0.24211E-04   -0.41517E-04  3840   0.111E-02    0.262E-02
DAV:   3    -0.332589538189E+04    0.44726E-05   -0.72943E-06  3520   0.235E-03    0.196E-02
DAV:   4    -0.332589538750E+04   -0.56098E-05   -0.14068E-05  3392   0.312E-03    0.469E-03
DAV:   5    -0.332589538818E+04   -0.67381E-06   -0.29875E-06  2880   0.133E-03
 137 F= -.33400251E+04 E0= -.33400251E+04  d E =-.248450E-03
 BRION: g(F)=  0.437E-03 g(S)=  0.000E+00 retain N=  2 mean eig= 0.54
 eig:   0.080  1.007
 bond charge predicted
       N       E                     dE             d eps       ncg     rms          rms(c)
DAV:   1    -0.332589563468E+04   -0.24718E-03   -0.29118E-02  3616   0.103E-01    0.356E-02
DAV:   2    -0.332589566543E+04   -0.30746E-04   -0.52857E-04  3840   0.125E-02    0.290E-02
DAV:   3    -0.332589566003E+04    0.53998E-05   -0.87376E-06  3488   0.257E-03    0.214E-02
DAV:   4    -0.332589566737E+04   -0.73405E-05   -0.16270E-05  3552   0.337E-03    0.452E-03
DAV:   5    -0.332589566810E+04   -0.72562E-06   -0.35997E-06  2912   0.135E-03
 138 F= -.33400254E+04 E0= -.33400254E+04  d E =-.276358E-03
 BRION: g(F)=  0.431E-03 g(S)=  0.000E+00 retain N=  3 mean eig= 1.11
 eig:   3.156  0.156  0.015
 bond charge predicted
       N       E                     dE             d eps       ncg     rms          rms(c)
DAV:   1    -0.332589581448E+04   -0.14711E-03   -0.86545E-03  3616   0.582E-02    0.198E-02
DAV:   2    -0.332589582426E+04   -0.97805E-05   -0.16488E-04  3840   0.728E-03    0.163E-02
DAV:   3    -0.332589582276E+04    0.14999E-05   -0.30317E-06  3264   0.159E-03    0.120E-02
DAV:   4    -0.332589582543E+04   -0.26694E-05   -0.46952E-06  3040   0.204E-03    0.283E-03
DAV:   5    -0.332589582574E+04   -0.31351E-06   -0.10938E-06  2784   0.884E-04
 139 F= -.33400255E+04 E0= -.33400255E+04  d E =-.153154E-03
 BRION: g(F)=  0.424E-03 g(S)=  0.000E+00 retain N=  2 mean eig= 0.66
 eig:   0.392  0.928
 bond charge predicted
       N       E                     dE             d eps       ncg     rms          rms(c)
DAV:   1    -0.332589610166E+04   -0.27623E-03   -0.35463E-02  3616   0.113E-01    0.392E-02
DAV:   2    -0.332589613854E+04   -0.36883E-04   -0.63525E-04  3776   0.136E-02    0.322E-02
DAV:   3    -0.332589613182E+04    0.67203E-05   -0.10784E-05  3552   0.285E-03    0.237E-02
DAV:   4    -0.332589614024E+04   -0.84190E-05   -0.19836E-05  3584   0.367E-03    0.520E-03
DAV:   5    -0.332589614117E+04   -0.93214E-06   -0.44719E-06  2912   0.150E-03
 140 F= -.33400258E+04 E0= -.33400258E+04  d E =-.309078E-03
 BRION: g(F)=  0.411E-03 g(S)=  0.000E+00 retain N=  3 mean eig= 1.95
 eig:   0.045  0.569  5.231
 bond charge predicted
       N       E                     dE             d eps       ncg     rms          rms(c)
DAV:   1    -0.332589671876E+04   -0.57852E-03   -0.38363E-01  3616   0.370E-01    0.129E-01
DAV:   2    -0.332589712461E+04   -0.40585E-03   -0.69638E-03  3776   0.447E-02    0.106E-01
DAV:   3    -0.332589704608E+04    0.78531E-04   -0.12113E-04  4128   0.936E-03    0.788E-02
DAV:   4    -0.332589713950E+04   -0.93424E-04   -0.22794E-04  3904   0.121E-02    0.180E-02
DAV:   5    -0.332589714909E+04   -0.95872E-05   -0.51059E-05  3936   0.500E-03    0.133E-02
DAV:   6    -0.332589715012E+04   -0.10290E-05   -0.10592E-05  3296   0.232E-03    0.691E-03
DAV:   7    -0.332589715058E+04   -0.46380E-06   -0.14111E-06  3008   0.110E-03
 141 F= -.33400268E+04 E0= -.33400268E+04  d E =-.985998E-03
 BRION: g(F)=  0.591E-03 g(S)=  0.000E+00 retain N=  3 mean eig= 0.64
 eig:   0.789  0.789  0.347
 bond charge predicted
       N       E                     dE             d eps       ncg     rms          rms(c)
DAV:   1    -0.332589687877E+04    0.27135E-03   -0.23040E-02  3616   0.917E-02    0.326E-02
DAV:   2    -0.332589691164E+04   -0.32868E-04   -0.51520E-04  3776   0.116E-02    0.279E-02
DAV:   3    -0.332589690639E+04    0.52496E-05   -0.96572E-06  3488   0.242E-03    0.219E-02
DAV:   4    -0.332589690989E+04   -0.34986E-05   -0.20671E-05  3296   0.340E-03    0.580E-03
DAV:   5    -0.332589691060E+04   -0.71654E-06   -0.37864E-06  3072   0.148E-03
 142 F= -.33400266E+04 E0= -.33400266E+04  d E =0.232685E-03
 BRION: g(F)=  0.530E-03 g(S)=  0.000E+00 retain N=  2 mean eig= 3.98
 eig:   0.451  7.506
 bond charge predicted
       N       E                     dE             d eps       ncg     rms          rms(c)
DAV:   1    -0.332589678631E+04    0.12357E-03   -0.68887E-03  3616   0.529E-02    0.176E-02
DAV:   2    -0.332589679571E+04   -0.93986E-05   -0.14503E-04  3840   0.682E-03    0.142E-02
DAV:   3    -0.332589679449E+04    0.12248E-05   -0.25844E-06  3136   0.139E-03    0.106E-02
DAV:   4    -0.332589679617E+04   -0.16843E-05   -0.38758E-06  2784   0.181E-03    0.230E-03
DAV:   5    -0.332589679646E+04   -0.28708E-06   -0.88491E-07  2816   0.776E-04
 143 F= -.33400265E+04 E0= -.33400265E+04  d E =0.112920E-03
 BRION: g(F)=  0.414E-03 g(S)=  0.000E+00 retain N=  2 mean eig= 1.58
 eig:   0.188  2.981
 bond charge predicted
       N       E                     dE             d eps       ncg     rms          rms(c)
DAV:   1    -0.332589719436E+04   -0.39819E-03   -0.89571E-02  3616   0.179E-01    0.621E-02
DAV:   2    -0.332589728792E+04   -0.93557E-04   -0.15968E-03  3776   0.215E-02    0.510E-02
DAV:   3    -0.332589726990E+04    0.18018E-04   -0.28414E-05  4000   0.457E-03    0.373E-02
DAV:   4    -0.332589728704E+04   -0.17143E-04   -0.49298E-05  3680   0.575E-03    0.795E-03
DAV:   5    -0.332589728951E+04   -0.24702E-05   -0.11752E-05  3424   0.235E-03    0.620E-03
DAV:   6    -0.332589728976E+04   -0.24738E-06   -0.22752E-06  2912   0.119E-03
 144 F= -.33400270E+04 E0= -.33400270E+04  d E =-.480921E-03
 BRION: g(F)=  0.408E-03 g(S)=  0.000E+00 retain N=  3 mean eig= 1.25
 eig:   0.273  0.273  3.212
 bond charge predicted
       N       E                     dE             d eps       ncg     rms          rms(c)
DAV:   1    -0.332589755546E+04   -0.26595E-03   -0.36809E-02  3616   0.115E-01    0.399E-02
DAV:   2    -0.332589759464E+04   -0.39183E-04   -0.66982E-04  3776   0.139E-02    0.326E-02
DAV:   3    -0.332589758843E+04    0.62136E-05   -0.11149E-05  3552   0.285E-03    0.241E-02
DAV:   4    -0.332589759779E+04   -0.93639E-05   -0.20503E-05  3520   0.372E-03    0.525E-03
DAV:   5    -0.332589759868E+04   -0.88499E-06   -0.44597E-06  3008   0.149E-03
 145 F= -.33400273E+04 E0= -.33400273E+04  d E =-.300107E-03
 BRION: g(F)=  0.400E-03 g(S)=  0.000E+00 retain N=  4 mean eig= 4.14
 eig:   7.118  4.609  4.609  0.226
 bond charge predicted
       N       E                     dE             d eps       ncg     rms          rms(c)
DAV:   1    -0.332584170052E+04    0.55897E-01   -0.41695E+01  3648   0.383E+00    0.137E+00
DAV:   2    -0.332590865031E+04   -0.66950E-01   -0.92804E-01  3776   0.486E-01    0.108E+00
DAV:   3    -0.332590053544E+04    0.81149E-02   -0.15490E-02  4064   0.986E-02    0.834E-01
DAV:   4    -0.332590333595E+04   -0.28005E-02   -0.34209E-02  4192   0.145E-01    0.247E-01
DAV:   5    -0.332590395260E+04   -0.61665E-03   -0.70283E-03  3872   0.567E-02    0.192E-01
DAV:   6    -0.332590382375E+04    0.12885E-03   -0.30586E-03  4032   0.369E-02    0.748E-02
DAV:   7    -0.332590394149E+04   -0.11774E-03   -0.37989E-04  3904   0.143E-02    0.485E-02
DAV:   8    -0.332590398672E+04   -0.45229E-04   -0.12539E-04  3968   0.973E-03    0.165E-02
DAV:   9    -0.332590398941E+04   -0.26866E-05   -0.44060E-05  4000   0.521E-03    0.522E-03
DAV:  10    -0.332590398987E+04   -0.46613E-06   -0.44212E-06  3072   0.158E-03
 146 F= -.33400332E+04 E0= -.33400332E+04  d E =-.594358E-02
 BRION: g(F)=  0.139E-01 g(S)=  0.000E+00 retain N=  5 mean eig= 3.13
 eig:   6.481  6.481  0.244  0.244  2.209
 bond charge predicted
       N       E                     dE             d eps       ncg     rms          rms(c)
DAV:   1    -0.332590374228E+04    0.24712E-03   -0.48936E-02  3616   0.132E-01    0.446E-02
DAV:   2    -0.332590379872E+04   -0.56435E-04   -0.91650E-04  3840   0.159E-02    0.361E-02
DAV:   3    -0.332590378940E+04    0.93175E-05   -0.16178E-05  3648   0.325E-03    0.268E-02
DAV:   4    -0.332590379834E+04   -0.89343E-05   -0.29247E-05  3456   0.420E-03    0.606E-03
DAV:   5    -0.332590379966E+04   -0.13231E-05   -0.64272E-06  3072   0.169E-03    0.478E-03
DAV:   6    -0.332590379977E+04   -0.10920E-06   -0.13482E-06  2816   0.906E-04
 147 F= -.33400330E+04 E0= -.33400330E+04  d E =0.207044E-03
 BRION: g(F)=  0.165E-01 g(S)=  0.000E+00 retain N=  1 mean eig= 0.42
 eig:   0.422
 bond charge predicted
       N       E                     dE             d eps       ncg     rms          rms(c)
DAV:   1    -0.332589702721E+04    0.67724E-02   -0.53045E+00  3616   0.139E+00    0.456E-01
DAV:   2    -0.332590322530E+04   -0.61981E-02   -0.99117E-02  3776   0.170E-01    0.375E-01
DAV:   3    -0.332590225045E+04    0.97486E-03   -0.18324E-03  4160   0.341E-02    0.278E-01
DAV:   4    -0.332590312505E+04   -0.87460E-03   -0.30908E-03  3872   0.441E-02    0.575E-02
DAV:   5    -0.332590327737E+04   -0.15232E-03   -0.67747E-04  4032   0.178E-02    0.449E-02
DAV:   6    -0.332590328696E+04   -0.95881E-05   -0.10504E-04  4096   0.793E-03    0.258E-02
DAV:   7    -0.332590329058E+04   -0.36171E-05   -0.26860E-05  4192   0.481E-03    0.137E-02
DAV:   8    -0.332590329284E+04   -0.22625E-05   -0.14573E-05  3712   0.343E-03    0.396E-03
DAV:   9    -0.332590329298E+04   -0.14144E-06   -0.31828E-06  2880   0.156E-03
 148 F= -.33400327E+04 E0= -.33400327E+04  d E =0.349487E-03
 BRION: g(F)=  0.592E-02 g(S)=  0.000E+00 retain N=  2 mean eig= 0.76
 eig:   0.337  1.191
 bond charge predicted
       N       E                     dE             d eps       ncg     rms          rms(c)
DAV:   1    -0.332590391219E+04   -0.61935E-03   -0.52426E-02  3648   0.270E-01    0.489E-02
DAV:   2    -0.332590400069E+04   -0.88501E-04   -0.13967E-03  4256   0.401E-02    0.478E-02
DAV:   3    -0.332590397651E+04    0.24181E-04   -0.54329E-05  4480   0.807E-03    0.387E-02
DAV:   4    -0.332590393572E+04    0.40794E-04   -0.92409E-05  3968   0.120E-02    0.119E-02
DAV:   5    -0.332590393644E+04   -0.71630E-06   -0.24960E-05  4064   0.494E-03    0.468E-03
DAV:   6    -0.332590393622E+04    0.21071E-06   -0.28383E-06  3040   0.186E-03
 149 F= -.33400333E+04 E0= -.33400333E+04  d E =-.643860E-03
 BRION: g(F)=  0.478E-03 g(S)=  0.000E+00 retain N=  2 mean eig= 0.35
 eig:   0.176  0.518
 bond charge predicted
       N       E                     dE             d eps       ncg     rms          rms(c)
DAV:   1    -0.332590391159E+04    0.24841E-04   -0.51629E-02  3648   0.218E-01    0.499E-02
DAV:   2    -0.332590400038E+04   -0.88789E-04   -0.13712E-03  4128   0.314E-02    0.449E-02
DAV:   3    -0.332590398392E+04    0.16467E-04   -0.39545E-05  4416   0.643E-03    0.357E-02
DAV:   4    -0.332590397474E+04    0.91732E-05   -0.80834E-05  3744   0.104E-02    0.976E-03
DAV:   5    -0.332590397671E+04   -0.19629E-05   -0.15575E-05  4000   0.402E-03    0.563E-03
DAV:   6    -0.332590397674E+04   -0.30850E-07   -0.25224E-06  2816   0.152E-03
 150 F= -.33400333E+04 E0= -.33400333E+04  d E =-.144632E-04
 BRION: g(F)=  0.217E-02 g(S)=  0.000E+00 retain N=  3 mean eig= 0.43
 eig:   0.313  0.313  0.654
 bond charge predicted
       N       E                     dE             d eps       ncg     rms          rms(c)
DAV:   1    -0.332590421052E+04   -0.23382E-03   -0.17162E-02  3648   0.141E-01    0.283E-02
DAV:   2    -0.332590424955E+04   -0.39026E-04   -0.56310E-04  4160   0.215E-02    0.283E-02
DAV:   3    -0.332590424425E+04    0.52992E-05   -0.16980E-05  4576   0.403E-03    0.245E-02
DAV:   4    -0.332590422957E+04    0.14685E-04   -0.41453E-05  3712   0.750E-03    0.694E-03
DAV:   5    -0.332590423010E+04   -0.53411E-06   -0.93245E-06  3616   0.293E-03
 soft stop encountered!  aborting job ...
 151 F= -.33400336E+04 E0= -.33400336E+04  d E =-.247984E-03
 BRION: g(F)=  0.233E-03 g(S)=  0.000E+00 retain N=  1 mean eig= 0.19
 eig:   0.188
 deleting file STOPCAR
 PROFILE, used timers:     333
