 running  128 mpi-ranks, with    1 threads/rank, on    2 nodes
 distrk:  each k-point on   64 cores,    2 groups
 distr:  one band on    4 cores,   16 groups
 vasp.6.4.2 20Jul23 (build Oct 12 2023 10:31:02) complex                         
 POSCAR found type information on POSCAR GeSe
 POSCAR found :  2 types and       8 ions
 Reading from existing POTCAR
 scaLAPACK will be used
 Reading from existing POTCAR
 LDA part: xc-table for Pade appr. of Perdew
 POSCAR, INCAR and KPOINTS ok, starting setup
 FFT: planning ... GRIDC
 FFT: planning ... GRID_SOFT
 FFT: planning ... GRID
 WAVECAR not read
 entering main loop
       N       E                     dE             d eps       ncg     rms          rms(c)
DAV:   1     0.132482361491E+03    0.13248E+03   -0.12535E+04  2560   0.760E+02
DAV:   2    -0.241983448045E+02   -0.15668E+03   -0.15198E+03  3744   0.135E+02
DAV:   3    -0.337936219534E+02   -0.95953E+01   -0.95703E+01  3072   0.392E+01
DAV:   4    -0.338680920376E+02   -0.74470E-01   -0.74463E-01  3200   0.398E+00
DAV:   5    -0.338685819603E+02   -0.48992E-03   -0.48992E-03  3120   0.316E-01    0.605E+00
DAV:   6    -0.332616486034E+02    0.60693E+00   -0.13799E+00  2880   0.378E+00    0.371E+00
DAV:   7    -0.332536782164E+02    0.79704E-02   -0.28139E-01  2992   0.186E+00    0.164E+00
DAV:   8    -0.332535160856E+02    0.16213E-03   -0.28886E-02  2864   0.667E-01    0.183E-01
DAV:   9    -0.332533591352E+02    0.15695E-03   -0.54991E-03  3184   0.301E-01    0.766E-02
DAV:  10    -0.332535561372E+02   -0.19700E-03   -0.62059E-04  2736   0.108E-01    0.260E-02
DAV:  11    -0.332535875405E+02   -0.31403E-04   -0.51252E-05  3136   0.324E-02    0.148E-02
DAV:  12    -0.332535882428E+02   -0.70230E-06   -0.13108E-05  2928   0.148E-02    0.358E-03
DAV:  13    -0.332535890861E+02   -0.84323E-06   -0.15306E-06  2128   0.460E-03
   1 F= -.33253589E+02 E0= -.33253589E+02  d E =-.485791E-11
