 running  128 mpi-ranks, with    1 threads/rank, on    2 nodes
 distrk:  each k-point on   64 cores,    2 groups
 distr:  one band on    8 cores,    8 groups
 vasp.6.4.2 20Jul23 (build Oct 12 2023 10:31:02) complex                         
 POSCAR found type information on POSCAR GeSe
 POSCAR found :  2 types and      72 ions
 Reading from existing POTCAR
 -----------------------------------------------------------------------------
|                                                                             |
|           W    W    AA    RRRRR   N    N  II  N    N   GGGG   !!!           |
|           W    W   A  A   R    R  NN   N  II  NN   N  G    G  !!!           |
|           W    W  A    A  R    R  N N  N  II  N N  N  G       !!!           |
|           W WW W  AAAAAA  RRRRR   N  N N  II  N  N N  G  GGG   !            |
|           WW  WW  A    A  R   R   N   NN  II  N   NN  G    G                |
|           W    W  A    A  R    R  N    N  II  N    N   GGGG   !!!           |
|                                                                             |
|     You use a magnetic or noncollinear calculation, but did not specify     |
|     the initial magnetic moment with the MAGMOM tag. Note that a            |
|     default of 1 will be used for all atoms. This ferromagnetic setup       |
|     may break the symmetry of the crystal, in particular it may rule        |
|     out finding an antiferromagnetic solution. Thence, we recommend         |
|     setting the initial magnetic moment manually or verifying carefully     |
|     that this magnetic setup is desired.                                    |
|                                                                             |
 -----------------------------------------------------------------------------

 scaLAPACK will be used
 Reading from existing POTCAR
 -----------------------------------------------------------------------------
|                                                                             |
|               ----> ADVICE to this user running VASP <----                  |
|                                                                             |
|     You have a (more or less) 'large supercell' and for larger cells it     |
|     might be more efficient to use real-space projection operators.         |
|     Therefore, try LREAL= Auto in the INCAR file.                           |
|     Mind: For very accurate calculation, you might also keep the            |
|     reciprocal projection scheme (i.e. LREAL=.FALSE.).                      |
|                                                                             |
 -----------------------------------------------------------------------------

 LDA part: xc-table for Pade appr. of Perdew
 -----------------------------------------------------------------------------
|                                                                             |
|           W    W    AA    RRRRR   N    N  II  N    N   GGGG   !!!           |
|           W    W   A  A   R    R  NN   N  II  NN   N  G    G  !!!           |
|           W    W  A    A  R    R  N N  N  II  N N  N  G       !!!           |
|           W WW W  AAAAAA  RRRRR   N  N N  II  N  N N  G  GGG   !            |
|           WW  WW  A    A  R   R   N   NN  II  N   NN  G    G                |
|           W    W  A    A  R    R  N    N  II  N    N   GGGG   !!!           |
|                                                                             |
|     The number of bands has been changed from the values supplied in        |
|     the INCAR file. This is a result of running the parallel version.       |
|     The orbitals not found in the WAVECAR file will be initialized with     |
|     random numbers, which is usually adequate. For correlated               |
|     calculations, however, you should redo the groundstate calculation.     |
|     I found NBANDS = 220. Now, NBANDS = 224.                                |
|                                                                             |
 -----------------------------------------------------------------------------

 POSCAR, INCAR and KPOINTS ok, starting setup
 FFT: planning ... GRIDC
 FFT: planning ... GRID_SOFT
 FFT: planning ... GRID
 WAVECAR not read
 WARNING: random wavefunctions but no delay for mixing, default for NELMDL
 entering main loop
       N       E                     dE             d eps       ncg     rms          rms(c)
DAV:   1     0.181943648951E+04    0.18194E+04   -0.14177E+05  7168   0.135E+03
DAV:   2    -0.639031952469E+02   -0.18833E+04   -0.18088E+04  8472   0.205E+02
DAV:   3    -0.282044400887E+03   -0.21814E+03   -0.21238E+03  8568   0.692E+01
DAV:   4    -0.290070911597E+03   -0.80265E+01   -0.79324E+01  8784   0.131E+01
DAV:   5    -0.290359778252E+03   -0.28887E+00   -0.28809E+00  9016   0.213E+00    0.290E+01
DAV:   6    -0.290121530327E+03    0.23825E+00   -0.26722E+01  8000   0.764E+00    0.172E+01
DAV:   7    -0.297219169339E+03   -0.70976E+01   -0.87035E+00  7968   0.451E+00    0.912E+00
DAV:   8    -0.300462722159E+03   -0.32436E+01   -0.17236E+00  8184   0.224E+00    0.329E+00
DAV:   9    -0.300854111312E+03   -0.39139E+00   -0.43100E-01  8992   0.103E+00    0.149E+00
DAV:  10    -0.300960281314E+03   -0.10617E+00   -0.97485E-02  8144   0.473E-01    0.739E-01
DAV:  11    -0.300992842473E+03   -0.32561E-01   -0.37997E-02  8928   0.286E-01    0.290E-01
DAV:  12    -0.300996135361E+03   -0.32929E-02   -0.44155E-03  8488   0.121E-01    0.115E-01
DAV:  13    -0.300996286070E+03   -0.15071E-03   -0.73888E-04  9744   0.418E-02    0.471E-02
DAV:  14    -0.300996308389E+03   -0.22319E-04   -0.99441E-05  8288   0.201E-02    0.175E-02
DAV:  15    -0.300996312305E+03   -0.39164E-05   -0.18754E-05  8568   0.901E-03    0.805E-03
DAV:  16    -0.300996312892E+03   -0.58753E-06   -0.16837E-06  4992   0.292E-03
   1 F= -.30099631E+03 E0= -.30099631E+03  d E =-.127281E-11  mag=     0.0004
