 vasp.6.4.2 20Jul23 (build Oct 12 2023 10:31:02) complex                         
 executed on              LinuxNV date 2025.05.17  02:04:58
 running  160 mpi-ranks, with    1 threads/rank, on   10 nodes
 distrk:  each k-point on   80 cores,    2 groups
 distr:  one band on NCORE=   5 cores,   16 groups


--------------------------------------------------------------------------------------------------------


 INCAR:
   ENCUT = 360.000000
   SIGMA = 0.050000
   EDIFF = 1.00e-06
   ALGO = Normal
   GGA = PE
   PREC = Normal
   SYSTEM = ./
   ICHARG = 2
   ISMEAR = 0
   ISPIN = 1
   ISTART = 0
   ISYM = 0
   KPAR = 2
   LMAXMIX = 4
   NELM = 100
   NPAR = 16
   LASPH = .TRUE.
   LCHARG = .FALSE.
   LWAVE = .FALSE.

 POTCAR:    PAW_PBE Ge 05Jan2001                  
 POTCAR:    PAW_PBE Se 06Sep2000                  
 POTCAR:    PAW_PBE Ge 05Jan2001                  
   VRHFIN =Ge: s2p2                                                                                 
   LEXCH  = PE                                                                                      
   EATOM  =   104.9960 eV,    7.7170 Ry                                                             
                                                                                                    
   TITEL  = PAW_PBE Ge 05Jan2001                                                                    
   LULTRA =        F    use ultrasoft PP ?                                                          
   IUNSCR =        1    unscreen: 0-lin 1-nonlin 2-no                                               
   RPACOR =    2.170    partial core radius                                                         
   POMASS =   72.610; ZVAL   =    4.000    mass and valenz                                          
   RCORE  =    2.300    outmost cutoff radius                                                       
   RWIGS  =    2.300; RWIGS  =    1.217    wigner-seitz radius (au A)                               
   ENMAX  =  173.807; ENMIN  =  130.355 eV                                                          
   ICORE  =        3    local potential                                                             
   LCOR   =        T    correct aug charges                                                         
   LPAW   =        T    paw PP                                                                      
   EAUG   =  385.843                                                                                
   DEXC   =    0.000                                                                                
   RMAX   =    2.342    core radius for proj-oper                                                   
   RAUG   =    1.300    factor for augmentation sphere                                              
   RDEP   =    2.318    radius for radial grids                                                     
   RDEPT  =    2.103    core radius for aug-charge                                                  
                                                                                                    
   Atomic configuration                                                                             
   10 entries                                                                                       
     n  l   j            E        occ.                                                              
     1  0  0.50    -10959.8463   2.0000                                                             
     2  0  0.50     -1371.6056   2.0000                                                             
     2  1  1.50     -1198.4791   6.0000                                                             
     3  0  0.50      -168.4733   2.0000                                                             
     3  1  1.50      -115.6019   6.0000                                                             
     3  2  2.50       -29.3106  10.0000                                                             
     4  0  0.50       -11.7309   2.0000                                                             
     4  1  0.50        -3.8952   2.0000                                                             
     4  2  1.50        -4.0817   0.0000                                                             
     4  3  2.50        -4.0817   0.0000                                                             
   Description                                                                                      
     l       E           TYP  RCUT    TYP  RCUT                                                     
     0    -11.7309493     23  2.300                                                                 
     0     -7.4578696     23  2.300                                                                 
     1     -3.8952261     23  2.300                                                                 
     1      6.1178114     23  2.300                                                                 
     2     -4.0817478     23  2.300                                                                 
     3     -1.3605826      7  2.300                                                                 
  local pseudopotential read in
  partial core-charges read in
  partial kinetic energy density read in
  atomic valenz-charges read in
  non local Contribution for L=            0  read in
    real space projection operators read in
  non local Contribution for L=            0  read in
    real space projection operators read in
  non local Contribution for L=            1  read in
    real space projection operators read in
  non local Contribution for L=            1  read in
    real space projection operators read in
  non local Contribution for L=            2  read in
    real space projection operators read in
    PAW grid and wavefunctions read in
 
   number of l-projection  operators is LMAX  =            5
   number of lm-projection operators is LMMAX =           13
 
 POTCAR:    PAW_PBE Se 06Sep2000                  
   VRHFIN =Se: s2p4                                                                                 
   LEXCH  = PE                                                                                      
   EATOM  =   257.1286 eV,   18.8984 Ry                                                             
                                                                                                    
   TITEL  = PAW_PBE Se 06Sep2000                                                                    
   LULTRA =        F    use ultrasoft PP ?                                                          
   IUNSCR =        1    unscreen: 0-lin 1-nonlin 2-no                                               
   RPACOR =    1.900    partial core radius                                                         
   POMASS =   78.960; ZVAL   =    6.000    mass and valenz                                          
   RCORE  =    2.100    outmost cutoff radius                                                       
   RWIGS  =    2.200; RWIGS  =    1.164    wigner-seitz radius (au A)                               
   ENMAX  =  211.555; ENMIN  =  158.666 eV                                                          
   ICORE  =        3    local potential                                                             
   LCOR   =        T    correct aug charges                                                         
   LPAW   =        T    paw PP                                                                      
   EAUG   =  446.842                                                                                
   DEXC   =    0.000                                                                                
   RMAX   =    2.147    core radius for proj-oper                                                   
   RAUG   =    1.300    factor for augmentation sphere                                              
   RDEP   =    2.177    radius for radial grids                                                     
   RDEPT  =    1.928    core radius for aug-charge                                                  
                                                                                                    
   Atomic configuration                                                                             
   10 entries                                                                                       
     n  l   j            E        occ.                                                              
     1  0  0.50    -12503.4787   2.0000                                                             
     2  0  0.50     -1606.9547   2.0000                                                             
     2  1  1.50     -1413.3140   6.0000                                                             
     3  0  0.50      -213.4885   2.0000                                                             
     3  1  1.50      -152.9538   6.0000                                                             
     3  2  2.50       -53.1221  10.0000                                                             
     4  0  0.50       -17.2865   2.0000                                                             
     4  1  0.50        -6.5110   4.0000                                                             
     4  2  2.50        -6.8029   0.0000                                                             
     4  3  2.50        -6.8029   0.0000                                                             
   Description                                                                                      
     l       E           TYP  RCUT    TYP  RCUT                                                     
     0    -17.2865377     23  2.100                                                                 
     0    -15.3094411     23  2.100                                                                 
     1     -6.5110275     23  2.100                                                                 
     1     -0.0695192     23  2.100                                                                 
     2     -6.8029130     23  2.100                                                                 
     3     -1.3605826      7  2.100                                                                 
  local pseudopotential read in
  partial core-charges read in
  partial kinetic energy density read in
  atomic valenz-charges read in
  non local Contribution for L=            0  read in
    real space projection operators read in
  non local Contribution for L=            0  read in
    real space projection operators read in
  non local Contribution for L=            1  read in
    real space projection operators read in
  non local Contribution for L=            1  read in
    real space projection operators read in
  non local Contribution for L=            2  read in
    real space projection operators read in
    PAW grid and wavefunctions read in
 
   number of l-projection  operators is LMAX  =            5
   number of lm-projection operators is LMMAX =           13
 
  PAW_PBE Ge 05Jan2001                  :
 energy of atom  1       EATOM= -104.9960
 kinetic energy error for atom=    0.0005 (will be added to EATOM!!)
  PAW_PBE Se 06Sep2000                  :
 energy of atom  2       EATOM= -257.1286
 kinetic energy error for atom=    0.0030 (will be added to EATOM!!)
 
 
 POSCAR: Ge Se
  positions in cartesian coordinates
  No initial velocities read in
 exchange correlation table for  LEXCH =        8
   RHO(1)=    0.500       N(1)  =     2000
   RHO(2)=  100.500       N(2)  =     4000
 


--------------------------------------------------------------------------------------------------------


 ion  position               nearest neighbor table
   1  0.337  0.887  0.116-   5 2.58   6 2.59   6 2.59
   2  0.837  0.387  0.384-   6 2.58   5 2.59   5 2.59
   3  0.750  0.881  0.884-   7 2.58   8 2.59   8 2.59
   4  0.250  0.381  0.616-   8 2.58   7 2.59   7 2.59
   5  0.337  0.763  0.355-   1 2.58   2 2.59   2 2.59
   6  0.837  0.263  0.145-   2 2.58   1 2.59   1 2.59
   7  0.750  0.005  0.645-   3 2.58   4 2.59   4 2.59
   8  0.250  0.505  0.855-   4 2.58   3 2.59   3 2.59
 

IMPORTANT INFORMATION: All symmetrisations will be switched off!
NOSYMM: (Re-)initialisation of all symmetry stuff for point group C_1.


----------------------------------------------------------------------------------------

                                     Primitive cell                                     

  volume of cell :     184.8593

  direct lattice vectors                    reciprocal lattice vectors
     3.858100176  0.000000000  0.000000000     0.259194929  0.000000000  0.000000000
     0.000000000  4.526575088  0.000000000     0.000000000  0.220917577  0.000000000
     0.000000000  0.000000000 10.585176468     0.000000000  0.000000000  0.094471736

  length of vectors
     3.858100176  4.526575088 10.585176468     0.259194929  0.220917577  0.094471736

  position of ions in fractional coordinates (direct lattice)
     0.336956231  0.887312065  0.116293234
     0.836956279  0.387312090  0.383706663
     0.749999529  0.880803548  0.883706698
     0.249998913  0.380803590  0.616293301
     0.336956303  0.763057152  0.354521754
     0.836956181  0.263057253  0.145478256
     0.749999119  0.005058363  0.645478205
     0.249999423  0.505058446  0.854521738

  ion indices of the primitive-cell ions
   primitive index   ion index
                 1           1
                 2           2
                 3           3
                 4           4
                 5           5
                 6           6
                 7           7
                 8           8

----------------------------------------------------------------------------------------

 
 
 KPOINTS: KPOINTS created by Atomic Simulation Env

Automatic generation of k-mesh.
 Grid dimensions read from file:
 generate k-points for:    6    6    2

 Generating k-lattice:

  Cartesian coordinates                     Fractional coordinates (reciprocal lattice)
     0.043199155  0.000000000  0.000000000     0.166666667  0.000000000  0.000000000
     0.000000000  0.036819596  0.000000000     0.000000000  0.166666667  0.000000000
     0.000000000  0.000000000  0.047235868     0.000000000  0.000000000  0.500000000

  Length of vectors
     0.043199155  0.036819596  0.047235868

  Shift w.r.t. Gamma in fractional coordinates (k-lattice)
     0.000000000  0.000000000  0.000000000

 
 Subroutine IBZKPT returns following result:
 ===========================================
 
 Found     40 irreducible k-points:
 
 Following reciprocal coordinates:
            Coordinates               Weight
  0.000000  0.000000  0.000000      1.000000
  0.166667  0.000000  0.000000      2.000000
  0.333333  0.000000  0.000000      2.000000
  0.500000  0.000000  0.000000      1.000000
  0.000000  0.166667  0.000000      2.000000
  0.166667  0.166667  0.000000      2.000000
  0.166667 -0.166667  0.000000      2.000000
  0.333333  0.166667  0.000000      2.000000
  0.333333 -0.166667  0.000000      2.000000
  0.500000  0.166667  0.000000      2.000000
  0.000000  0.333333  0.000000      2.000000
  0.166667  0.333333  0.000000      2.000000
  0.166667 -0.333333  0.000000      2.000000
  0.333333  0.333333  0.000000      2.000000
  0.333333 -0.333333  0.000000      2.000000
  0.500000  0.333333  0.000000      2.000000
  0.000000  0.500000  0.000000      1.000000
  0.166667  0.500000  0.000000      2.000000
  0.333333  0.500000  0.000000      2.000000
  0.500000  0.500000  0.000000      1.000000
  0.000000  0.000000  0.500000      1.000000
  0.166667  0.000000  0.500000      2.000000
  0.333333  0.000000  0.500000      2.000000
  0.500000  0.000000  0.500000      1.000000
  0.000000  0.166667  0.500000      2.000000
  0.166667  0.166667  0.500000      2.000000
  0.166667 -0.166667  0.500000      2.000000
  0.333333  0.166667  0.500000      2.000000
  0.333333 -0.166667  0.500000      2.000000
  0.500000  0.166667  0.500000      2.000000
  0.000000  0.333333  0.500000      2.000000
  0.166667  0.333333  0.500000      2.000000
  0.166667 -0.333333  0.500000      2.000000
  0.333333  0.333333  0.500000      2.000000
  0.333333 -0.333333  0.500000      2.000000
  0.500000  0.333333  0.500000      2.000000
  0.000000  0.500000  0.500000      1.000000
  0.166667  0.500000  0.500000      2.000000
  0.333333  0.500000  0.500000      2.000000
  0.500000  0.500000  0.500000      1.000000
 
 Following cartesian coordinates:
            Coordinates               Weight
  0.000000  0.000000  0.000000      1.000000
  0.043199  0.000000  0.000000      2.000000
  0.086398  0.000000  0.000000      2.000000
  0.129597  0.000000  0.000000      1.000000
  0.000000  0.036820  0.000000      2.000000
  0.043199  0.036820  0.000000      2.000000
  0.043199 -0.036820  0.000000      2.000000
  0.086398  0.036820  0.000000      2.000000
  0.086398 -0.036820  0.000000      2.000000
  0.129597  0.036820  0.000000      2.000000
  0.000000  0.073639  0.000000      2.000000
  0.043199  0.073639  0.000000      2.000000
  0.043199 -0.073639  0.000000      2.000000
  0.086398  0.073639  0.000000      2.000000
  0.086398 -0.073639  0.000000      2.000000
  0.129597  0.073639  0.000000      2.000000
  0.000000  0.110459  0.000000      1.000000
  0.043199  0.110459  0.000000      2.000000
  0.086398  0.110459  0.000000      2.000000
  0.129597  0.110459  0.000000      1.000000
  0.000000  0.000000  0.047236      1.000000
  0.043199  0.000000  0.047236      2.000000
  0.086398  0.000000  0.047236      2.000000
  0.129597  0.000000  0.047236      1.000000
  0.000000  0.036820  0.047236      2.000000
  0.043199  0.036820  0.047236      2.000000
  0.043199 -0.036820  0.047236      2.000000
  0.086398  0.036820  0.047236      2.000000
  0.086398 -0.036820  0.047236      2.000000
  0.129597  0.036820  0.047236      2.000000
  0.000000  0.073639  0.047236      2.000000
  0.043199  0.073639  0.047236      2.000000
  0.043199 -0.073639  0.047236      2.000000
  0.086398  0.073639  0.047236      2.000000
  0.086398 -0.073639  0.047236      2.000000
  0.129597  0.073639  0.047236      2.000000
  0.000000  0.110459  0.047236      1.000000
  0.043199  0.110459  0.047236      2.000000
  0.086398  0.110459  0.047236      2.000000
  0.129597  0.110459  0.047236      1.000000
 


--------------------------------------------------------------------------------------------------------




 Dimension of arrays:
   k-points           NKPTS =     40   k-points in BZ     NKDIM =     40   number of bands    NBANDS=     32
   number of dos      NEDOS =    301   number of ions     NIONS =      8
   non local maximal  LDIM  =      5   non local SUM 2l+1 LMDIM =     13
   total plane-waves  NPLWV =  21600
   max r-space proj   IRMAX =      1   max aug-charges    IRDMAX=   6549
   dimension x,y,z NGX =    18 NGY =   24 NGZ =   50
   dimension x,y,z NGXF=    36 NGYF=   48 NGZF=  100
   support grid    NGXF=    36 NGYF=   48 NGZF=  100
   ions per type =               4   4
   NGX,Y,Z   is equivalent  to a cutoff of   7.76,  8.81,  7.85 a.u.
   NGXF,Y,Z  is equivalent  to a cutoff of  15.51, 17.63, 15.71 a.u.

 SYSTEM =  ./                                      
 POSCAR =  Ge Se                                   

 Startparameter for this run:
   NWRITE =      2    write-flag & timer
   PREC   = normal    normal or accurate (medium, high low for compatibility)
   ISTART =      0    job   : 0-new  1-cont  2-samecut
   ICHARG =      2    charge: 1-file 2-atom 10-const
   ISPIN  =      1    spin polarized calculation?
   LNONCOLLINEAR =      F non collinear calculations
   LSORBIT =      F    spin-orbit coupling
   INIWAV =      1    electr: 0-lowe 1-rand  2-diag
   LASPH  =      T    aspherical Exc in radial PAW
 Electronic Relaxation 1
   ENCUT  =  360.0 eV  26.46 Ry    5.14 a.u.   5.97  7.00 16.38*2*pi/ulx,y,z
   ENINI  =  360.0     initial cutoff
   ENAUG  =  446.8 eV  augmentation charge cutoff
   NELM   =    100;   NELMIN=  2; NELMDL= -5     # of ELM steps 
   EDIFF  = 0.1E-05   stopping-criterion for ELM
   LREAL  =      F    real-space projection
   NLSPLINE    = F    spline interpolate recip. space projectors
   LCOMPAT=      F    compatible to vasp.4.4
   GGA_COMPAT  = T    GGA compatible to vasp.4.4-vasp.4.6
   LMAXPAW     = -100 max onsite density
   LMAXMIX     =    4 max onsite mixed and CHGCAR
   VOSKOWN=      0    Vosko Wilk Nusair interpolation
   ROPT   =    0.00000   0.00000
 Ionic relaxation
   EDIFFG = 0.1E-04   stopping-criterion for IOM
   NSW    =      0    number of steps for IOM
   NBLOCK =      1;   KBLOCK =      1    inner block; outer block 
   IBRION =     -1    ionic relax: 0-MD 1-quasi-New 2-CG
   NFREE  =      0    steps in history (QN), initial steepest desc. (CG)
   ISIF   =      2    stress and relaxation
   IWAVPR =     10    prediction:  0-non 1-charg 2-wave 3-comb
   ISYM   =      0    0-nonsym 1-usesym 2-fastsym
   LCORR  =      T    Harris-Foulkes like correction to forces

   POTIM  = 0.5000    time-step for ionic-motion
   TEIN   =    0.0    initial temperature
   TEBEG  =    0.0;   TEEND  =   0.0 temperature during run
   SMASS  =  -3.00    Nose mass-parameter (am)
   estimated Nose-frequenzy (Omega)   =  0.10E-29 period in steps = 0.13E+47 mass=  -0.340E-27a.u.
   SCALEE = 1.0000    scale energy and forces
   NPACO  =    256;   APACO  = 10.0  distance and # of slots for P.C.
   PSTRESS=    0.0 pullay stress

  Mass of Ions in am
   POMASS =  72.61 78.96
  Ionic Valenz
   ZVAL   =   4.00  6.00
  Atomic Wigner-Seitz radii
   RWIGS  =  -1.00 -1.00
  virtual crystal weights 
   VCA    =   1.00  1.00
   NELECT =      40.0000    total number of electrons
   NUPDOWN=      -1.0000    fix difference up-down

 DOS related values:
   EMIN   =  10.00;   EMAX   =-10.00  energy-range for DOS
   EFERMI =   0.00;   METHOD = LEGACY      
   ISMEAR =     0;   SIGMA  =   0.05  broadening in eV -4-tet -1-fermi 0-gaus

 Electronic relaxation 2 (details)
   IALGO  =     38    algorithm
   LDIAG  =      T    sub-space diagonalisation (order eigenvalues)
   LSUBROT=      F    optimize rotation matrix (better conditioning)
   TURBO    =      0    0=normal 1=particle mesh
   IRESTART =      0    0=no restart 2=restart with 2 vectors
   NREBOOT  =      0    no. of reboots
   NMIN     =      0    reboot dimension
   EREF     =   0.00    reference energy to select bands
   IMIX   =      4    mixing-type and parameters
     AMIX     =   0.40;   BMIX     =  1.00
     AMIX_MAG =   1.60;   BMIX_MAG =  1.00
     AMIN     =   0.10
     WC   =   100.;   INIMIX=   1;  MIXPRE=   1;  MAXMIX= -45

 Intra band minimization:
   WEIMIN = 0.0000     energy-eigenvalue tresh-hold
   EBREAK =  0.78E-08  absolut break condition
   DEPER  =   0.30     relativ break condition  

   TIME   =   0.40     timestep for ELM

  volume/ion in A,a.u.               =      23.11       155.94
  Fermi-wavevector in a.u.,A,eV,Ry     =   0.982836  1.857291 13.142773  0.965967
  Thomas-Fermi vector in A             =   2.113949
 
 Write flags
   LWAVE        =      F    write WAVECAR
   LDOWNSAMPLE  =      F    k-point downsampling of WAVECAR
   LCHARG       =      F    write CHGCAR
   LVTOT        =      F    write LOCPOT, total local potential
   LVHAR        =      F    write LOCPOT, Hartree potential only
   LELF         =      F    write electronic localiz. function (ELF)
   LORBIT       =      0    0 simple, 1 ext, 2 COOP (PROOUT), +10 PAW based schemes


 Dipole corrections
   LMONO  =      F    monopole corrections only (constant potential shift)
   LDIPOL =      F    correct potential (dipole corrections)
   IDIPOL =      0    1-x, 2-y, 3-z, 4-all directions 
   EPSILON=  1.0000000 bulk dielectric constant

 Exchange correlation treatment:
   GGA     =    PE    GGA type
   LEXCH   =     8    internal setting for exchange type
   LIBXC   =     F    Libxc                    
   VOSKOWN =     0    Vosko Wilk Nusair interpolation
   LHFCALC =     F    Hartree Fock is set to
   LHFONE  =     F    Hartree Fock one center treatment
   AEXX    =    0.0000 exact exchange contribution

 Linear response parameters
   LEPSILON=     F    determine dielectric tensor
   LRPA    =     F    only Hartree local field effects (RPA)
   LNABLA  =     F    use nabla operator in PAW spheres
   LVEL    =     F    velocity operator in full k-point grid
   CSHIFT  =0.1000    complex shift for real part using Kramers Kronig
   OMEGAMAX=  -1.0    maximum frequency
   DEG_THRESHOLD= 0.2000000E-02 threshold for treating states as degnerate
   RTIME   =   -0.100 relaxation time in fs
  (WPLASMAI=    0.000 imaginary part of plasma frequency in eV, 0.658/RTIME)
   DFIELD  = 0.0000000 0.0000000 0.0000000 field for delta impulse in time
 
  Optional k-point grid parameters
   LKPOINTS_OPT  =     F    use optional k-point grid
   KPOINTS_OPT_MODE=     1    mode for optional k-point grid
 
 Orbital magnetization related:
   ORBITALMAG=     F  switch on orbital magnetization
   LCHIMAG   =     F  perturbation theory with respect to B field
   DQ        =  0.001000  dq finite difference perturbation B field
   LLRAUG    =     F  two centre corrections for induced B field
   LBONE     =     F  B-component reconstruction in AE one-centre
   LVGVCALC  =     T  calculate vGv susceptibility
   LVGVAPPL  =     F  apply vGv susceptibility instead of pGv for G=0

 Random number generation:
   RANDOM_GENERATOR = DEFAULT
   PCG_SEED         = not used


--------------------------------------------------------------------------------------------------------


 Static calculation
 charge density and potential will be updated during run
 non-spin polarized calculation
 Variant of blocked Davidson
 Davidson routine will perform the subspace rotation
 perform sub-space diagonalisation
    after iterative eigenvector-optimisation
 modified Broyden-mixing scheme, WC =      100.0
 initial mixing is a Kerker type mixing with AMIX =  0.4000 and BMIX =      1.0000
 Hartree-type preconditioning will be used
 using additional bands            12
 reciprocal scheme for non local part
 use partial core corrections
 calculate Harris-corrections to forces 
   (improved forces if not selfconsistent)
 use gradient corrections 
 use of overlap-Matrix (Vanderbilt PP)
 Gauss-broadening in eV      SIGMA  =   0.05


--------------------------------------------------------------------------------------------------------


  energy-cutoff  :      360.00
  volume of cell :      184.86
      direct lattice vectors                 reciprocal lattice vectors
     3.858100176  0.000000000  0.000000000     0.259194929  0.000000000  0.000000000
     0.000000000  4.526575088  0.000000000     0.000000000  0.220917577  0.000000000
     0.000000000  0.000000000 10.585176468     0.000000000  0.000000000  0.094471736

  length of vectors
     3.858100176  4.526575088 10.585176468     0.259194929  0.220917577  0.094471736


 
 k-points in units of 2pi/SCALE and weight: KPOINTS created by Atomic Simulation Env
   0.00000000  0.00000000  0.00000000       0.014
   0.04319915  0.00000000  0.00000000       0.028
   0.08639831  0.00000000  0.00000000       0.028
   0.12959746  0.00000000  0.00000000       0.014
   0.00000000  0.03681960  0.00000000       0.028
   0.04319915  0.03681960  0.00000000       0.028
   0.04319915 -0.03681960  0.00000000       0.028
   0.08639831  0.03681960  0.00000000       0.028
   0.08639831 -0.03681960  0.00000000       0.028
   0.12959746  0.03681960  0.00000000       0.028
   0.00000000  0.07363919  0.00000000       0.028
   0.04319915  0.07363919  0.00000000       0.028
   0.04319915 -0.07363919  0.00000000       0.028
   0.08639831  0.07363919  0.00000000       0.028
   0.08639831 -0.07363919  0.00000000       0.028
   0.12959746  0.07363919  0.00000000       0.028
   0.00000000  0.11045879  0.00000000       0.014
   0.04319915  0.11045879  0.00000000       0.028
   0.08639831  0.11045879  0.00000000       0.028
   0.12959746  0.11045879  0.00000000       0.014
   0.00000000  0.00000000  0.04723587       0.014
   0.04319915  0.00000000  0.04723587       0.028
   0.08639831  0.00000000  0.04723587       0.028
   0.12959746  0.00000000  0.04723587       0.014
   0.00000000  0.03681960  0.04723587       0.028
   0.04319915  0.03681960  0.04723587       0.028
   0.04319915 -0.03681960  0.04723587       0.028
   0.08639831  0.03681960  0.04723587       0.028
   0.08639831 -0.03681960  0.04723587       0.028
   0.12959746  0.03681960  0.04723587       0.028
   0.00000000  0.07363919  0.04723587       0.028
   0.04319915  0.07363919  0.04723587       0.028
   0.04319915 -0.07363919  0.04723587       0.028
   0.08639831  0.07363919  0.04723587       0.028
   0.08639831 -0.07363919  0.04723587       0.028
   0.12959746  0.07363919  0.04723587       0.028
   0.00000000  0.11045879  0.04723587       0.014
   0.04319915  0.11045879  0.04723587       0.028
   0.08639831  0.11045879  0.04723587       0.028
   0.12959746  0.11045879  0.04723587       0.014
 
 k-points in reciprocal lattice and weights: KPOINTS created by Atomic Simulation Env
   0.00000000  0.00000000  0.00000000       0.014
   0.16666667  0.00000000  0.00000000       0.028
   0.33333333  0.00000000  0.00000000       0.028
   0.50000000  0.00000000  0.00000000       0.014
   0.00000000  0.16666667  0.00000000       0.028
   0.16666667  0.16666667  0.00000000       0.028
   0.16666667 -0.16666667  0.00000000       0.028
   0.33333333  0.16666667  0.00000000       0.028
   0.33333333 -0.16666667  0.00000000       0.028
   0.50000000  0.16666667  0.00000000       0.028
   0.00000000  0.33333333  0.00000000       0.028
   0.16666667  0.33333333  0.00000000       0.028
   0.16666667 -0.33333333  0.00000000       0.028
   0.33333333  0.33333333  0.00000000       0.028
   0.33333333 -0.33333333  0.00000000       0.028
   0.50000000  0.33333333  0.00000000       0.028
   0.00000000  0.50000000  0.00000000       0.014
   0.16666667  0.50000000  0.00000000       0.028
   0.33333333  0.50000000  0.00000000       0.028
   0.50000000  0.50000000  0.00000000       0.014
   0.00000000  0.00000000  0.50000000       0.014
   0.16666667  0.00000000  0.50000000       0.028
   0.33333333  0.00000000  0.50000000       0.028
   0.50000000  0.00000000  0.50000000       0.014
   0.00000000  0.16666667  0.50000000       0.028
   0.16666667  0.16666667  0.50000000       0.028
   0.16666667 -0.16666667  0.50000000       0.028
   0.33333333  0.16666667  0.50000000       0.028
   0.33333333 -0.16666667  0.50000000       0.028
   0.50000000  0.16666667  0.50000000       0.028
   0.00000000  0.33333333  0.50000000       0.028
   0.16666667  0.33333333  0.50000000       0.028
   0.16666667 -0.33333333  0.50000000       0.028
   0.33333333  0.33333333  0.50000000       0.028
   0.33333333 -0.33333333  0.50000000       0.028
   0.50000000  0.33333333  0.50000000       0.028
   0.00000000  0.50000000  0.50000000       0.014
   0.16666667  0.50000000  0.50000000       0.028
   0.33333333  0.50000000  0.50000000       0.028
   0.50000000  0.50000000  0.50000000       0.014
 
 position of ions in fractional coordinates (direct lattice) 
   0.33695623  0.88731206  0.11629323
   0.83695628  0.38731209  0.38370666
   0.74999953  0.88080355  0.88370670
   0.24999891  0.38080359  0.61629330
   0.33695630  0.76305715  0.35452175
   0.83695618  0.26305725  0.14547826
   0.74999912  0.00505836  0.64547820
   0.24999942  0.50505845  0.85452174
 
 position of ions in cartesian coordinates  (Angst):
   1.30001089  4.01648469  1.23098441
   3.22906117  1.75319726  4.06160274
   2.89357331  3.98702340  9.35419135
   0.96452085  1.72373604  6.52357335
   1.30001117  3.45403550  3.75267533
   3.22906079  1.19074841  1.53991301
   2.89357173  0.02289706  6.83250071
   0.96452282  2.28618498  9.04526339
 


--------------------------------------------------------------------------------------------------------


 k-point   1 :   0.0000 0.0000 0.0000  plane waves:    2825
 k-point   2 :   0.1667 0.0000 0.0000  plane waves:    2856
 k-point   3 :   0.3333 0.0000 0.0000  plane waves:    2864
 k-point   4 :   0.5000 0.0000 0.0000  plane waves:    2880
 k-point   5 :   0.0000 0.1667 0.0000  plane waves:    2850
 k-point   6 :   0.1667 0.1667 0.0000  plane waves:    2853
 k-point   7 :   0.1667-0.1667 0.0000  plane waves:    2853
 k-point   8 :   0.3333 0.1667 0.0000  plane waves:    2873
 k-point   9 :   0.3333-0.1667 0.0000  plane waves:    2873
 k-point  10 :   0.5000 0.1667 0.0000  plane waves:    2866
 k-point  11 :   0.0000 0.3333 0.0000  plane waves:    2864
 k-point  12 :   0.1667 0.3333 0.0000  plane waves:    2871
 k-point  13 :   0.1667-0.3333 0.0000  plane waves:    2871
 k-point  14 :   0.3333 0.3333 0.0000  plane waves:    2883
 k-point  15 :   0.3333-0.3333 0.0000  plane waves:    2883
 k-point  16 :   0.5000 0.3333 0.0000  plane waves:    2880
 k-point  17 :   0.0000 0.5000 0.0000  plane waves:    2874
 k-point  18 :   0.1667 0.5000 0.0000  plane waves:    2880
 k-point  19 :   0.3333 0.5000 0.0000  plane waves:    2888
 k-point  20 :   0.5000 0.5000 0.0000  plane waves:    2896
 k-point  21 :   0.0000 0.0000 0.5000  plane waves:    2828
 k-point  22 :   0.1667 0.0000 0.5000  plane waves:    2838
 k-point  23 :   0.3333 0.0000 0.5000  plane waves:    2868
 k-point  24 :   0.5000 0.0000 0.5000  plane waves:    2852
 k-point  25 :   0.0000 0.1667 0.5000  plane waves:    2846
 k-point  26 :   0.1667 0.1667 0.5000  plane waves:    2868
 k-point  27 :   0.1667-0.1667 0.5000  plane waves:    2868
 k-point  28 :   0.3333 0.1667 0.5000  plane waves:    2866
 k-point  29 :   0.3333-0.1667 0.5000  plane waves:    2866
 k-point  30 :   0.5000 0.1667 0.5000  plane waves:    2884
 k-point  31 :   0.0000 0.3333 0.5000  plane waves:    2852
 k-point  32 :   0.1667 0.3333 0.5000  plane waves:    2862
 k-point  33 :   0.1667-0.3333 0.5000  plane waves:    2862
 k-point  34 :   0.3333 0.3333 0.5000  plane waves:    2874
 k-point  35 :   0.3333-0.3333 0.5000  plane waves:    2874
 k-point  36 :   0.5000 0.3333 0.5000  plane waves:    2892
 k-point  37 :   0.0000 0.5000 0.5000  plane waves:    2872
 k-point  38 :   0.1667 0.5000 0.5000  plane waves:    2856
 k-point  39 :   0.3333 0.5000 0.5000  plane waves:    2876
 k-point  40 :   0.5000 0.5000 0.5000  plane waves:    2872

 maximum and minimum number of plane-waves per node :       592      553

 maximum number of plane-waves:      2896
 maximum index in each direction: 
   IXMAX=    5   IYMAX=    7   IZMAX=   16
   IXMIN=   -6   IYMIN=   -7   IZMIN=  -16


 parallel 3D FFT for wavefunctions:
    minimum data exchange during FFTs selected (reduces bandwidth)
 parallel 3D FFT for charge:
    minimum data exchange during FFTs selected (reduces bandwidth)


 total amount of memory used by VASP MPI-rank0    36587. kBytes
=======================================================================

   base      :      30000. kBytes
   nonl-proj :       5001. kBytes
   fftplans  :        306. kBytes
   grid      :        466. kBytes
   one-center:         16. kBytes
   wavefun   :        798. kBytes
 
     INWAV:  cpu time      0.0000: real time      0.0001
 Broyden mixing: mesh for mixing (old mesh)
   NGX = 11   NGY = 15   NGZ = 33
  (NGX  = 36   NGY  = 48   NGZ  =100)
  gives a total of   5445 points

 initial charge density was supplied:
 charge density of overlapping atoms calculated
 number of electron      40.0000000 magnetization 
 keeping initial charge density in first step


--------------------------------------------------------------------------------------------------------


 Maximum index for augmentation-charges           297 (set IRDMAX)


--------------------------------------------------------------------------------------------------------


 First call to EWALD:  gamma=   0.311
 Maximum number of real-space cells 4x 3x 2
 Maximum number of reciprocal cells 2x 2x 5

    FEWALD:  cpu time      0.0014: real time      0.0014


--------------------------------------- Ionic step        1  -------------------------------------------




--------------------------------------- Iteration      1(   1)  ---------------------------------------


    POTLOK:  cpu time      0.0084: real time      0.0084
    SETDIJ:  cpu time      0.2187: real time      0.2193
     EDDAV:  cpu time      0.3084: real time      0.3098
       DOS:  cpu time      0.0011: real time      0.0011
    --------------------------------------------
      LOOP:  cpu time      0.5364: real time      0.5386

 eigenvalue-minimisations  :  2560
 total energy-change (2. order) : 0.1300120E+03  (-0.1299802E+04)
 number of electron      40.0000000 magnetization 
 augmentation part       40.0000000 magnetization 

 Free energy of the ion-electron system (eV)
  ---------------------------------------------------
  alpha Z        PSCENC =        91.66130333
  Ewald energy   TEWEN  =     -1451.01324261
  -Hartree energ DENC   =      -113.22498436
  -exchange      EXHF   =         0.00000000
  -V(xc)+E(xc)   XCENC  =       -32.79938141
  PAW double counting   =      1193.78262552    -1080.73714043
  entropy T*S    EENTRO =        -0.00191080
  eigenvalues    EBANDS =        73.86016261
  atomic energy  EATOM  =      1448.48460880
  Solvation  Ediel_sol  =         0.00000000
  ---------------------------------------------------
  free energy    TOTEN  =       130.01204064 eV

  energy without entropy =      130.01395144  energy(sigma->0) =      130.01299604


--------------------------------------------------------------------------------------------------------




--------------------------------------- Iteration      1(   2)  ---------------------------------------


     EDDAV:  cpu time      0.4911: real time      0.4940
       DOS:  cpu time      0.0011: real time      0.0011
    --------------------------------------------
      LOOP:  cpu time      0.4922: real time      0.4951

 eigenvalue-minimisations  :  3744
 total energy-change (2. order) :-0.1553135E+03  (-0.1509862E+03)
 number of electron      40.0000000 magnetization 
 augmentation part       40.0000000 magnetization 

 Free energy of the ion-electron system (eV)
  ---------------------------------------------------
  alpha Z        PSCENC =        91.66130333
  Ewald energy   TEWEN  =     -1451.01324261
  -Hartree energ DENC   =      -113.22498436
  -exchange      EXHF   =         0.00000000
  -V(xc)+E(xc)   XCENC  =       -32.79938141
  PAW double counting   =      1193.78262552    -1080.73714043
  entropy T*S    EENTRO =        -0.00000000
  eigenvalues    EBANDS =       -81.45526126
  atomic energy  EATOM  =      1448.48460880
  Solvation  Ediel_sol  =         0.00000000
  ---------------------------------------------------
  free energy    TOTEN  =       -25.30147243 eV

  energy without entropy =      -25.30147243  energy(sigma->0) =      -25.30147243


--------------------------------------------------------------------------------------------------------




--------------------------------------- Iteration      1(   3)  ---------------------------------------


     EDDAV:  cpu time      0.5045: real time      0.5070
       DOS:  cpu time      0.0022: real time      0.0022
    --------------------------------------------
      LOOP:  cpu time      0.5066: real time      0.5092

 eigenvalue-minimisations  :  3264
 total energy-change (2. order) :-0.8237284E+01  (-0.8221548E+01)
 number of electron      40.0000000 magnetization 
 augmentation part       40.0000000 magnetization 

 Free energy of the ion-electron system (eV)
  ---------------------------------------------------
  alpha Z        PSCENC =        91.66130333
  Ewald energy   TEWEN  =     -1451.01324261
  -Hartree energ DENC   =      -113.22498436
  -exchange      EXHF   =         0.00000000
  -V(xc)+E(xc)   XCENC  =       -32.79938141
  PAW double counting   =      1193.78262552    -1080.73714043
  entropy T*S    EENTRO =        -0.00000000
  eigenvalues    EBANDS =       -89.69254537
  atomic energy  EATOM  =      1448.48460880
  Solvation  Ediel_sol  =         0.00000000
  ---------------------------------------------------
  free energy    TOTEN  =       -33.53875654 eV

  energy without entropy =      -33.53875654  energy(sigma->0) =      -33.53875654


--------------------------------------------------------------------------------------------------------




--------------------------------------- Iteration      1(   4)  ---------------------------------------


     EDDAV:  cpu time      0.4180: real time      0.4202
       DOS:  cpu time      0.0006: real time      0.0006
    --------------------------------------------
      LOOP:  cpu time      0.4185: real time      0.4208

 eigenvalue-minimisations  :  3280
 total energy-change (2. order) :-0.5176395E-01  (-0.5175807E-01)
 number of electron      40.0000000 magnetization 
 augmentation part       40.0000000 magnetization 

 Free energy of the ion-electron system (eV)
  ---------------------------------------------------
  alpha Z        PSCENC =        91.66130333
  Ewald energy   TEWEN  =     -1451.01324261
  -Hartree energ DENC   =      -113.22498436
  -exchange      EXHF   =         0.00000000
  -V(xc)+E(xc)   XCENC  =       -32.79938141
  PAW double counting   =      1193.78262552    -1080.73714043
  entropy T*S    EENTRO =        -0.00000000
  eigenvalues    EBANDS =       -89.74430932
  atomic energy  EATOM  =      1448.48460880
  Solvation  Ediel_sol  =         0.00000000
  ---------------------------------------------------
  free energy    TOTEN  =       -33.59052049 eV

  energy without entropy =      -33.59052049  energy(sigma->0) =      -33.59052049


--------------------------------------------------------------------------------------------------------




--------------------------------------- Iteration      1(   5)  ---------------------------------------


     EDDAV:  cpu time      0.4005: real time      0.4030
       DOS:  cpu time      0.0005: real time      0.0005
    CHARGE:  cpu time      0.0058: real time      0.0058
    MIXING:  cpu time      0.0004: real time      0.0004
    --------------------------------------------
      LOOP:  cpu time      0.4072: real time      0.4097

 eigenvalue-minimisations  :  3296
 total energy-change (2. order) :-0.3066002E-03  (-0.3065976E-03)
 number of electron      40.0000037 magnetization 
 augmentation part       -7.4014586 magnetization 

 Broyden mixing:
  rms(total) = 0.67232E+00    rms(broyden)= 0.67230E+00
  rms(prec ) = 0.75360E+00
  weight for this iteration     100.00

 Free energy of the ion-electron system (eV)
  ---------------------------------------------------
  alpha Z        PSCENC =        91.66130333
  Ewald energy   TEWEN  =     -1451.01324261
  -Hartree energ DENC   =      -113.22498436
  -exchange      EXHF   =         0.00000000
  -V(xc)+E(xc)   XCENC  =       -32.79938141
  PAW double counting   =      1193.78262552    -1080.73714043
  entropy T*S    EENTRO =        -0.00000000
  eigenvalues    EBANDS =       -89.74461592
  atomic energy  EATOM  =      1448.48460880
  Solvation  Ediel_sol  =         0.00000000
  ---------------------------------------------------
  free energy    TOTEN  =       -33.59082709 eV

  energy without entropy =      -33.59082709  energy(sigma->0) =      -33.59082709


--------------------------------------------------------------------------------------------------------




--------------------------------------- Iteration      1(   6)  ---------------------------------------


    POTLOK:  cpu time      0.0073: real time      0.0075
    SETDIJ:  cpu time      0.2181: real time      0.2185
     EDDAV:  cpu time      0.3633: real time      0.3652
       DOS:  cpu time      0.0006: real time      0.0006
    CHARGE:  cpu time      0.0051: real time      0.0052
    MIXING:  cpu time      0.0005: real time      0.0005
    --------------------------------------------
      LOOP:  cpu time      0.5948: real time      0.5974

 eigenvalue-minimisations  :  3184
 total energy-change (2. order) : 0.3411836E+00  (-0.6721262E-01)
 number of electron      40.0000036 magnetization 
 augmentation part       -7.3529385 magnetization 

 Broyden mixing:
  rms(total) = 0.42260E+00    rms(broyden)= 0.42260E+00
  rms(prec ) = 0.44524E+00
  weight for this iteration     100.00

 eigenvalues of (default mixing * dielectric matrix)
  average eigenvalue GAMMA=   2.2779
  2.2779

 Free energy of the ion-electron system (eV)
  ---------------------------------------------------
  alpha Z        PSCENC =        91.66130333
  Ewald energy   TEWEN  =     -1451.01324261
  -Hartree energ DENC   =      -118.64632364
  -exchange      EXHF   =         0.00000000
  -V(xc)+E(xc)   XCENC  =       -32.21786594
  PAW double counting   =      1473.02773914    -1360.31567303
  entropy T*S    EENTRO =        -0.00000000
  eigenvalues    EBANDS =       -84.23018953
  atomic energy  EATOM  =      1448.48460880
  Solvation  Ediel_sol  =         0.00000000
  ---------------------------------------------------
  free energy    TOTEN  =       -33.24964348 eV

  energy without entropy =      -33.24964348  energy(sigma->0) =      -33.24964348


--------------------------------------------------------------------------------------------------------




--------------------------------------- Iteration      1(   7)  ---------------------------------------


    POTLOK:  cpu time      0.0073: real time      0.0074
    SETDIJ:  cpu time      0.2207: real time      0.2212
     EDDAV:  cpu time      0.3439: real time      0.3459
       DOS:  cpu time      0.0006: real time      0.0006
    CHARGE:  cpu time      0.0053: real time      0.0054
    MIXING:  cpu time      0.0005: real time      0.0005
    --------------------------------------------
      LOOP:  cpu time      0.5783: real time      0.5810

 eigenvalue-minimisations  :  2848
 total energy-change (2. order) : 0.1862596E-01  (-0.2097026E-01)
 number of electron      40.0000036 magnetization 
 augmentation part       -7.3384859 magnetization 

 Broyden mixing:
  rms(total) = 0.12032E+00    rms(broyden)= 0.12032E+00
  rms(prec ) = 0.12902E+00
  weight for this iteration     100.00

 eigenvalues of (default mixing * dielectric matrix)
  average eigenvalue GAMMA=   1.7846
  1.1792  2.3901

 Free energy of the ion-electron system (eV)
  ---------------------------------------------------
  alpha Z        PSCENC =        91.66130333
  Ewald energy   TEWEN  =     -1451.01324261
  -Hartree energ DENC   =      -121.43391302
  -exchange      EXHF   =         0.00000000
  -V(xc)+E(xc)   XCENC  =       -31.73670546
  PAW double counting   =      1833.64718889    -1721.20704406
  entropy T*S    EENTRO =        -0.00000000
  eigenvalues    EBANDS =       -81.63321338
  atomic energy  EATOM  =      1448.48460880
  Solvation  Ediel_sol  =         0.00000000
  ---------------------------------------------------
  free energy    TOTEN  =       -33.23101752 eV

  energy without entropy =      -33.23101752  energy(sigma->0) =      -33.23101752


--------------------------------------------------------------------------------------------------------




--------------------------------------- Iteration      1(   8)  ---------------------------------------


    POTLOK:  cpu time      0.0073: real time      0.0074
    SETDIJ:  cpu time      0.2178: real time      0.2183
     EDDAV:  cpu time      0.3637: real time      0.3652
       DOS:  cpu time      0.0006: real time      0.0006
    CHARGE:  cpu time      0.0054: real time      0.0054
    MIXING:  cpu time      0.0005: real time      0.0005
    --------------------------------------------
      LOOP:  cpu time      0.5951: real time      0.5973

 eigenvalue-minimisations  :  2944
 total energy-change (2. order) : 0.1665958E-02  (-0.1832214E-02)
 number of electron      40.0000036 magnetization 
 augmentation part       -7.3448773 magnetization 

 Broyden mixing:
  rms(total) = 0.18141E-01    rms(broyden)= 0.18141E-01
  rms(prec ) = 0.21701E-01
  weight for this iteration     100.00

 eigenvalues of (default mixing * dielectric matrix)
  average eigenvalue GAMMA=   1.7028
  2.5214  1.2935  1.2935

 Free energy of the ion-electron system (eV)
  ---------------------------------------------------
  alpha Z        PSCENC =        91.66130333
  Ewald energy   TEWEN  =     -1451.01324261
  -Hartree energ DENC   =      -121.55297672
  -exchange      EXHF   =         0.00000000
  -V(xc)+E(xc)   XCENC  =       -31.61269188
  PAW double counting   =      1966.15859382    -1853.78188070
  entropy T*S    EENTRO =        -0.00000000
  eigenvalues    EBANDS =       -81.57306559
  atomic energy  EATOM  =      1448.48460880
  Solvation  Ediel_sol  =         0.00000000
  ---------------------------------------------------
  free energy    TOTEN  =       -33.22935156 eV

  energy without entropy =      -33.22935156  energy(sigma->0) =      -33.22935156


--------------------------------------------------------------------------------------------------------




--------------------------------------- Iteration      1(   9)  ---------------------------------------


    POTLOK:  cpu time      0.0073: real time      0.0075
    SETDIJ:  cpu time      0.2170: real time      0.2177
     EDDAV:  cpu time      0.3974: real time      0.3995
       DOS:  cpu time      0.0005: real time      0.0005
    CHARGE:  cpu time      0.0052: real time      0.0052
    MIXING:  cpu time      0.0004: real time      0.0004
    --------------------------------------------
      LOOP:  cpu time      0.6278: real time      0.6308

 eigenvalue-minimisations  :  3296
 total energy-change (2. order) :-0.2826383E-03  (-0.2774457E-03)
 number of electron      40.0000036 magnetization 
 augmentation part       -7.3445534 magnetization 

 Broyden mixing:
  rms(total) = 0.65852E-02    rms(broyden)= 0.65852E-02
  rms(prec ) = 0.72514E-02
  weight for this iteration     100.00

 eigenvalues of (default mixing * dielectric matrix)
  average eigenvalue GAMMA=   1.6942
  2.2130  2.2130  1.1755  1.1755

 Free energy of the ion-electron system (eV)
  ---------------------------------------------------
  alpha Z        PSCENC =        91.66130333
  Ewald energy   TEWEN  =     -1451.01324261
  -Hartree energ DENC   =      -121.78302629
  -exchange      EXHF   =         0.00000000
  -V(xc)+E(xc)   XCENC  =       -31.57752827
  PAW double counting   =      1981.85126999    -1869.48351865
  entropy T*S    EENTRO =        -0.00000000
  eigenvalues    EBANDS =       -81.36950049
  atomic energy  EATOM  =      1448.48460880
  Solvation  Ediel_sol  =         0.00000000
  ---------------------------------------------------
  free energy    TOTEN  =       -33.22963420 eV

  energy without entropy =      -33.22963420  energy(sigma->0) =      -33.22963420


--------------------------------------------------------------------------------------------------------




--------------------------------------- Iteration      1(  10)  ---------------------------------------


    POTLOK:  cpu time      0.0073: real time      0.0074
    SETDIJ:  cpu time      0.2186: real time      0.2190
     EDDAV:  cpu time      0.3814: real time      0.3834
       DOS:  cpu time      0.0004: real time      0.0004
    CHARGE:  cpu time      0.0051: real time      0.0051
    MIXING:  cpu time      0.0005: real time      0.0005
    --------------------------------------------
      LOOP:  cpu time      0.6133: real time      0.6158

 eigenvalue-minimisations  :  3312
 total energy-change (2. order) :-0.6766634E-04  (-0.2054989E-04)
 number of electron      40.0000036 magnetization 
 augmentation part       -7.3445743 magnetization 

 Broyden mixing:
  rms(total) = 0.23392E-02    rms(broyden)= 0.23392E-02
  rms(prec ) = 0.29198E-02
  weight for this iteration     100.00

 eigenvalues of (default mixing * dielectric matrix)
  average eigenvalue GAMMA=   1.7260
  2.6326  2.2749  1.1652  1.2787  1.2787

 Free energy of the ion-electron system (eV)
  ---------------------------------------------------
  alpha Z        PSCENC =        91.66130333
  Ewald energy   TEWEN  =     -1451.01324261
  -Hartree energ DENC   =      -121.80774449
  -exchange      EXHF   =         0.00000000
  -V(xc)+E(xc)   XCENC  =       -31.57545097
  PAW double counting   =      1975.30130621    -1862.92874287
  entropy T*S    EENTRO =        -0.00000000
  eigenvalues    EBANDS =       -81.35173926
  atomic energy  EATOM  =      1448.48460880
  Solvation  Ediel_sol  =         0.00000000
  ---------------------------------------------------
  free energy    TOTEN  =       -33.22970187 eV

  energy without entropy =      -33.22970187  energy(sigma->0) =      -33.22970187


--------------------------------------------------------------------------------------------------------




--------------------------------------- Iteration      1(  11)  ---------------------------------------


    POTLOK:  cpu time      0.0073: real time      0.0074
    SETDIJ:  cpu time      0.2167: real time      0.2172
     EDDAV:  cpu time      0.3245: real time      0.3260
       DOS:  cpu time      0.0005: real time      0.0005
    CHARGE:  cpu time      0.0051: real time      0.0051
    MIXING:  cpu time      0.0005: real time      0.0005
    --------------------------------------------
      LOOP:  cpu time      0.5546: real time      0.5566

 eigenvalue-minimisations  :  2832
 total energy-change (2. order) :-0.2458466E-04  (-0.3528422E-05)
 number of electron      40.0000036 magnetization 
 augmentation part       -7.3446937 magnetization 

 Broyden mixing:
  rms(total) = 0.11774E-02    rms(broyden)= 0.11774E-02
  rms(prec ) = 0.12848E-02
  weight for this iteration     100.00

 eigenvalues of (default mixing * dielectric matrix)
  average eigenvalue GAMMA=   1.7016
  2.5626  2.1559  2.1559  1.2169  1.2169  0.9015

 Free energy of the ion-electron system (eV)
  ---------------------------------------------------
  alpha Z        PSCENC =        91.66130333
  Ewald energy   TEWEN  =     -1451.01324261
  -Hartree energ DENC   =      -121.83634259
  -exchange      EXHF   =         0.00000000
  -V(xc)+E(xc)   XCENC  =       -31.56950365
  PAW double counting   =      1976.79483031    -1864.42261891
  entropy T*S    EENTRO =        -0.00000000
  eigenvalues    EBANDS =       -81.32876112
  atomic energy  EATOM  =      1448.48460880
  Solvation  Ediel_sol  =         0.00000000
  ---------------------------------------------------
  free energy    TOTEN  =       -33.22972645 eV

  energy without entropy =      -33.22972645  energy(sigma->0) =      -33.22972645


--------------------------------------------------------------------------------------------------------




--------------------------------------- Iteration      1(  12)  ---------------------------------------


    POTLOK:  cpu time      0.0074: real time      0.0076
    SETDIJ:  cpu time      0.2185: real time      0.2190
     EDDAV:  cpu time      0.4178: real time      0.4198
       DOS:  cpu time      0.0005: real time      0.0005
    --------------------------------------------
      LOOP:  cpu time      0.6442: real time      0.6469

 eigenvalue-minimisations  :  3536
 total energy-change (2. order) :-0.8948498E-06  (-0.4586612E-06)
 number of electron      40.0000036 magnetization 
 augmentation part       -7.3446937 magnetization 

 Free energy of the ion-electron system (eV)
  ---------------------------------------------------
  alpha Z        PSCENC =        91.66130333
  Ewald energy   TEWEN  =     -1451.01324261
  -Hartree energ DENC   =      -121.85065101
  -exchange      EXHF   =         0.00000000
  -V(xc)+E(xc)   XCENC  =       -31.56856228
  PAW double counting   =      1976.10578560    -1863.73334939
  entropy T*S    EENTRO =        -0.00000000
  eigenvalues    EBANDS =       -81.31561978
  atomic energy  EATOM  =      1448.48460880
  Solvation  Ediel_sol  =         0.00000000
  ---------------------------------------------------
  free energy    TOTEN  =       -33.22972735 eV

  energy without entropy =      -33.22972735  energy(sigma->0) =      -33.22972735


--------------------------------------------------------------------------------------------------------




 average (electrostatic) potential at core
  the test charge radii are     1.1631  1.0808
  (the norm of the test charge is              1.0000)
       1 -33.0801       2 -33.0801       3 -33.0801       4 -33.0801       5 -54.6107
       6 -54.6108       7 -54.6108       8 -54.6108
 
 
 
 E-fermi :   3.9149     XC(G=0):  -9.5028     alpha+bet : -9.1315

 Fermi energy:         3.9149434945

 k-point     1 :       0.0000    0.0000    0.0000
  band No.  band energies     occupation 
      1     -10.7365      2.00000
      2     -10.2880      2.00000
      3      -9.4328      2.00000
      4      -8.8209      2.00000
      5      -4.8384      2.00000
      6      -3.5484      2.00000
      7      -2.9903      2.00000
      8      -1.7119      2.00000
      9      -1.3496      2.00000
     10      -0.0305      2.00000
     11       0.2551      2.00000
     12       0.3049      2.00000
     13       0.3635      2.00000
     14       0.8581      2.00000
     15       1.6139      2.00000
     16       2.0571      2.00000
     17       2.3056      2.00000
     18       2.9259      2.00000
     19       2.9590      2.00000
     20       3.2533      2.00000
     21       4.4608      0.00000
     22       5.4709      0.00000
     23       6.1329      0.00000
     24       6.2777      0.00000
     25       6.5957      0.00000
     26       6.7264      0.00000
     27       7.8194      0.00000
     28       8.0480      0.00000
     29       8.3731      0.00000
     30       8.5409      0.00000
     31       8.9939      0.00000
     32       9.6857      0.00000

 k-point     2 :       0.1667    0.0000    0.0000
  band No.  band energies     occupation 
      1     -10.5415      2.00000
      2     -10.1136      2.00000
      3      -9.3069      2.00000
      4      -8.7777      2.00000
      5      -4.9872      2.00000
      6      -3.8428      2.00000
      7      -3.1156      2.00000
      8      -2.3880      2.00000
      9      -1.3325      2.00000
     10      -0.0394      2.00000
     11       0.1275      2.00000
     12       0.3840      2.00000
     13       0.4931      2.00000
     14       0.6048      2.00000
     15       1.5386      2.00000
     16       1.7511      2.00000
     17       2.4436      2.00000
     18       2.7659      2.00000
     19       3.1037      2.00000
     20       3.2072      2.00000
     21       4.6761      0.00000
     22       5.3125      0.00000
     23       5.9658      0.00000
     24       6.5377      0.00000
     25       6.7437      0.00000
     26       7.0529      0.00000
     27       7.1124      0.00000
     28       7.6249      0.00000
     29       8.3411      0.00000
     30       8.4330      0.00000
     31       8.6931      0.00000
     32       8.7405      0.00000

 k-point     3 :       0.3333    0.0000    0.0000
  band No.  band energies     occupation 
      1     -10.0038      2.00000
      2      -9.6533      2.00000
      3      -9.0828      2.00000
      4      -8.8247      2.00000
      5      -5.2942      2.00000
      6      -4.3322      2.00000
      7      -4.0609      2.00000
      8      -3.3922      2.00000
      9      -1.0340      2.00000
     10      -0.0985      2.00000
     11       0.1163      2.00000
     12       0.7352      2.00000
     13       0.9165      2.00000
     14       1.0928      2.00000
     15       1.2445      2.00000
     16       1.8400      2.00000
     17       2.0820      2.00000
     18       2.4564      2.00000
     19       2.9929      2.00000
     20       3.0719      2.00000
     21       4.3149      0.00000
     22       5.0337      0.00000
     23       5.2016      0.00000
     24       5.5622      0.00000
     25       5.8035      0.00000
     26       5.9565      0.00000
     27       6.6490      0.00000
     28       7.3026      0.00000
     29       7.4553      0.00000
     30       8.2654      0.00000
     31       8.3524      0.00000
     32       9.0805      0.00000

 k-point     4 :       0.5000    0.0000    0.0000
  band No.  band energies     occupation 
      1      -9.3175      2.00000
      2      -9.3175      2.00000
      3      -9.1523      2.00000
      4      -9.1523      2.00000
      5      -5.0898      2.00000
      6      -5.0898      2.00000
      7      -4.1860      2.00000
      8      -4.1860      2.00000
      9      -0.3579      2.00000
     10      -0.3579      2.00000
     11       0.5830      2.00000
     12       0.5830      2.00000
     13       1.2848      2.00000
     14       1.2848      2.00000
     15       1.6728      2.00000
     16       1.6728      2.00000
     17       1.9730      2.00000
     18       1.9730      2.00000
     19       2.6948      2.00000
     20       2.6948      2.00000
     21       4.6166      0.00000
     22       4.6166      0.00000
     23       4.9296      0.00000
     24       4.9296      0.00000
     25       5.7378      0.00000
     26       5.7378      0.00000
     27       6.1980      0.00000
     28       6.1980      0.00000
     29       7.3916      0.00000
     30       7.3916      0.00000
     31       8.5631      0.00000
     32       8.5631      0.00000

 k-point     5 :       0.0000    0.1667    0.0000
  band No.  band energies     occupation 
      1     -10.6109      2.00000
      2     -10.1885      2.00000
      3      -9.4169      2.00000
      4      -8.9221      2.00000
      5      -5.0610      2.00000
      6      -3.7204      2.00000
      7      -3.5102      2.00000
      8      -2.0361      2.00000
      9      -1.4431      2.00000
     10       0.2648      2.00000
     11       0.5042      2.00000
     12       0.7846      2.00000
     13       0.9255      2.00000
     14       0.9961      2.00000
     15       1.6731      2.00000
     16       2.1102      2.00000
     17       2.2025      2.00000
     18       2.5637      2.00000
     19       3.1694      2.00000
     20       3.5873      2.00000
     21       4.6344      0.00000
     22       5.6539      0.00000
     23       5.7913      0.00000
     24       6.1206      0.00000
     25       6.2848      0.00000
     26       6.4517      0.00000
     27       7.3052      0.00000
     28       7.5320      0.00000
     29       8.0489      0.00000
     30       8.5998      0.00000
     31       9.2330      0.00000
     32       9.2542      0.00000

 k-point     6 :       0.1667    0.1667    0.0000
  band No.  band energies     occupation 
      1     -10.4191      2.00000
      2     -10.0218      2.00000
      3      -9.2906      2.00000
      4      -8.8725      2.00000
      5      -5.0939      2.00000
      6      -3.8907      2.00000
      7      -3.6045      2.00000
      8      -2.4305      2.00000
      9      -1.2907      2.00000
     10      -0.5765      2.00000
     11      -0.1078      2.00000
     12       0.5070      2.00000
     13       1.1570      2.00000
     14       1.1654      2.00000
     15       1.4636      2.00000
     16       1.6853      2.00000
     17       2.1334      2.00000
     18       2.8566      2.00000
     19       3.1612      2.00000
     20       3.6115      2.00000
     21       4.8261      0.00000
     22       5.2885      0.00000
     23       5.5999      0.00000
     24       5.9709      0.00000
     25       6.6173      0.00000
     26       7.0089      0.00000
     27       7.1549      0.00000
     28       7.8394      0.00000
     29       8.1342      0.00000
     30       8.3562      0.00000
     31       8.8055      0.00000
     32       9.2906      0.00000

 k-point     7 :       0.1667   -0.1667    0.0000
  band No.  band energies     occupation 
      1     -10.4236      2.00000
      2     -10.0174      2.00000
      3      -9.2988      2.00000
      4      -8.8593      2.00000
      5      -5.1434      2.00000
      6      -3.8365      2.00000
      7      -3.4795      2.00000
      8      -2.6265      2.00000
      9      -1.2963      2.00000
     10      -0.5305      2.00000
     11      -0.2015      2.00000
     12       0.6409      2.00000
     13       1.0695      2.00000
     14       1.1999      2.00000
     15       1.5573      2.00000
     16       1.7632      2.00000
     17       2.3013      2.00000
     18       2.7049      2.00000
     19       3.1809      2.00000
     20       3.2879      2.00000
     21       4.8510      0.00000
     22       5.3156      0.00000
     23       5.5130      0.00000
     24       5.9355      0.00000
     25       6.8935      0.00000
     26       7.0656      0.00000
     27       7.3538      0.00000
     28       7.6667      0.00000
     29       8.2737      0.00000
     30       8.2825      0.00000
     31       8.8822      0.00000
     32       8.9331      0.00000

 k-point     8 :       0.3333    0.1667    0.0000
  band No.  band energies     occupation 
      1      -9.8993      2.00000
      2      -9.5850      2.00000
      3      -9.0649      2.00000
      4      -8.8736      2.00000
      5      -5.2075      2.00000
      6      -4.2846      2.00000
      7      -4.1776      2.00000
      8      -3.3941      2.00000
      9      -0.9229      2.00000
     10      -0.7670      2.00000
     11      -0.5031      2.00000
     12       0.1990      2.00000
     13       0.9845      2.00000
     14       1.0462      2.00000
     15       1.4301      2.00000
     16       1.5431      2.00000
     17       1.9599      2.00000
     18       2.3759      2.00000
     19       2.7567      2.00000
     20       3.3309      2.00000
     21       4.6823      0.00000
     22       4.8651      0.00000
     23       5.1644      0.00000
     24       6.0418      0.00000
     25       6.6919      0.00000
     26       6.7077      0.00000
     27       6.8268      0.00000
     28       7.3795      0.00000
     29       8.1982      0.00000
     30       8.3077      0.00000
     31       9.0032      0.00000
     32       9.2217      0.00000

 k-point     9 :       0.3333   -0.1667    0.0000
  band No.  band energies     occupation 
      1      -9.9105      2.00000
      2      -9.5741      2.00000
      3      -9.0831      2.00000
      4      -8.8477      2.00000
      5      -5.3051      2.00000
      6      -4.1787      2.00000
      7      -3.9594      2.00000
      8      -3.6438      2.00000
      9      -0.9503      2.00000
     10      -0.8087      2.00000
     11      -0.5020      2.00000
     12       0.2238      2.00000
     13       0.8885      2.00000
     14       1.2296      2.00000
     15       1.4804      2.00000
     16       1.6830      2.00000
     17       1.9078      2.00000
     18       2.5369      2.00000
     19       2.6485      2.00000
     20       3.0198      2.00000
     21       4.5162      0.00000
     22       5.0312      0.00000
     23       5.1199      0.00000
     24       6.1437      0.00000
     25       6.5813      0.00000
     26       6.6226      0.00000
     27       6.9014      0.00000
     28       7.7906      0.00000
     29       8.3198      0.00000
     30       8.5132      0.00000
     31       8.7051      0.00000
     32       8.9975      0.00000

 k-point    10 :       0.5000    0.1667    0.0000
  band No.  band energies     occupation 
      1      -9.2781      2.00000
      2      -9.2623      2.00000
      3      -9.1247      2.00000
      4      -9.1117      2.00000
      5      -5.0490      2.00000
      6      -4.9415      2.00000
      7      -4.2220      2.00000
      8      -4.1074      2.00000
      9      -0.5829      2.00000
     10      -0.5631      2.00000
     11       0.0655      2.00000
     12       0.1024      2.00000
     13       0.5719      2.00000
     14       0.6933      2.00000
     15       1.0197      2.00000
     16       1.1132      2.00000
     17       2.1421      2.00000
     18       2.2529      2.00000
     19       2.7974      2.00000
     20       3.1218      2.00000
     21       4.5651      0.00000
     22       4.5986      0.00000
     23       5.4094      0.00000
     24       5.4639      0.00000
     25       6.6212      0.00000
     26       6.6738      0.00000
     27       7.0915      0.00000
     28       7.1868      0.00000
     29       7.8974      0.00000
     30       7.9956      0.00000
     31       8.0766      0.00000
     32       8.7164      0.00000

 k-point    11 :       0.0000    0.3333    0.0000
  band No.  band energies     occupation 
      1     -10.2575      2.00000
      2      -9.9257      2.00000
      3      -9.4448      2.00000
      4      -9.2431      2.00000
      5      -5.3305      2.00000
      6      -4.4580      2.00000
      7      -3.8677      2.00000
      8      -2.8792      2.00000
      9      -1.0449      2.00000
     10       0.5688      2.00000
     11       0.9081      2.00000
     12       1.2441      2.00000
     13       1.5940      2.00000
     14       1.7177      2.00000
     15       1.8510      2.00000
     16       1.8544      2.00000
     17       1.9982      2.00000
     18       3.2164      2.00000
     19       3.4576      2.00000
     20       3.5376      2.00000
     21       4.9744      0.00000
     22       5.1376      0.00000
     23       5.1882      0.00000
     24       5.8893      0.00000
     25       5.9145      0.00000
     26       6.1723      0.00000
     27       6.6874      0.00000
     28       6.8218      0.00000
     29       7.3617      0.00000
     30       7.9393      0.00000
     31       9.2185      0.00000
     32       9.6725      0.00000

 k-point    12 :       0.1667    0.3333    0.0000
  band No.  band energies     occupation 
      1     -10.0812      2.00000
      2      -9.7777      2.00000
      3      -9.3209      2.00000
      4      -9.1571      2.00000
      5      -5.2360      2.00000
      6      -4.4126      2.00000
      7      -3.8615      2.00000
      8      -2.9712      2.00000
      9      -0.8510      2.00000
     10      -0.6489      2.00000
     11      -0.0251      2.00000
     12       0.3199      2.00000
     13       0.8173      2.00000
     14       0.9268      2.00000
     15       1.8171      2.00000
     16       2.0710      2.00000
     17       2.6506      2.00000
     18       2.6804      2.00000
     19       3.2138      2.00000
     20       3.6432      2.00000
     21       4.9904      0.00000
     22       5.1499      0.00000
     23       5.7173      0.00000
     24       6.2240      0.00000
     25       6.4710      0.00000
     26       6.8263      0.00000
     27       6.9660      0.00000
     28       7.7796      0.00000
     29       7.8983      0.00000
     30       8.1432      0.00000
     31       9.2622      0.00000
     32       9.7771      0.00000

 k-point    13 :       0.1667   -0.3333    0.0000
  band No.  band energies     occupation 
      1     -10.0909      2.00000
      2      -9.7682      2.00000
      3      -9.3331      2.00000
      4      -9.1404      2.00000
      5      -5.2869      2.00000
      6      -4.3372      2.00000
      7      -3.8136      2.00000
      8      -3.0701      2.00000
      9      -0.9028      2.00000
     10      -0.5747      2.00000
     11      -0.1520      2.00000
     12       0.3990      2.00000
     13       0.8305      2.00000
     14       1.0840      2.00000
     15       1.7409      2.00000
     16       2.0657      2.00000
     17       2.5729      2.00000
     18       2.8578      2.00000
     19       3.2969      2.00000
     20       3.3026      2.00000
     21       4.9336      0.00000
     22       5.2941      0.00000
     23       5.9657      0.00000
     24       6.2918      0.00000
     25       6.4366      0.00000
     26       6.4574      0.00000
     27       6.7484      0.00000
     28       7.7680      0.00000
     29       8.2811      0.00000
     30       8.5177      0.00000
     31       9.2707      0.00000
     32       9.4454      0.00000

 k-point    14 :       0.3333    0.3333    0.0000
  band No.  band energies     occupation 
      1      -9.6268      2.00000
      2      -9.4042      2.00000
      3      -9.0899      2.00000
      4      -9.0080      2.00000
      5      -5.0495      2.00000
      6      -4.4664      2.00000
      7      -4.0630      2.00000
      8      -3.5069      2.00000
      9      -1.4061      2.00000
     10      -0.8561      2.00000
     11      -0.8433      2.00000
     12      -0.4276      2.00000
     13       0.3473      2.00000
     14       0.5114      2.00000
     15       0.9030      2.00000
     16       1.3586      2.00000
     17       1.3644      2.00000
     18       2.5015      2.00000
     19       2.7355      2.00000
     20       3.3996      2.00000
     21       4.6162      0.00000
     22       5.7208      0.00000
     23       6.2081      0.00000
     24       7.0448      0.00000
     25       7.2474      0.00000
     26       7.5194      0.00000
     27       7.8701      0.00000
     28       8.2040      0.00000
     29       8.7236      0.00000
     30       9.4592      0.00000
     31       9.4849      0.00000
     32       9.8298      0.00000

 k-point    15 :       0.3333   -0.3333    0.0000
  band No.  band energies     occupation 
      1      -9.6511      2.00000
      2      -9.3811      2.00000
      3      -9.1066      2.00000
      4      -8.9828      2.00000
      5      -5.1912      2.00000
      6      -4.2189      2.00000
      7      -3.9043      2.00000
      8      -3.7855      2.00000
      9      -1.4018      2.00000
     10      -0.9247      2.00000
     11      -0.8976      2.00000
     12      -0.4160      2.00000
     13       0.3654      2.00000
     14       0.6858      2.00000
     15       0.7324      2.00000
     16       1.4892      2.00000
     17       1.7561      2.00000
     18       2.1591      2.00000
     19       2.7323      2.00000
     20       3.1253      2.00000
     21       4.6604      0.00000
     22       5.8614      0.00000
     23       6.2902      0.00000
     24       6.7950      0.00000
     25       7.2340      0.00000
     26       7.7254      0.00000
     27       8.1269      0.00000
     28       8.6196      0.00000
     29       8.8256      0.00000
     30       8.8521      0.00000
     31       9.2129      0.00000
     32       9.7499      0.00000

 k-point    16 :       0.5000    0.3333    0.0000
  band No.  band energies     occupation 
      1      -9.1868      2.00000
      2      -9.1478      2.00000
      3      -9.0678      2.00000
      4      -9.0338      2.00000
      5      -4.9174      2.00000
      6      -4.6465      2.00000
      7      -4.2738      2.00000
      8      -3.9848      2.00000
      9      -1.1345      2.00000
     10      -1.1236      2.00000
     11      -0.6781      2.00000
     12      -0.6474      2.00000
     13      -0.0372      2.00000
     14       0.0452      2.00000
     15       0.7199      2.00000
     16       0.8845      2.00000
     17       1.4768      2.00000
     18       1.5631      2.00000
     19       2.4316      2.00000
     20       3.1791      2.00000
     21       5.4650      0.00000
     22       5.4917      0.00000
     23       6.4641      0.00000
     24       6.6367      0.00000
     25       7.7283      0.00000
     26       7.9848      0.00000
     27       8.3028      0.00000
     28       8.4814      0.00000
     29       8.7341      0.00000
     30       9.0192      0.00000
     31       9.3432      0.00000
     32       9.5210      0.00000

 k-point    17 :       0.0000    0.5000    0.0000
  band No.  band energies     occupation 
      1      -9.7608      2.00000
      2      -9.7608      2.00000
      3      -9.6122      2.00000
      4      -9.6122      2.00000
      5      -5.1547      2.00000
      6      -5.1547      2.00000
      7      -3.5843      2.00000
      8      -3.5843      2.00000
      9      -0.2869      2.00000
     10      -0.2869      2.00000
     11       1.4780      2.00000
     12       1.4780      2.00000
     13       1.6202      2.00000
     14       1.6202      2.00000
     15       2.2699      2.00000
     16       2.2700      2.00000
     17       2.6932      2.00000
     18       2.6932      2.00000
     19       3.3633      2.00000
     20       3.3633      2.00000
     21       5.0666      0.00000
     22       5.0666      0.00000
     23       5.5245      0.00000
     24       5.5245      0.00000
     25       5.8374      0.00000
     26       5.8374      0.00000
     27       6.4006      0.00000
     28       6.4006      0.00000
     29       7.1543      0.00000
     30       7.1543      0.00000
     31       9.8234      0.00000
     32       9.8234      0.00000

 k-point    18 :       0.1667    0.5000    0.0000
  band No.  band energies     occupation 
      1      -9.6303      2.00000
      2      -9.6162      2.00000
      3      -9.4870      2.00000
      4      -9.4744      2.00000
      5      -5.0607      2.00000
      6      -5.0113      2.00000
      7      -3.5804      2.00000
      8      -3.5324      2.00000
      9      -0.2823      2.00000
     10      -0.2050      2.00000
     11      -0.1860      2.00000
     12       0.0222      2.00000
     13       0.4778      2.00000
     14       0.4963      2.00000
     15       1.8864      2.00000
     16       2.0673      2.00000
     17       2.6832      2.00000
     18       3.1012      2.00000
     19       3.3613      2.00000
     20       3.4531      2.00000
     21       5.0896      0.00000
     22       5.1959      0.00000
     23       5.7873      0.00000
     24       6.0189      0.00000
     25       6.7243      0.00000
     26       6.8668      0.00000
     27       7.2020      0.00000
     28       7.4015      0.00000
     29       8.0000      0.00000
     30       8.0878      0.00000
     31       9.3569      0.00000
     32       9.8508      0.00000

 k-point    19 :       0.3333    0.5000    0.0000
  band No.  band energies     occupation 
      1      -9.3218      2.00000
      2      -9.2858      2.00000
      3      -9.2011      2.00000
      4      -9.1692      2.00000
      5      -4.8895      2.00000
      6      -4.7264      2.00000
      7      -3.8379      2.00000
      8      -3.6589      2.00000
      9      -1.4038      2.00000
     10      -1.3471      2.00000
     11      -0.6283      2.00000
     12      -0.5361      2.00000
     13      -0.0787      2.00000
     14       0.0553      2.00000
     15       0.8701      2.00000
     16       1.2093      2.00000
     17       1.5882      2.00000
     18       1.8101      2.00000
     19       2.6830      2.00000
     20       3.2726      2.00000
     21       5.5182      0.00000
     22       5.5357      0.00000
     23       6.8342      0.00000
     24       7.0674      0.00000
     25       8.0808      0.00000
     26       8.2895      0.00000
     27       8.5651      0.00000
     28       9.0750      0.00000
     29       9.1151      0.00000
     30       9.3120      0.00000
     31       9.4848      0.00000
     32       9.5066      0.00000

 k-point    20 :       0.5000    0.5000    0.0000
  band No.  band energies     occupation 
      1      -9.1381      2.00000
      2      -9.0641      2.00000
      3      -9.0618      2.00000
      4      -8.9937      2.00000
      5      -4.8560      2.00000
      6      -4.4063      2.00000
      7      -4.3768      2.00000
      8      -3.9029      2.00000
      9      -1.3900      2.00000
     10      -1.3571      2.00000
     11      -1.1042      2.00000
     12      -1.0950      2.00000
     13       0.1008      2.00000
     14       0.1461      2.00000
     15       0.2565      2.00000
     16       0.4061      2.00000
     17       1.2291      2.00000
     18       1.7436      2.00000
[...]
     32       9.0198      0.00000

 k-point    32 :       0.1667    0.3333    0.5000
  band No.  band energies     occupation 
      1      -9.9549      2.00000
      2      -9.9549      2.00000
      3      -9.2133      2.00000
      4      -9.2133      2.00000
      5      -4.8887      2.00000
      6      -4.8887      2.00000
      7      -3.4611      2.00000
      8      -3.4611      2.00000
      9      -0.4983      2.00000
     10      -0.4983      2.00000
     11       0.2974      2.00000
     12       0.2974      2.00000
     13       0.8257      2.00000
     14       0.8257      2.00000
     15       1.6240      2.00000
     16       1.6240      2.00000
     17       2.7789      2.00000
     18       2.7789      2.00000
     19       2.9984      2.00000
     20       2.9984      2.00000
     21       5.5109      0.00000
     22       5.5109      0.00000
     23       6.0924      0.00000
     24       6.0924      0.00000
     25       6.7003      0.00000
     26       6.7003      0.00000
     27       7.2758      0.00000
     28       7.2758      0.00000
     29       8.0737      0.00000
     30       8.0737      0.00000
     31       9.0815      0.00000
     32       9.0815      0.00000

 k-point    33 :       0.1667   -0.3333    0.5000
  band No.  band energies     occupation 
      1      -9.9591      2.00000
      2      -9.9591      2.00000
      3      -9.2068      2.00000
      4      -9.2068      2.00000
      5      -4.9040      2.00000
      6      -4.9040      2.00000
      7      -3.4387      2.00000
      8      -3.4387      2.00000
      9      -0.4310      2.00000
     10      -0.4310      2.00000
     11       0.1374      2.00000
     12       0.1374      2.00000
     13       0.7977      2.00000
     14       0.7977      2.00000
     15       1.7662      2.00000
     16       1.7662      2.00000
     17       2.7641      2.00000
     18       2.7641      2.00000
     19       3.0064      2.00000
     20       3.0064      2.00000
     21       5.5670      0.00000
     22       5.5670      0.00000
     23       5.9714      0.00000
     24       5.9714      0.00000
     25       6.8353      0.00000
     26       6.8353      0.00000
     27       7.0678      0.00000
     28       7.0678      0.00000
     29       8.3735      0.00000
     30       8.3735      0.00000
     31       8.8551      0.00000
     32       8.8551      0.00000

 k-point    34 :       0.3333    0.3333    0.5000
  band No.  band energies     occupation 
      1      -9.5304      2.00000
      2      -9.5304      2.00000
      3      -9.0357      2.00000
      4      -9.0357      2.00000
      5      -4.7583      2.00000
      6      -4.7583      2.00000
      7      -3.8482      2.00000
      8      -3.8482      2.00000
      9      -1.1893      2.00000
     10      -1.1893      2.00000
     11      -0.3168      2.00000
     12      -0.3168      2.00000
     13       0.3083      2.00000
     14       0.3083      2.00000
     15       0.9176      2.00000
     16       0.9176      2.00000
     17       2.1301      2.00000
     18       2.1301      2.00000
     19       2.7396      2.00000
     20       2.7396      2.00000
     21       6.0349      0.00000
     22       6.0349      0.00000
     23       6.1763      0.00000
     24       6.1763      0.00000
     25       7.0539      0.00000
     26       7.0539      0.00000
     27       8.2337      0.00000
     28       8.2337      0.00000
     29       8.3804      0.00000
     30       8.3804      0.00000
     31       9.9427      0.00000
     32       9.9427      0.00000

 k-point    35 :       0.3333   -0.3333    0.5000
  band No.  band energies     occupation 
      1      -9.5403      2.00000
      2      -9.5403      2.00000
      3      -9.0218      2.00000
      4      -9.0218      2.00000
      5      -4.8057      2.00000
      6      -4.8057      2.00000
      7      -3.7828      2.00000
      8      -3.7828      2.00000
      9      -1.1500      2.00000
     10      -1.1500      2.00000
     11      -0.4923      2.00000
     12      -0.4923      2.00000
     13       0.3886      2.00000
     14       0.3886      2.00000
     15       0.9180      2.00000
     16       0.9180      2.00000
     17       2.1587      2.00000
     18       2.1587      2.00000
     19       2.8075      2.00000
     20       2.8075      2.00000
     21       5.8146      0.00000
     22       5.8146      0.00000
     23       6.1731      0.00000
     24       6.1731      0.00000
     25       7.1792      0.00000
     26       7.1792      0.00000
     27       8.2415      0.00000
     28       8.2415      0.00000
     29       8.5637      0.00000
     30       8.5637      0.00000
     31       9.8369      0.00000
     32       9.8369      0.00000

 k-point    36 :       0.5000    0.3333    0.5000
  band No.  band energies     occupation 
      1      -9.1474      2.00000
      2      -9.1474      2.00000
      3      -9.0732      2.00000
      4      -9.0732      2.00000
      5      -4.7031      2.00000
      6      -4.7031      2.00000
      7      -4.2476      2.00000
      8      -4.2476      2.00000
      9      -0.8533      2.00000
     10      -0.8533      2.00000
     11      -0.7393      2.00000
     12      -0.7393      2.00000
     13       0.0836      2.00000
     14       0.0836      2.00000
     15       0.1951      2.00000
     16       0.1951      2.00000
     17       2.2528      2.00000
     18       2.2528      2.00000
     19       2.4188      2.00000
     20       2.4188      2.00000
     21       5.9892      0.00000
     22       5.9892      0.00000
     23       6.3038      0.00000
     24       6.3038      0.00000
     25       7.3946      0.00000
     26       7.3946      0.00000
     27       7.7965      0.00000
     28       7.7965      0.00000
     29       9.2037      0.00000
     30       9.2037      0.00000
     31       9.4110      0.00000
     32       9.4110      0.00000

 k-point    37 :       0.0000    0.5000    0.5000
  band No.  band energies     occupation 
      1      -9.7215      2.00000
      2      -9.7215      2.00000
      3      -9.6562      2.00000
      4      -9.6562      2.00000
      5      -5.0280      2.00000
      6      -5.0280      2.00000
      7      -3.8503      2.00000
      8      -3.8503      2.00000
      9       0.7742      2.00000
     10       0.7742      2.00000
     11       0.9231      2.00000
     12       0.9231      2.00000
     13       1.5265      2.00000
     14       1.5265      2.00000
     15       1.5912      2.00000
     16       1.5912      2.00000
     17       3.0585      2.00000
     18       3.0585      2.00000
     19       3.0812      2.00000
     20       3.0812      2.00000
     21       5.1644      0.00000
     22       5.1644      0.00000
     23       5.3074      0.00000
     24       5.3074      0.00000
     25       6.0450      0.00000
     26       6.0450      0.00000
     27       6.9786      0.00000
     28       6.9786      0.00000
     29       7.4575      0.00000
     30       7.4575      0.00000
     31       8.9747      0.00000
     32       8.9747      0.00000

 k-point    38 :       0.1667    0.5000    0.5000
  band No.  band energies     occupation 
      1      -9.5882      2.00000
      2      -9.5882      2.00000
      3      -9.5199      2.00000
      4      -9.5199      2.00000
      5      -4.9250      2.00000
      6      -4.9250      2.00000
      7      -3.7780      2.00000
      8      -3.7780      2.00000
      9      -0.1620      2.00000
     10      -0.1620      2.00000
     11       0.1479      2.00000
     12       0.1479      2.00000
     13       1.0672      2.00000
     14       1.0672      2.00000
     15       1.1813      2.00000
     16       1.1813      2.00000
     17       2.7887      2.00000
     18       2.7887      2.00000
     19       3.0076      2.00000
     20       3.0076      2.00000
     21       5.8882      0.00000
     22       5.8882      0.00000
     23       6.2228      0.00000
     24       6.2228      0.00000
     25       6.6776      0.00000
     26       6.6776      0.00000
     27       6.9839      0.00000
     28       6.9839      0.00000
     29       8.2598      0.00000
     30       8.2598      0.00000
     31       8.8774      0.00000
     32       8.8774      0.00000

 k-point    39 :       0.3333    0.5000    0.5000
  band No.  band energies     occupation 
      1      -9.2812      2.00000
      2      -9.2812      2.00000
      3      -9.2104      2.00000
      4      -9.2104      2.00000
      5      -4.7363      2.00000
      6      -4.7363      2.00000
      7      -3.8733      2.00000
      8      -3.8733      2.00000
      9      -1.1178      2.00000
     10      -1.1178      2.00000
     11      -0.9167      2.00000
     12      -0.9167      2.00000
     13       0.3690      2.00000
     14       0.3690      2.00000
     15       0.6299      2.00000
     16       0.6299      2.00000
     17       2.2053      2.00000
     18       2.2053      2.00000
     19       2.4905      2.00000
     20       2.4905      2.00000
     21       6.1814      0.00000
     22       6.1814      0.00000
     23       6.6883      0.00000
     24       6.6883      0.00000
     25       7.6971      0.00000
     26       7.6971      0.00000
     27       8.0554      0.00000
     28       8.0554      0.00000
     29       9.4980      0.00000
     30       9.4980      0.00000
     31       9.7171      0.00000
     32       9.7171      0.00000

 k-point    40 :       0.5000    0.5000    0.5000
  band No.  band energies     occupation 
      1      -9.0984      2.00000
      2      -9.0984      2.00000
      3      -9.0320      2.00000
      4      -9.0320      2.00000
      5      -4.6358      2.00000
      6      -4.6358      2.00000
      7      -4.1840      2.00000
      8      -4.1840      2.00000
      9      -0.9795      2.00000
     10      -0.9795      2.00000
     11      -0.8554      2.00000
     12      -0.8554      2.00000
     13      -0.4026      2.00000
     14      -0.4026      2.00000
     15      -0.3084      2.00000
     16      -0.3084      2.00000
     17       2.3235      2.00000
     18       2.3235      2.00000
     19       2.5129      2.00000
     20       2.5129      2.00000
     21       5.8925      0.00000
     22       5.8925      0.00000
     23       6.3246      0.00000
     24       6.3246      0.00000
     25       8.2974      0.00000
     26       8.2974      0.00000
     27       8.5647      0.00000
     28       8.5647      0.00000
     29      10.2204      0.00000
     30      10.2204      0.00000
     31      10.4699      0.00000
     32      10.4699      0.00000


--------------------------------------------------------------------------------------------------------


 soft charge-density along one line, spin component            1
         0         1         2         3         4         5         6         7         8         9
 total charge-density along one line
 
 pseudopotential strength for first ion, spin component:            1
 14.408  17.972   0.036   0.038   0.002   0.066   0.069   0.003
 17.972  22.433   0.046   0.048   0.002   0.083   0.087   0.004
  0.036   0.046   3.208  -0.002  -0.000   5.460  -0.003  -0.000
  0.038   0.048  -0.002   3.204  -0.000  -0.003   5.453  -0.000
  0.002   0.002  -0.000  -0.000   3.209  -0.000  -0.000   5.462
  0.066   0.083   5.460  -0.003  -0.000   9.349  -0.006  -0.000
  0.069   0.087  -0.003   5.453  -0.000  -0.006   9.339  -0.000
  0.003   0.004  -0.000  -0.000   5.462  -0.000  -0.000   9.352
 -0.000  -0.000   0.001  -0.000   0.006   0.001  -0.000   0.011
 -0.004  -0.005   0.009   0.012  -0.000   0.017   0.021  -0.000
 -0.005  -0.006  -0.003   0.010  -0.000  -0.005   0.018  -0.001
 -0.000  -0.000  -0.000   0.000   0.010  -0.000   0.000   0.018
  0.001   0.001  -0.011   0.000   0.000  -0.020   0.000   0.001
 total augmentation occupancy for first ion, spin component:            1
  2.864  -0.798   0.322   0.290   0.032  -0.063  -0.047  -0.009  -0.002  -0.003   0.009  -0.012   0.016
 -0.798   0.721  -0.401  -0.409  -0.029   0.064   0.058   0.006   0.002  -0.002  -0.005   0.010  -0.010
  0.322  -0.401   1.246   0.063  -0.001  -0.207  -0.003   0.000   0.001   0.046  -0.104   0.001   0.004
  0.290  -0.409   0.063   1.467  -0.031  -0.003  -0.245   0.009   0.004  -0.022   0.083   0.015  -0.010
  0.032  -0.029  -0.001  -0.031   1.310   0.000   0.009  -0.233   0.143  -0.001   0.006   0.028   0.003
 -0.063   0.064  -0.207  -0.003   0.000   0.038  -0.000   0.000  -0.000  -0.007   0.018  -0.000  -0.000
 -0.047   0.058  -0.003  -0.245   0.009  -0.000   0.047  -0.002  -0.000   0.004  -0.014  -0.003   0.002
 -0.009   0.006   0.000   0.009  -0.233   0.000  -0.002   0.046  -0.026   0.000  -0.001  -0.004  -0.001
 -0.002   0.002   0.001   0.004   0.143  -0.000  -0.000  -0.026   0.031   0.000  -0.001   0.005  -0.000
 -0.003  -0.002   0.046  -0.022  -0.001  -0.007   0.004   0.000   0.000   0.013  -0.007   0.001   0.001
  0.009  -0.005  -0.104   0.083   0.006   0.018  -0.014  -0.001  -0.001  -0.007   0.033  -0.003  -0.002
 -0.012   0.010   0.001   0.015   0.028  -0.000  -0.003  -0.004   0.005   0.001  -0.003   0.015  -0.001
  0.016  -0.010   0.004  -0.010   0.003  -0.000   0.002  -0.001  -0.000   0.001  -0.002  -0.001   0.009


------------------------ aborting loop because EDIFF is reached ----------------------------------------


    CHARGE:  cpu time      0.0053: real time      0.0053
    FORLOC:  cpu time      0.0002: real time      0.0002
    FORNL :  cpu time      0.0239: real time      0.0240
    STRESS:  cpu time      0.2588: real time      0.2595
    FORCOR:  cpu time      0.0065: real time      0.0066
    FORHAR:  cpu time      0.0016: real time      0.0017
    MIXING:  cpu time      0.0005: real time      0.0005
    OFIELD:  cpu time      0.0000: real time      0.0000

  FORCE on cell =-STRESS in cart. coord.  units (eV):
  Direction    XX          YY          ZZ          XY          YZ          ZX
  --------------------------------------------------------------------------------------
  Alpha Z    91.66130    91.66130    91.66130
  Ewald    -460.58465  -509.03854  -481.39196     4.67160     0.00010     0.00006
  Hartree    49.89866    35.20924    36.74720     2.22200     0.00002     0.00001
  E(xc)    -141.80563  -141.83313  -142.01959     0.00530     0.00000     0.00000
  Local    -158.83482  -102.67146  -133.81741    -7.63007    -0.00011    -0.00006
  n-local   241.87701   240.68292   243.46215     0.17899     0.00000     0.00000
  augment   -11.37865   -11.81170   -12.08966    -0.06669     0.00000     0.00000
  Kinetic   391.22248   399.73458   403.38634     0.85433    -0.00001    -0.00002
  Fock        0.00000     0.00000     0.00000     0.00000     0.00000     0.00000
  -------------------------------------------------------------------------------------
  Total       2.05570     1.93321     5.93839     0.23546     0.00000    -0.00001
  in kB      17.81675    16.75519    51.46805     2.04073     0.00003    -0.00007
  external pressure =       28.68 kB  Pullay stress =        0.00 kB


 VOLUME and BASIS-vectors are now :
 -----------------------------------------------------------------------------
  energy-cutoff  :      360.00
  volume of cell :      184.86
      direct lattice vectors                 reciprocal lattice vectors
     3.858100176  0.000000000  0.000000000     0.259194929  0.000000000  0.000000000
     0.000000000  4.526575088  0.000000000     0.000000000  0.220917577  0.000000000
     0.000000000  0.000000000 10.585176468     0.000000000  0.000000000  0.094471736

  length of vectors
     3.858100176  4.526575088 10.585176468     0.259194929  0.220917577  0.094471736


 FORCES acting on ions
    electron-ion (+dipol)            ewald-force                    non-local-force                 convergence-correction
 -----------------------------------------------------------------------------------------------
   0.112E+01 0.126E+02 0.163E+02   -.116E+01 -.148E+02 -.187E+02   0.466E-02 0.221E+01 0.291E+01   0.169E-03 0.170E-03 -.122E-02
   0.112E+01 0.126E+02 -.163E+02   -.116E+01 -.148E+02 0.187E+02   0.466E-02 0.221E+01 -.291E+01   0.169E-03 0.171E-03 0.122E-02
   -.112E+01 -.126E+02 -.163E+02   0.116E+01 0.148E+02 0.187E+02   -.482E-02 -.221E+01 -.291E+01   -.168E-03 -.171E-03 0.122E-02
   -.112E+01 -.126E+02 0.163E+02   0.116E+01 0.148E+02 -.187E+02   -.482E-02 -.221E+01 0.291E+01   -.169E-03 -.170E-03 -.122E-02
   0.207E+00 -.167E+02 -.190E+02   -.227E+00 0.182E+02 0.205E+02   -.333E-01 -.128E+01 -.176E+01   -.292E-03 -.687E-03 0.227E-02
   0.207E+00 -.167E+02 0.190E+02   -.227E+00 0.182E+02 -.205E+02   -.333E-01 -.128E+01 0.176E+01   -.291E-03 -.686E-03 -.227E-02
   -.207E+00 0.167E+02 0.190E+02   0.227E+00 -.182E+02 -.205E+02   0.333E-01 0.128E+01 0.176E+01   0.292E-03 0.686E-03 -.227E-02
   -.207E+00 0.167E+02 -.190E+02   0.227E+00 -.182E+02 0.205E+02   0.333E-01 0.128E+01 -.176E+01   0.291E-03 0.686E-03 0.227E-02
 -----------------------------------------------------------------------------------------------
   0.145E-04 0.110E-04 -.167E-05   0.314E-14 0.000E+00 0.711E-14   -.167E-03 0.168E-03 -.103E-05   0.206E-06 -.161E-06 0.672E-06
 
 
 POSITION                                       TOTAL-FORCE (eV/Angst)
 -----------------------------------------------------------------------------------
      1.30001      4.01648      1.23098        -0.034748      0.048191      0.539248
      3.22906      1.75320      4.06160        -0.034748      0.048188     -0.539243
      2.89357      3.98702      9.35419         0.034638     -0.048174     -0.539261
      0.96452      1.72374      6.52357         0.034643     -0.048176      0.539257
      1.30001      3.45404      3.75268        -0.053203      0.269591     -0.240967
      3.22906      1.19075      1.53991        -0.053201      0.269588      0.240963
      2.89357      0.02290      6.83250         0.053310     -0.269602      0.240923
      0.96452      2.28618      9.04526         0.053310     -0.269606     -0.240920
 -----------------------------------------------------------------------------------
    total drift:                               -0.000152      0.000179     -0.000002


--------------------------------------------------------------------------------------------------------



  FREE ENERGIE OF THE ION-ELECTRON SYSTEM (eV)
  ---------------------------------------------------
  free  energy   TOTEN  =       -33.22972735 eV

  energy  without entropy=      -33.22972735  energy(sigma->0) =      -33.22972735
 


--------------------------------------------------------------------------------------------------------


    POTLOK:  cpu time      0.2393: real time      0.2400


--------------------------------------------------------------------------------------------------------


     LOOP+:  cpu time      7.3179: real time      7.3520
    4ORBIT:  cpu time      0.0000: real time      0.0000

 total amount of memory used by VASP MPI-rank0    36587. kBytes
=======================================================================

   base      :      30000. kBytes
   nonl-proj :       5001. kBytes
   fftplans  :        306. kBytes
   grid      :        466. kBytes
   one-center:         16. kBytes
   wavefun   :        798. kBytes
 
  
  
 General timing and accounting informations for this job:
 ========================================================
  
                  Total CPU time used (sec):        9.177
                            User time (sec):        8.882
                          System time (sec):        0.295
                         Elapsed time (sec):       10.606
  
                   Maximum memory used (kb):      174220.
                   Average memory used (kb):          N/A
  
                          Minor page faults:        15596
                          Major page faults:           33
                 Voluntary context switches:         9152
