 running  128 mpi-ranks, with    1 threads/rank, on    2 nodes
 distrk:  each k-point on   64 cores,    2 groups
 distr:  one band on    4 cores,   16 groups
 vasp.6.4.2 20Jul23 (build Oct 12 2023 10:31:02) complex                         
 POSCAR found type information on POSCAR GeSe
 POSCAR found :  2 types and       8 ions
 Reading from existing POTCAR
 scaLAPACK will be used
 Reading from existing POTCAR
 LDA part: xc-table for Pade appr. of Perdew
 POSCAR, INCAR and KPOINTS ok, starting setup
 FFT: planning ... GRIDC
 FFT: planning ... GRID_SOFT
 FFT: planning ... GRID
 WAVECAR not read
 entering main loop
       N       E                     dE             d eps       ncg     rms          rms(c)
DAV:   1     0.135112323260E+03    0.13511E+03   -0.12434E+04  2560   0.757E+02
DAV:   2    -0.233079997714E+02   -0.15842E+03   -0.15350E+03  3712   0.134E+02
DAV:   3    -0.335668657650E+02   -0.10259E+02   -0.10229E+02  3216   0.401E+01
DAV:   4    -0.336519039852E+02   -0.85038E-01   -0.85030E-01  3120   0.421E+00
DAV:   5    -0.336525000361E+02   -0.59605E-03   -0.59605E-03  3200   0.346E-01    0.603E+00
DAV:   6    -0.329522149305E+02    0.70029E+00   -0.16525E+00  2816   0.408E+00    0.367E+00
DAV:   7    -0.329462040462E+02    0.60109E-02   -0.30064E-01  2896   0.192E+00    0.173E+00
DAV:   8    -0.329462486948E+02   -0.44649E-04   -0.31674E-02  2976   0.710E-01    0.190E-01
DAV:   9    -0.329459326521E+02    0.31604E-03   -0.65577E-03  3152   0.319E-01    0.830E-02
DAV:  10    -0.329462215507E+02   -0.28890E-03   -0.78493E-04  2752   0.120E-01    0.293E-02
DAV:  11    -0.329462680080E+02   -0.46457E-04   -0.63300E-05  3168   0.357E-02    0.162E-02
DAV:  12    -0.329462705010E+02   -0.24931E-05   -0.17224E-05  2896   0.167E-02    0.341E-03
DAV:  13    -0.329462714520E+02   -0.95101E-06   -0.19905E-06  2464   0.521E-03
   1 F= -.32946271E+02 E0= -.32946271E+02  d E =-.236947E-12
