 running  128 mpi-ranks, with    1 threads/rank, on    2 nodes
 distrk:  each k-point on   64 cores,    2 groups
 distr:  one band on    4 cores,   16 groups
 vasp.6.4.2 20Jul23 (build Oct 12 2023 10:31:02) complex                         
 POSCAR found type information on POSCAR GeSe
 POSCAR found :  2 types and       8 ions
 Reading from existing POTCAR
 scaLAPACK will be used
 Reading from existing POTCAR
 LDA part: xc-table for Pade appr. of Perdew
 POSCAR, INCAR and KPOINTS ok, starting setup
 FFT: planning ... GRIDC
 FFT: planning ... GRID_SOFT
 FFT: planning ... GRID
 WAVECAR not read
 entering main loop
       N       E                     dE             d eps       ncg     rms          rms(c)
DAV:   1     0.126821896465E+03    0.12682E+03   -0.13252E+04  2560   0.791E+02
DAV:   2    -0.257000266933E+02   -0.15252E+03   -0.14831E+03  3744   0.142E+02
DAV:   3    -0.330524460910E+02   -0.73524E+01   -0.73339E+01  3216   0.358E+01
DAV:   4    -0.330930037881E+02   -0.40558E-01   -0.40549E-01  3280   0.300E+00
DAV:   5    -0.330932301206E+02   -0.22633E-03   -0.22633E-03  3168   0.216E-01    0.727E+00
DAV:   6    -0.328212735238E+02    0.27196E+00   -0.52129E-01  3280   0.246E+00    0.453E+00
DAV:   7    -0.328141172126E+02    0.71563E-02   -0.20393E-01  3312   0.161E+00    0.970E-01
DAV:   8    -0.328096428206E+02    0.44744E-02   -0.28339E-02  3024   0.622E-01    0.159E-01
DAV:   9    -0.328098597786E+02   -0.21696E-03   -0.26151E-03  3168   0.227E-01    0.545E-02
DAV:  10    -0.328098841623E+02   -0.24384E-04   -0.10683E-04  3200   0.444E-02    0.222E-02
DAV:  11    -0.328099004232E+02   -0.16261E-04   -0.26402E-05  3072   0.232E-02    0.676E-03
DAV:  12    -0.328099006423E+02   -0.21905E-06   -0.34410E-06  2912   0.822E-03
   1 F= -.32809901E+02 E0= -.32807892E+02  d E =-.401693E-02
