 running  128 mpi-ranks, with    1 threads/rank, on    2 nodes
 distrk:  each k-point on   64 cores,    2 groups
 distr:  one band on    8 cores,    8 groups
 vasp.6.4.2 20Jul23 (build Oct 12 2023 10:31:02) complex                         
 POSCAR found type information on POSCAR GeSe
 POSCAR found :  2 types and      72 ions
 Reading from existing POTCAR
 -----------------------------------------------------------------------------
|                                                                             |
|           W    W    AA    RRRRR   N    N  II  N    N   GGGG   !!!           |
|           W    W   A  A   R    R  NN   N  II  NN   N  G    G  !!!           |
|           W    W  A    A  R    R  N N  N  II  N N  N  G       !!!           |
|           W WW W  AAAAAA  RRRRR   N  N N  II  N  N N  G  GGG   !            |
|           WW  WW  A    A  R   R   N   NN  II  N   NN  G    G                |
|           W    W  A    A  R    R  N    N  II  N    N   GGGG   !!!           |
|                                                                             |
|     You use a magnetic or noncollinear calculation, but did not specify     |
|     the initial magnetic moment with the MAGMOM tag. Note that a            |
|     default of 1 will be used for all atoms. This ferromagnetic setup       |
|     may break the symmetry of the crystal, in particular it may rule        |
|     out finding an antiferromagnetic solution. Thence, we recommend         |
|     setting the initial magnetic moment manually or verifying carefully     |
|     that this magnetic setup is desired.                                    |
|                                                                             |
 -----------------------------------------------------------------------------

 scaLAPACK will be used
 Reading from existing POTCAR
 -----------------------------------------------------------------------------
|                                                                             |
|               ----> ADVICE to this user running VASP <----                  |
|                                                                             |
|     You have a (more or less) 'large supercell' and for larger cells it     |
|     might be more efficient to use real-space projection operators.         |
|     Therefore, try LREAL= Auto in the INCAR file.                           |
|     Mind: For very accurate calculation, you might also keep the            |
|     reciprocal projection scheme (i.e. LREAL=.FALSE.).                      |
|                                                                             |
 -----------------------------------------------------------------------------

 LDA part: xc-table for Pade appr. of Perdew
 -----------------------------------------------------------------------------
|                                                                             |
|           W    W    AA    RRRRR   N    N  II  N    N   GGGG   !!!           |
|           W    W   A  A   R    R  NN   N  II  NN   N  G    G  !!!           |
|           W    W  A    A  R    R  N N  N  II  N N  N  G       !!!           |
|           W WW W  AAAAAA  RRRRR   N  N N  II  N  N N  G  GGG   !            |
|           WW  WW  A    A  R   R   N   NN  II  N   NN  G    G                |
|           W    W  A    A  R    R  N    N  II  N    N   GGGG   !!!           |
|                                                                             |
|     The number of bands has been changed from the values supplied in        |
|     the INCAR file. This is a result of running the parallel version.       |
|     The orbitals not found in the WAVECAR file will be initialized with     |
|     random numbers, which is usually adequate. For correlated               |
|     calculations, however, you should redo the groundstate calculation.     |
|     I found NBANDS = 220. Now, NBANDS = 224.                                |
|                                                                             |
 -----------------------------------------------------------------------------

 POSCAR, INCAR and KPOINTS ok, starting setup
 FFT: planning ... GRIDC
 FFT: planning ... GRID_SOFT
 FFT: planning ... GRID
 WAVECAR not read
 WARNING: random wavefunctions but no delay for mixing, default for NELMDL
 entering main loop
       N       E                     dE             d eps       ncg     rms          rms(c)
DAV:   1     0.181769625603E+04    0.18177E+04   -0.14171E+05  7168   0.135E+03
DAV:   2    -0.643630349657E+02   -0.18821E+04   -0.18080E+04  8472   0.205E+02
DAV:   3    -0.281663100944E+03   -0.21730E+03   -0.21142E+03  8600   0.692E+01
DAV:   4    -0.289635508135E+03   -0.79724E+01   -0.78826E+01  8792   0.131E+01
DAV:   5    -0.289921139471E+03   -0.28563E+00   -0.28483E+00  9160   0.213E+00    0.292E+01
DAV:   6    -0.289522126149E+03    0.39901E+00   -0.26530E+01  7952   0.770E+00    0.173E+01
DAV:   7    -0.296889041591E+03   -0.73669E+01   -0.89173E+00  7936   0.458E+00    0.914E+00
DAV:   8    -0.300117153950E+03   -0.32281E+01   -0.17525E+00  8272   0.228E+00    0.328E+00
DAV:   9    -0.300498053973E+03   -0.38090E+00   -0.43158E-01  8984   0.104E+00    0.148E+00
DAV:  10    -0.300598431035E+03   -0.10038E+00   -0.90259E-02  8168   0.456E-01    0.734E-01
DAV:  11    -0.300630728185E+03   -0.32297E-01   -0.36495E-02  8928   0.283E-01    0.294E-01
DAV:  12    -0.300634307035E+03   -0.35789E-02   -0.46747E-03  8392   0.123E-01    0.112E-01
DAV:  13    -0.300634457168E+03   -0.15013E-03   -0.74482E-04  9800   0.420E-02    0.466E-02
DAV:  14    -0.300634478779E+03   -0.21611E-04   -0.10339E-04  8296   0.199E-02    0.177E-02
DAV:  15    -0.300634482532E+03   -0.37532E-05   -0.17759E-05  8680   0.877E-03    0.810E-03
DAV:  16    -0.300634483355E+03   -0.82245E-06   -0.16283E-06  4968   0.279E-03
   1 F= -.30063448E+03 E0= -.30063448E+03  d E =-.812296E-11  mag=     0.0003
