 vasp.6.4.2 20Jul23 (build Oct 12 2023 10:31:02) complex                         
 executed on              LinuxNV date 2024.11.01  23:51:56
 running  128 mpi-ranks, with    1 threads/rank, on    2 nodes
 distrk:  each k-point on   64 cores,    2 groups
 distr:  one band on NCORE=   8 cores,    8 groups


--------------------------------------------------------------------------------------------------------


 INCAR:
   ENCUT = 520.000000
   SIGMA = 0.050000
   EDIFF = 1.00e-06
   ALGO = N
   GGA = PE
   PREC = Accurate
   SYSTEM = 01_AOPT
   ICHARG = 0
   ISMEAR = 0
   ISPIN = 2
   ISTART = 1
   ISYM = -1
   KPAR = 2
   LORBIT = 11
   NBANDS = 220
   NELM = 100
   NELMIN = 5
   NPAR = 8
   LASPH = .TRUE.
   LCHARG = .FALSE.
   LWAVE = .FALSE.
   LREAL = .FALSE.

 POTCAR:    PAW_PBE Ge 05Jan2001                  
 POTCAR:    PAW_PBE Se 06Sep2000                  
 -----------------------------------------------------------------------------
|                                                                             |
|           W    W    AA    RRRRR   N    N  II  N    N   GGGG   !!!           |
|           W    W   A  A   R    R  NN   N  II  NN   N  G    G  !!!           |
|           W    W  A    A  R    R  N N  N  II  N N  N  G       !!!           |
|           W WW W  AAAAAA  RRRRR   N  N N  II  N  N N  G  GGG   !            |
|           WW  WW  A    A  R   R   N   NN  II  N   NN  G    G                |
|           W    W  A    A  R    R  N    N  II  N    N   GGGG   !!!           |
|                                                                             |
|     You use a magnetic or noncollinear calculation, but did not specify     |
|     the initial magnetic moment with the MAGMOM tag. Note that a            |
|     default of 1 will be used for all atoms. This ferromagnetic setup       |
|     may break the symmetry of the crystal, in particular it may rule        |
|     out finding an antiferromagnetic solution. Thence, we recommend         |
|     setting the initial magnetic moment manually or verifying carefully     |
|     that this magnetic setup is desired.                                    |
|                                                                             |
 -----------------------------------------------------------------------------

 POTCAR:    PAW_PBE Ge 05Jan2001                  
   VRHFIN =Ge: s2p2                                                                                 
   LEXCH  = PE                                                                                      
   EATOM  =   104.9960 eV,    7.7170 Ry                                                             
                                                                                                    
   TITEL  = PAW_PBE Ge 05Jan2001                                                                    
   LULTRA =        F    use ultrasoft PP ?                                                          
   IUNSCR =        1    unscreen: 0-lin 1-nonlin 2-no                                               
   RPACOR =    2.170    partial core radius                                                         
   POMASS =   72.610; ZVAL   =    4.000    mass and valenz                                          
   RCORE  =    2.300    outmost cutoff radius                                                       
   RWIGS  =    2.300; RWIGS  =    1.217    wigner-seitz radius (au A)                               
   ENMAX  =  173.807; ENMIN  =  130.355 eV                                                          
   ICORE  =        3    local potential                                                             
   LCOR   =        T    correct aug charges                                                         
   LPAW   =        T    paw PP                                                                      
   EAUG   =  385.843                                                                                
   DEXC   =    0.000                                                                                
   RMAX   =    2.342    core radius for proj-oper                                                   
   RAUG   =    1.300    factor for augmentation sphere                                              
   RDEP   =    2.318    radius for radial grids                                                     
   RDEPT  =    2.103    core radius for aug-charge                                                  
                                                                                                    
   Atomic configuration                                                                             
   10 entries                                                                                       
     n  l   j            E        occ.                                                              
     1  0  0.50    -10959.8463   2.0000                                                             
     2  0  0.50     -1371.6056   2.0000                                                             
     2  1  1.50     -1198.4791   6.0000                                                             
     3  0  0.50      -168.4733   2.0000                                                             
     3  1  1.50      -115.6019   6.0000                                                             
     3  2  2.50       -29.3106  10.0000                                                             
     4  0  0.50       -11.7309   2.0000                                                             
     4  1  0.50        -3.8952   2.0000                                                             
     4  2  1.50        -4.0817   0.0000                                                             
     4  3  2.50        -4.0817   0.0000                                                             
   Description                                                                                      
     l       E           TYP  RCUT    TYP  RCUT                                                     
     0    -11.7309493     23  2.300                                                                 
     0     -7.4578696     23  2.300                                                                 
     1     -3.8952261     23  2.300                                                                 
     1      6.1178114     23  2.300                                                                 
     2     -4.0817478     23  2.300                                                                 
     3     -1.3605826      7  2.300                                                                 
  local pseudopotential read in
  partial core-charges read in
  partial kinetic energy density read in
  atomic valenz-charges read in
  non local Contribution for L=            0  read in
    real space projection operators read in
  non local Contribution for L=            0  read in
    real space projection operators read in
  non local Contribution for L=            1  read in
    real space projection operators read in
  non local Contribution for L=            1  read in
    real space projection operators read in
  non local Contribution for L=            2  read in
    real space projection operators read in
    PAW grid and wavefunctions read in
 
   number of l-projection  operators is LMAX  =            5
   number of lm-projection operators is LMMAX =           13
 
 POTCAR:    PAW_PBE Se 06Sep2000                  
   VRHFIN =Se: s2p4                                                                                 
   LEXCH  = PE                                                                                      
   EATOM  =   257.1286 eV,   18.8984 Ry                                                             
                                                                                                    
   TITEL  = PAW_PBE Se 06Sep2000                                                                    
   LULTRA =        F    use ultrasoft PP ?                                                          
   IUNSCR =        1    unscreen: 0-lin 1-nonlin 2-no                                               
   RPACOR =    1.900    partial core radius                                                         
   POMASS =   78.960; ZVAL   =    6.000    mass and valenz                                          
   RCORE  =    2.100    outmost cutoff radius                                                       
   RWIGS  =    2.200; RWIGS  =    1.164    wigner-seitz radius (au A)                               
   ENMAX  =  211.555; ENMIN  =  158.666 eV                                                          
   ICORE  =        3    local potential                                                             
   LCOR   =        T    correct aug charges                                                         
   LPAW   =        T    paw PP                                                                      
   EAUG   =  446.842                                                                                
   DEXC   =    0.000                                                                                
   RMAX   =    2.147    core radius for proj-oper                                                   
   RAUG   =    1.300    factor for augmentation sphere                                              
   RDEP   =    2.177    radius for radial grids                                                     
   RDEPT  =    1.928    core radius for aug-charge                                                  
                                                                                                    
   Atomic configuration                                                                             
   10 entries                                                                                       
     n  l   j            E        occ.                                                              
     1  0  0.50    -12503.4787   2.0000                                                             
     2  0  0.50     -1606.9547   2.0000                                                             
     2  1  1.50     -1413.3140   6.0000                                                             
     3  0  0.50      -213.4885   2.0000                                                             
     3  1  1.50      -152.9538   6.0000                                                             
     3  2  2.50       -53.1221  10.0000                                                             
     4  0  0.50       -17.2865   2.0000                                                             
     4  1  0.50        -6.5110   4.0000                                                             
     4  2  2.50        -6.8029   0.0000                                                             
     4  3  2.50        -6.8029   0.0000                                                             
   Description                                                                                      
     l       E           TYP  RCUT    TYP  RCUT                                                     
     0    -17.2865377     23  2.100                                                                 
     0    -15.3094411     23  2.100                                                                 
     1     -6.5110275     23  2.100                                                                 
     1     -0.0695192     23  2.100                                                                 
     2     -6.8029130     23  2.100                                                                 
     3     -1.3605826      7  2.100                                                                 
  local pseudopotential read in
  partial core-charges read in
  partial kinetic energy density read in
  atomic valenz-charges read in
  non local Contribution for L=            0  read in
    real space projection operators read in
  non local Contribution for L=            0  read in
    real space projection operators read in
  non local Contribution for L=            1  read in
    real space projection operators read in
  non local Contribution for L=            1  read in
    real space projection operators read in
  non local Contribution for L=            2  read in
    real space projection operators read in
    PAW grid and wavefunctions read in
 
   number of l-projection  operators is LMAX  =            5
   number of lm-projection operators is LMMAX =           13
 
 -----------------------------------------------------------------------------
|                                                                             |
|               ----> ADVICE to this user running VASP <----                  |
|                                                                             |
|     You have a (more or less) 'large supercell' and for larger cells it     |
|     might be more efficient to use real-space projection operators.         |
|     Therefore, try LREAL= Auto in the INCAR file.                           |
|     Mind: For very accurate calculation, you might also keep the            |
|     reciprocal projection scheme (i.e. LREAL=.FALSE.).                      |
|                                                                             |
 -----------------------------------------------------------------------------

  PAW_PBE Ge 05Jan2001                  :
 energy of atom  1       EATOM= -104.9960
 kinetic energy error for atom=    0.0002 (will be added to EATOM!!)
  PAW_PBE Se 06Sep2000                  :
 energy of atom  2       EATOM= -257.1286
 kinetic energy error for atom=    0.0007 (will be added to EATOM!!)
 
 
 POSCAR: Ge Se
  positions in cartesian coordinates
  No initial velocities read in
 exchange correlation table for  LEXCH =        8
   RHO(1)=    0.500       N(1)  =     2000
   RHO(2)=  100.500       N(2)  =     4000
 


--------------------------------------------------------------------------------------------------------


 ion  position               nearest neighbor table
   1  0.053  0.048  0.139-  45 2.59  54 2.60  55 2.66
   2  0.242  0.860  0.359-  67 2.54  48 2.75
   3  0.554  0.201  0.373-  49 2.59  68 2.60
   4  0.581  0.529  0.355-  69 2.45  72 2.65
   5  0.572  0.866  0.366-  70 2.57  44 2.63
   6  0.900  0.205  0.376-  55 2.52  46 2.69  56 2.73
   7  0.886  0.541  0.361-  72 2.51  71 2.64  47 2.77
   8  0.903  0.873  0.368-  53 2.47  45 2.55  44 2.65
   9  0.071  0.149  0.626-  37 2.42  57 2.62  51 2.70
  10  0.079  0.481  0.617-  43 2.56  58 2.64  38 2.85
  11  0.082  0.814  0.627-  59 2.48  39 2.60  52 2.86
  12  0.405  0.166  0.624-  60 2.54  38 2.83
  13  0.416  0.473  0.613-  38 2.58  61 2.67  41 2.70
  14  0.408  0.821  0.638-  39 2.51  42 2.54  62 2.65
  15  0.745  0.169  0.639-  63 2.60  40 2.78  37 2.80
  16  0.735  0.489  0.641-  64 2.43  41 2.62  43 2.85
  17  0.211  0.540  0.366-  66 2.54  47 2.63  50 2.71
  18  0.226  0.201  0.391-  54 2.51  46 2.55  49 2.68
  19  0.724  0.816  0.620-  42 2.61  52 2.68  65 2.68
  20  0.913  0.658  0.848-  52 2.48  64 2.85
  21  0.920  0.967  0.871-  59 2.63  37 2.65  65 2.67
  22  0.089  0.355  0.137-  66 2.61  46 2.61  54 2.85
  23  0.058  0.701  0.132-  47 2.45  53 2.69
  24  0.405  0.048  0.140-  48 2.62  68 2.68  54 2.77
  25  0.412  0.382  0.116-  69 2.55  49 2.70  66 2.83
  26  0.715  0.038  0.132-  68 2.67  44 2.67
  27  0.761  0.361  0.150-  71 2.49  56 2.54  55 2.71
  28  0.409  0.709  0.125-  70 2.49  50 2.52  67 2.83
  29  0.249  0.318  0.856-  38 2.54  57 2.57  60 2.69
  30  0.246  0.643  0.871-  58 2.49  39 2.65  61 2.72
  31  0.239  0.985  0.865-  51 2.53  62 2.72  59 2.79
  32  0.570  0.306  0.886-  41 2.67  60 2.69  63 2.79
  33  0.566  0.639  0.884-  64 2.61  61 2.64  42 2.71
  34  0.591  0.001  0.864-  40 2.44  65 2.73
  35  0.924  0.327  0.862-  43 2.53  57 2.55  63 2.79
  36  0.737  0.708  0.126-  72 2.48  53 2.61
  37  0.920  0.028  0.642-   9 2.42  21 2.65  15 2.80
  38  0.258  0.339  0.628-  29 2.54  13 2.58  12 2.83  10 2.85
  39  0.253  0.693  0.639-  14 2.51  11 2.60  30 2.65
  40  0.590  0.009  0.644-  34 2.44  15 2.78
  41  0.585  0.341  0.649-  16 2.62  32 2.67  13 2.70
  42  0.561  0.687  0.646-  14 2.54  19 2.61  33 2.71
  43  0.918  0.353  0.636-  35 2.53  10 2.56  16 2.85
  44  0.734  0.002  0.369-   5 2.63   8 2.65  26 2.67
  45  0.062  0.003  0.367-   8 2.55   1 2.59
  46  0.072  0.335  0.372-  18 2.55  22 2.61   6 2.69
  47  0.057  0.683  0.353-  23 2.45  17 2.63   7 2.77
  48  0.398  0.016  0.373-  24 2.62   2 2.75
  49  0.393  0.332  0.353-   3 2.59  18 2.68  25 2.70
  50  0.387  0.668  0.347-  28 2.52  17 2.71
  51  0.235  0.007  0.639-  31 2.53   9 2.70
  52  0.893  0.683  0.627-  20 2.48  19 2.68  11 2.86
  53  0.896  0.843  0.148-   8 2.47  36 2.61  23 2.69
  54  0.221  0.170  0.168-  18 2.51   1 2.60  24 2.77  22 2.85
  55  0.891  0.187  0.149-   6 2.52   1 2.66  27 2.71
  56  0.736  0.350  0.377-  27 2.54   6 2.73
  57  0.082  0.197  0.856-  35 2.55  29 2.57   9 2.62
  58  0.094  0.513  0.852-  30 2.49  10 2.64
  59  0.079  0.829  0.850-  11 2.48  21 2.63  31 2.79
  60  0.405  0.169  0.853-  12 2.54  32 2.69  29 2.69
  61  0.409  0.499  0.852-  33 2.64  13 2.67  30 2.72
  62  0.414  0.853  0.874-  14 2.65  31 2.72
  63  0.755  0.180  0.874-  15 2.60  32 2.79  35 2.79
  64  0.734  0.515  0.859-  16 2.43  33 2.61  20 2.85
  65  0.744  0.845  0.858-  21 2.67  19 2.68  34 2.73
  66  0.226  0.512  0.140-  17 2.54  22 2.61  25 2.83
  67  0.236  0.857  0.130-   2 2.54  28 2.83
  68  0.565  0.192  0.139-   3 2.60  26 2.67  24 2.68
  69  0.575  0.506  0.135-   4 2.45  25 2.55
  70  0.552  0.848  0.136-  28 2.49   5 2.57
  71  0.896  0.507  0.126-  27 2.49   7 2.64
  72  0.735  0.675  0.347-  36 2.48   7 2.51   4 2.65
 

IMPORTANT INFORMATION: All symmetrisations will be switched off!
NOSYMM: (Re-)initialisation of all symmetry stuff for point group C_1.


----------------------------------------------------------------------------------------

                                     Primitive cell                                     

  volume of cell :    1718.7669

  direct lattice vectors                    reciprocal lattice vectors
    12.398748857 -0.000004682 -0.000002309     0.080653299  0.000000030  0.000000019
    -0.000004728 12.520132178  0.000002339     0.000000030  0.079871361 -0.000000019
    -0.000002654  0.000002662 11.072105201     0.000000017 -0.000000017  0.090317061

  length of vectors
    12.398748857 12.520132178 11.072105201     0.080653299  0.079871361  0.090317061

  position of ions in fractional coordinates (direct lattice)
     0.053484174  0.048321690  0.139426051
     0.242380217  0.860313883  0.358906896
     0.553697609  0.201146750  0.372839787
     0.580857225  0.528838235  0.355260722
     0.572397925  0.866211110  0.366105421
     0.899789832  0.204650330  0.375991093
     0.885689269  0.541252545  0.360604020
     0.903408009  0.873221727  0.367773625
     0.071421788  0.149005998  0.625665826
     0.078670335  0.480859433  0.617157636
     0.082007837  0.813612661  0.626762261
     0.404943081  0.166148463  0.623620635
     0.415901174  0.472527187  0.613323781
     0.408151329  0.821149334  0.637512325
     0.744829831  0.169281494  0.639481601
     0.734630617  0.488839362  0.641077707
     0.211440905  0.539703465  0.366291747
     0.225922637  0.200581074  0.391364776
     0.724372882  0.816453377  0.619606422
     0.913110895  0.657748647  0.847912678
     0.919680884  0.967422940  0.871249517
     0.088650096  0.354795413  0.137489422
     0.058233470  0.701306250  0.131920203
     0.404992100  0.047925808  0.140196252
     0.412115268  0.382376453  0.116434934
     0.714619086  0.038391882  0.132257382
     0.761266910  0.361048311  0.149976089
     0.408685642  0.709207546  0.125365229
     0.249107235  0.318040920  0.855837149
     0.245618686  0.642632496  0.871284608
     0.239213416  0.984583070  0.865380723
     0.569701817  0.305508589  0.885765445
     0.566168696  0.639056446  0.884396761
     0.590709128  0.001467720  0.864351242
     0.923679639  0.326648402  0.861822700
     0.736688851  0.707907987  0.125828403
     0.920040352  0.028049436  0.642106734
     0.258011356  0.338611032  0.628220762
     0.252581542  0.693147188  0.639230531
     0.589516047  0.009292589  0.644413759
     0.585409824  0.340902679  0.648601281
     0.561438034  0.686535585  0.645756077
     0.918317568  0.352706450  0.635642943
     0.733851729  0.002386485  0.368777646
     0.061592784  0.002936980  0.367322411
     0.072407263  0.335226605  0.371562015
     0.057321790  0.683185080  0.352695378
     0.398110122  0.015747650  0.373441524
     0.392831655  0.331841233  0.352874045
     0.386541178  0.668038161  0.347171752
     0.234887325  0.007037858  0.638667531
     0.893067717  0.683147600  0.626939886
     0.895730596  0.843484026  0.147713642
     0.220832528  0.170433644  0.167766720
     0.891385144  0.187048183  0.149033559
     0.735600843  0.350238233  0.377093891
     0.081715944  0.196531097  0.855851239
     0.093941201  0.513284534  0.851722907
     0.078503950  0.829111535  0.850218472
     0.405188895  0.168682160  0.853013995
     0.409441384  0.498997849  0.852437843
     0.413907163  0.852849490  0.873683191
     0.754962314  0.179760345  0.873835959
     0.734043162  0.514768170  0.858530847
     0.743861331  0.844847555  0.858305255
     0.226165310  0.512103006  0.139589978
     0.236183223  0.857001576  0.129667267
     0.565344456  0.191613349  0.138749245
     0.575096696  0.506069333  0.135413228
     0.551792184  0.848203793  0.136048372
     0.896097980  0.506752301  0.126124716
     0.735183935  0.674576496  0.346740317

  ion indices of the primitive-cell ions
   primitive index   ion index
                 1           1
                 2           2
                 3           3
                 4           4
                 5           5
                 6           6
                 7           7
                 8           8
                 9           9
                10          10
                11          11
                12          12
                13          13
                14          14
                15          15
                16          16
                17          17
                18          18
                19          19
                20          20
                21          21
                22          22
                23          23
                24          24
                25          25
                26          26
                27          27
                28          28
                29          29
                30          30
                31          31
                32          32
                33          33
                34          34
                35          35
                36          36
                37          37
                38          38
                39          39
                40          40
                41          41
                42          42
                43          43
                44          44
                45          45
                46          46
                47          47
                48          48
                49          49
                50          50
                51          51
                52          52
                53          53
                54          54
                55          55
                56          56
                57          57
                58          58
                59          59
                60          60
                61          61
                62          62
                63          63
                64          64
                65          65
                66          66
                67          67
                68          68
                69          69
                70          70
                71          71
                72          72

----------------------------------------------------------------------------------------

 
 
 KPOINTS: KPOINTS created by Atomic Simulation Env

Automatic generation of k-mesh.
 Grid dimensions read from file:
 generate k-points for:    2    2    2

 Generating k-lattice:

  Cartesian coordinates                     Fractional coordinates (reciprocal lattice)
     0.040326650  0.000000015  0.000000010     0.500000000 -0.000000000  0.000000000
     0.000000015  0.039935681 -0.000000010     0.000000000  0.500000000 -0.000000000
     0.000000008 -0.000000008  0.045158530    -0.000000000  0.000000000  0.500000000

  Length of vectors
     0.040326650  0.039935681  0.045158530

  Shift w.r.t. Gamma in fractional coordinates (k-lattice)
     0.000000000  0.000000000  0.000000000

 
 Subroutine IBZKPT returns following result:
 ===========================================
 
 Found      8 irreducible k-points:
 
 Following reciprocal coordinates:
            Coordinates               Weight
  0.000000  0.000000  0.000000      1.000000
  0.500000  0.000000  0.000000      1.000000
  0.000000  0.500000  0.000000      1.000000
  0.500000  0.500000  0.000000      1.000000
  0.000000  0.000000  0.500000      1.000000
  0.500000  0.000000  0.500000      1.000000
  0.000000  0.500000  0.500000      1.000000
  0.500000  0.500000  0.500000      1.000000
 
 Following cartesian coordinates:
            Coordinates               Weight
  0.000000  0.000000  0.000000      1.000000
  0.040327  0.000000  0.000000      1.000000
  0.000000  0.039936 -0.000000      1.000000
  0.040327  0.039936  0.000000      1.000000
  0.000000 -0.000000  0.045159      1.000000
  0.040327  0.000000  0.045159      1.000000
  0.000000  0.039936  0.045159      1.000000
  0.040327  0.039936  0.045159      1.000000
 
 -----------------------------------------------------------------------------
|                                                                             |
|           W    W    AA    RRRRR   N    N  II  N    N   GGGG   !!!           |
|           W    W   A  A   R    R  NN   N  II  NN   N  G    G  !!!           |
|           W    W  A    A  R    R  N N  N  II  N N  N  G       !!!           |
|           W WW W  AAAAAA  RRRRR   N  N N  II  N  N N  G  GGG   !            |
|           WW  WW  A    A  R   R   N   NN  II  N   NN  G    G                |
|           W    W  A    A  R    R  N    N  II  N    N   GGGG   !!!           |
|                                                                             |
|     The number of bands has been changed from the values supplied in        |
|     the INCAR file. This is a result of running the parallel version.       |
|     The orbitals not found in the WAVECAR file will be initialized with     |
|     random numbers, which is usually adequate. For correlated               |
|     calculations, however, you should redo the groundstate calculation.     |
|     I found NBANDS = 220. Now, NBANDS = 224.                                |
|                                                                             |
 -----------------------------------------------------------------------------



--------------------------------------------------------------------------------------------------------




 Dimension of arrays:
   k-points           NKPTS =      8   k-points in BZ     NKDIM =      8   number of bands    NBANDS=    224
   number of dos      NEDOS =    301   number of ions     NIONS =     72
   non local maximal  LDIM  =      5   non local SUM 2l+1 LMDIM =     13
   total plane-waves  NPLWV = 774144
   max r-space proj   IRMAX =      1   max aug-charges    IRDMAX=  24676
   dimension x,y,z NGX =    96 NGY =   96 NGZ =   84
   dimension x,y,z NGXF=   192 NGYF=  192 NGZF=  168
   support grid    NGXF=   192 NGYF=  192 NGZF=  168
   ions per type =              36  36
   NGX,Y,Z   is equivalent  to a cutoff of  12.87, 12.75, 12.61 a.u.
   NGXF,Y,Z  is equivalent  to a cutoff of  25.74, 25.49, 25.22 a.u.

 SYSTEM =  01_AOPT                                 
 POSCAR =  Ge Se                                   

 Startparameter for this run:
   NWRITE =      2    write-flag & timer
   PREC   = accura    normal or accurate (medium, high low for compatibility)
   ISTART =      0    job   : 0-new  1-cont  2-samecut
   ICHARG =      2    charge: 1-file 2-atom 10-const
   ISPIN  =      2    spin polarized calculation?
   LNONCOLLINEAR =      F non collinear calculations
   LSORBIT =      F    spin-orbit coupling
   INIWAV =      1    electr: 0-lowe 1-rand  2-diag
   LASPH  =      T    aspherical Exc in radial PAW
 Electronic Relaxation 1
   ENCUT  =  520.0 eV  38.22 Ry    6.18 a.u.  23.05 23.28 20.59*2*pi/ulx,y,z
   ENINI  =  520.0     initial cutoff
   ENAUG  =  446.8 eV  augmentation charge cutoff
   NELM   =    100;   NELMIN=  5; NELMDL=  0     # of ELM steps 
   EDIFF  = 0.1E-05   stopping-criterion for ELM
   LREAL  =      F    real-space projection
   NLSPLINE    = F    spline interpolate recip. space projectors
   LCOMPAT=      F    compatible to vasp.4.4
   GGA_COMPAT  = T    GGA compatible to vasp.4.4-vasp.4.6
   LMAXPAW     = -100 max onsite density
   LMAXMIX     =    2 max onsite mixed and CHGCAR
   VOSKOWN=      0    Vosko Wilk Nusair interpolation
   ROPT   =    0.00000   0.00000
 Ionic relaxation
   EDIFFG = 0.1E-04   stopping-criterion for IOM
   NSW    =      0    number of steps for IOM
   NBLOCK =      1;   KBLOCK =      1    inner block; outer block 
   IBRION =     -1    ionic relax: 0-MD 1-quasi-New 2-CG
   NFREE  =      0    steps in history (QN), initial steepest desc. (CG)
   ISIF   =      2    stress and relaxation
   IWAVPR =     10    prediction:  0-non 1-charg 2-wave 3-comb
   ISYM   =     -1    0-nonsym 1-usesym 2-fastsym
   LCORR  =      T    Harris-Foulkes like correction to forces

   POTIM  = 0.5000    time-step for ionic-motion
   TEIN   =    0.0    initial temperature
   TEBEG  =    0.0;   TEEND  =   0.0 temperature during run
   SMASS  =  -3.00    Nose mass-parameter (am)
   estimated Nose-frequenzy (Omega)   =  0.10E-29 period in steps = 0.13E+47 mass=  -0.351E-26a.u.
   SCALEE = 1.0000    scale energy and forces
   NPACO  =    256;   APACO  = 10.0  distance and # of slots for P.C.
   PSTRESS=    0.0 pullay stress

  Mass of Ions in am
   POMASS =  72.61 78.96
  Ionic Valenz
   ZVAL   =   4.00  6.00
  Atomic Wigner-Seitz radii
   RWIGS  =  -1.00 -1.00
  virtual crystal weights 
   VCA    =   1.00  1.00
   NELECT =     360.0000    total number of electrons
   NUPDOWN=      -1.0000    fix difference up-down

 DOS related values:
   EMIN   =  10.00;   EMAX   =-10.00  energy-range for DOS
   EFERMI =   0.00;   METHOD = LEGACY      
   ISMEAR =     0;   SIGMA  =   0.05  broadening in eV -4-tet -1-fermi 0-gaus

 Electronic relaxation 2 (details)
   IALGO  =     38    algorithm
   LDIAG  =      T    sub-space diagonalisation (order eigenvalues)
   LSUBROT=      F    optimize rotation matrix (better conditioning)
   TURBO    =      0    0=normal 1=particle mesh
   IRESTART =      0    0=no restart 2=restart with 2 vectors
   NREBOOT  =      0    no. of reboots
   NMIN     =      0    reboot dimension
   EREF     =   0.00    reference energy to select bands
   IMIX   =      4    mixing-type and parameters
     AMIX     =   0.40;   BMIX     =  1.00
     AMIX_MAG =   1.60;   BMIX_MAG =  1.00
     AMIN     =   0.10
     WC   =   100.;   INIMIX=   1;  MIXPRE=   1;  MAXMIX= -45

 Intra band minimization:
   WEIMIN = 0.0000     energy-eigenvalue tresh-hold
   EBREAK =  0.11E-08  absolut break condition
   DEPER  =   0.30     relativ break condition  

   TIME   =   0.40     timestep for ELM

  volume/ion in A,a.u.               =      23.87       161.09
  Fermi-wavevector in a.u.,A,eV,Ry     =   0.972232  1.837252 12.860709  0.945235
  Thomas-Fermi vector in A             =   2.102514
 
 Write flags
   LWAVE        =      F    write WAVECAR
   LDOWNSAMPLE  =      F    k-point downsampling of WAVECAR
   LCHARG       =      F    write CHGCAR
   LVTOT        =      F    write LOCPOT, total local potential
   LVHAR        =      F    write LOCPOT, Hartree potential only
   LELF         =      F    write electronic localiz. function (ELF)
   LORBIT       =     11    0 simple, 1 ext, 2 COOP (PROOUT), +10 PAW based schemes


 Dipole corrections
   LMONO  =      F    monopole corrections only (constant potential shift)
   LDIPOL =      F    correct potential (dipole corrections)
   IDIPOL =      0    1-x, 2-y, 3-z, 4-all directions 
   EPSILON=  1.0000000 bulk dielectric constant

 Exchange correlation treatment:
   GGA     =    PE    GGA type
   LEXCH   =     8    internal setting for exchange type
   LIBXC   =     F    Libxc                    
   VOSKOWN =     0    Vosko Wilk Nusair interpolation
   LHFCALC =     F    Hartree Fock is set to
   LHFONE  =     F    Hartree Fock one center treatment
   AEXX    =    0.0000 exact exchange contribution

 Linear response parameters
   LEPSILON=     F    determine dielectric tensor
   LRPA    =     F    only Hartree local field effects (RPA)
   LNABLA  =     F    use nabla operator in PAW spheres
   LVEL    =     F    velocity operator in full k-point grid
   CSHIFT  =0.1000    complex shift for real part using Kramers Kronig
   OMEGAMAX=  -1.0    maximum frequency
   DEG_THRESHOLD= 0.2000000E-02 threshold for treating states as degnerate
   RTIME   =   -0.100 relaxation time in fs
  (WPLASMAI=    0.000 imaginary part of plasma frequency in eV, 0.658/RTIME)
   DFIELD  = 0.0000000 0.0000000 0.0000000 field for delta impulse in time
 
  Optional k-point grid parameters
   LKPOINTS_OPT  =     F    use optional k-point grid
   KPOINTS_OPT_MODE=     1    mode for optional k-point grid
 
 Orbital magnetization related:
   ORBITALMAG=     F  switch on orbital magnetization
   LCHIMAG   =     F  perturbation theory with respect to B field
   DQ        =  0.001000  dq finite difference perturbation B field
   LLRAUG    =     F  two centre corrections for induced B field
   LBONE     =     F  B-component reconstruction in AE one-centre
   LVGVCALC  =     T  calculate vGv susceptibility
   LVGVAPPL  =     F  apply vGv susceptibility instead of pGv for G=0

 Random number generation:
   RANDOM_GENERATOR = DEFAULT
   PCG_SEED         = not used


--------------------------------------------------------------------------------------------------------


 Static calculation
 charge density and potential will be updated during run
 spin polarized calculation
 Variant of blocked Davidson
 Davidson routine will perform the subspace rotation
 perform sub-space diagonalisation
    after iterative eigenvector-optimisation
 modified Broyden-mixing scheme, WC =      100.0
 initial mixing is a Kerker type mixing with AMIX =  0.4000 and BMIX =      1.0000
 Hartree-type preconditioning will be used
 using additional bands            44
 reciprocal scheme for non local part
 use partial core corrections
 calculate Harris-corrections to forces 
   (improved forces if not selfconsistent)
 use gradient corrections 
 use of overlap-Matrix (Vanderbilt PP)
 Gauss-broadening in eV      SIGMA  =   0.05


--------------------------------------------------------------------------------------------------------


  energy-cutoff  :      520.00
  volume of cell :     1718.77
      direct lattice vectors                 reciprocal lattice vectors
    12.398748857 -0.000004682 -0.000002309     0.080653299  0.000000030  0.000000019
    -0.000004728 12.520132178  0.000002339     0.000000030  0.079871361 -0.000000019
    -0.000002654  0.000002662 11.072105201     0.000000017 -0.000000017  0.090317061

  length of vectors
    12.398748857 12.520132178 11.072105201     0.080653299  0.079871361  0.090317061


 
 k-points in units of 2pi/SCALE and weight: KPOINTS created by Atomic Simulation Env
   0.00000000  0.00000000  0.00000000       0.125
   0.04032665  0.00000002  0.00000001       0.125
   0.00000002  0.03993568 -0.00000001       0.125
   0.04032666  0.03993570  0.00000000       0.125
   0.00000001 -0.00000001  0.04515853       0.125
   0.04032666  0.00000001  0.04515854       0.125
   0.00000002  0.03993567  0.04515852       0.125
   0.04032667  0.03993569  0.04515853       0.125
 
 k-points in reciprocal lattice and weights: KPOINTS created by Atomic Simulation Env
   0.00000000  0.00000000  0.00000000       0.125
   0.50000000  0.00000000  0.00000000       0.125
   0.00000000  0.50000000  0.00000000       0.125
   0.50000000  0.50000000  0.00000000       0.125
   0.00000000  0.00000000  0.50000000       0.125
   0.50000000  0.00000000  0.50000000       0.125
   0.00000000  0.50000000  0.50000000       0.125
   0.50000000  0.50000000  0.50000000       0.125
 
 position of ions in fractional coordinates (direct lattice) 
   0.05348417  0.04832169  0.13942605
   0.24238022  0.86031388  0.35890690
   0.55369761  0.20114675  0.37283979
   0.58085722  0.52883824  0.35526072
   0.57239792  0.86621111  0.36610542
   0.89978983  0.20465033  0.37599109
   0.88568927  0.54125255  0.36060402
   0.90340801  0.87322173  0.36777363
   0.07142179  0.14900600  0.62566583
   0.07867034  0.48085943  0.61715764
   0.08200784  0.81361266  0.62676226
   0.40494308  0.16614846  0.62362064
   0.41590117  0.47252719  0.61332378
   0.40815133  0.82114933  0.63751232
   0.74482983  0.16928149  0.63948160
   0.73463062  0.48883936  0.64107771
   0.21144091  0.53970346  0.36629175
   0.22592264  0.20058107  0.39136478
   0.72437288  0.81645338  0.61960642
   0.91311090  0.65774865  0.84791268
   0.91968088  0.96742294  0.87124952
   0.08865010  0.35479541  0.13748942
   0.05823347  0.70130625  0.13192020
   0.40499210  0.04792581  0.14019625
   0.41211527  0.38237645  0.11643493
   0.71461909  0.03839188  0.13225738
   0.76126691  0.36104831  0.14997609
   0.40868564  0.70920755  0.12536523
   0.24910724  0.31804092  0.85583715
   0.24561869  0.64263250  0.87128461
   0.23921342  0.98458307  0.86538072
   0.56970182  0.30550859  0.88576544
   0.56616870  0.63905645  0.88439676
   0.59070913  0.00146772  0.86435124
   0.92367964  0.32664840  0.86182270
   0.73668885  0.70790799  0.12582840
   0.92004035  0.02804944  0.64210673
   0.25801136  0.33861103  0.62822076
   0.25258154  0.69314719  0.63923053
   0.58951605  0.00929259  0.64441376
   0.58540982  0.34090268  0.64860128
   0.56143803  0.68653559  0.64575608
   0.91831757  0.35270645  0.63564294
   0.73385173  0.00238648  0.36877765
   0.06159278  0.00293698  0.36732241
   0.07240726  0.33522660  0.37156202
   0.05732179  0.68318508  0.35269538
   0.39811012  0.01574765  0.37344152
   0.39283165  0.33184123  0.35287404
   0.38654118  0.66803816  0.34717175
   0.23488732  0.00703786  0.63866753
   0.89306772  0.68314760  0.62693989
   0.89573060  0.84348403  0.14771364
   0.22083253  0.17043364  0.16776672
   0.89138514  0.18704818  0.14903356
   0.73560084  0.35023823  0.37709389
   0.08171594  0.19653110  0.85585124
   0.09394120  0.51328453  0.85172291
   0.07850395  0.82911153  0.85021847
   0.40518890  0.16868216  0.85301399
   0.40944138  0.49899785  0.85243784
   0.41390716  0.85284949  0.87368319
   0.75496231  0.17976035  0.87383596
   0.73404316  0.51476817  0.85853085
   0.74386133  0.84484756  0.85830525
   0.22616531  0.51210301  0.13958998
   0.23618322  0.85700158  0.12966727
   0.56534446  0.19161335  0.13874925
   0.57509670  0.50606933  0.13541323
   0.55179218  0.84820379  0.13604837
   0.89609798  0.50675230  0.12612472
   0.73518393  0.67457650  0.34674032
 
 position of ions in cartesian coordinates  (Angst):
   0.66313624  0.60499406  1.54373989
   3.00520642 10.77124335  3.97385636
   6.86515566  2.51838230  4.12812053
   7.20189941  6.62112283  3.93348398
   7.09701305 10.84507588  4.05355844
  11.15626619  2.56224597  4.16301134
  10.98143529  6.77655022  3.99264486
  11.20112391 10.93284819  4.07202822
   0.88553844  1.86557612  6.92743803
   0.97540982  6.02042493  6.83323522
   1.01678907 10.18653934  6.93957940
   5.02078513  2.08020048  6.90479273
   5.15665034  5.91610252  6.79078557
   5.06056025 10.28089799  7.05860451
   9.23495551  2.11942490  7.08040623
   9.10849651  6.12033169  7.09807926
   2.62159916  6.75715870  4.05562153
   2.80115605  2.51130155  4.33323192
   8.98131194 10.22210245  6.86034773
  11.32142731  8.23509798  9.38817780
  11.40288542 12.11226109  9.64656644
   1.09914823  4.44208542  1.52229797
   0.72201850  8.78044703  1.46063587
   5.02139474  0.60003592  1.55226682
   5.10971159  4.78740212  1.28917978
   8.86038204  0.48066844  1.46436609
   9.43875513  4.52036941  1.66055012
   5.06718696  8.87937064  1.38805772
   3.08861428  3.98191546  9.47591912
   3.04535906  8.04584496  9.64695577
   2.96594012 12.32711136  9.58158816
   7.06358596  3.82500761  9.80728758
   7.01977810  8.00107088  9.79213417
   7.32405182  0.01837559  9.57018652
  11.45246804  4.08967914  9.54219023
   9.13401637  8.86309846  1.39318527
  11.40734743  0.35118005  7.10947125
   3.19901474  4.23945534  6.95572656
   3.13169013  8.67829493  7.07762873
   7.30925966  0.11634340  7.13501559
   7.25834605  4.26814558  7.18138106
   6.96112422  8.59551536  7.14987952
  11.38598554  4.41592876  7.03790424
   9.09884230  0.02987665  4.08314321
   0.76367248  0.03677207  4.06703224
   0.89775690  4.19708205  4.11397434
   0.71071431  8.55356817  3.90508179
   4.93606636  0.19716179  4.13478295
   4.87061853  4.15469520  3.90705842
   4.79262291  8.36392519  3.84392283
   2.91230722  0.08811551  7.07139357
  11.07291744  8.55309573  6.94154391
  11.10593432 10.56052769  1.63550088
   2.73804580  2.13385117  1.85753066
  11.05205925  2.34186420  1.65011363
   9.12052746  4.38502654  4.17522235
   1.01317227  2.46059721  9.47607522
   1.16474867  6.42639204  9.43036661
   0.97334458 10.38058790  9.41371013
   5.02383229  2.11192331  9.44466015
   5.07655627  6.24751938  9.43828170
   5.13192461 10.67778873  9.67351324
   9.36058496  2.25062207  9.67520234
   9.10121210  6.44496437  9.50574337
   9.22294356 10.57760187  9.50324633
   2.80416409  6.41159664  1.54555559
   2.92837207 10.72977225  1.43569109
   7.00956265  2.39902218  1.53624538
   7.13047675  6.33605261  1.49930936
   6.84152834 10.61962138  1.50634259
  11.11049108  6.34460193  1.39646524
   9.11535686  8.44578437  3.83914515
 


--------------------------------------------------------------------------------------------------------


 k-point   1 :   0.0000 0.0000 0.0000  plane waves:   46281
 k-point   2 :   0.5000 0.0000 0.0000  plane waves:   46306
 k-point   3 :   0.0000 0.5000 0.0000  plane waves:   46266
 k-point   4 :   0.5000 0.5000 0.0000  plane waves:   46372
 k-point   5 :   0.0000 0.0000 0.5000  plane waves:   46286
 k-point   6 :   0.5000 0.0000 0.5000  plane waves:   46256
 k-point   7 :   0.0000 0.5000 0.5000  plane waves:   46228
 k-point   8 :   0.5000 0.5000 0.5000  plane waves:   46280

 maximum and minimum number of plane-waves per node :      5838     5744

 maximum number of plane-waves:     46372
 maximum index in each direction: 
   IXMAX=   23   IYMAX=   23   IZMAX=   20
   IXMIN=  -23   IYMIN=  -23   IZMIN=  -21


 parallel 3D FFT for wavefunctions:
    minimum data exchange during FFTs selected (reduces bandwidth)
 parallel 3D FFT for charge:
    minimum data exchange during FFTs selected (reduces bandwidth)


 total amount of memory used by VASP MPI-rank0   110524. kBytes
=======================================================================

   base      :      30000. kBytes
   nonl-proj :      16287. kBytes
   fftplans  :       6179. kBytes
   grid      :      15593. kBytes
   one-center:        146. kBytes
   wavefun   :      42319. kBytes
 
     INWAV:  cpu time      0.0000: real time      0.0001
 Broyden mixing: mesh for mixing (old mesh)
   NGX = 47   NGY = 47   NGZ = 41
  (NGX  =192   NGY  =192   NGZ  =168)
  gives a total of  90569 points

 initial charge density was supplied:
 charge density of overlapping atoms calculated
 number of electron     360.0000000 magnetization      72.0000000
 keeping initial charge density in first step


--------------------------------------------------------------------------------------------------------


 Maximum index for augmentation-charges           727 (set IRDMAX)


--------------------------------------------------------------------------------------------------------


 First call to EWALD:  gamma=   0.148
 Maximum number of real-space cells 3x 3x 3
 Maximum number of reciprocal cells 3x 3x 3

    FEWALD:  cpu time      0.0041: real time      0.0041


--------------------------------------- Ionic step        1  -------------------------------------------




--------------------------------------- Iteration      1(   1)  ---------------------------------------


    POTLOK:  cpu time      0.1417: real time      0.1425
    SETDIJ:  cpu time      0.5932: real time      0.5948
     EDDAV:  cpu time      8.5957: real time      8.6367
       DOS:  cpu time      0.0015: real time      0.0015
    --------------------------------------------
      LOOP:  cpu time      9.3321: real time      9.3755

 eigenvalue-minimisations  :  7168
 total energy-change (2. order) : 0.1810637E+04  (-0.1419029E+05)
 number of electron     360.0000000 magnetization      72.0000000
 augmentation part      360.0000000 magnetization      72.0000000

 Free energy of the ion-electron system (eV)
  ---------------------------------------------------
  alpha Z        PSCENC =       798.53765116
  Ewald energy   TEWEN  =    -12891.91574088
  -Hartree energ DENC   =     -1094.32519888
  -exchange      EXHF   =         0.00000000
  -V(xc)+E(xc)   XCENC  =      -293.87516859
  PAW double counting   =     10738.42099860    -9719.93139476
  entropy T*S    EENTRO =        -0.02223864
  eigenvalues    EBANDS =      1237.29686022
  atomic energy  EATOM  =     13036.45147835
  Solvation  Ediel_sol  =         0.00000000
  ---------------------------------------------------
  free energy    TOTEN  =      1810.63724659 eV

  energy without entropy =     1810.65948522  energy(sigma->0) =     1810.64836590


--------------------------------------------------------------------------------------------------------




--------------------------------------- Iteration      1(   2)  ---------------------------------------


     EDDAV:  cpu time      9.7785: real time      9.8288
       DOS:  cpu time      0.0013: real time      0.0013
    --------------------------------------------
      LOOP:  cpu time      9.7798: real time      9.8301

 eigenvalue-minimisations  :  8496
 total energy-change (2. order) :-0.1875532E+04  (-0.1800028E+04)
 number of electron     360.0000000 magnetization      72.0000000
 augmentation part      360.0000000 magnetization      72.0000000

 Free energy of the ion-electron system (eV)
  ---------------------------------------------------
  alpha Z        PSCENC =       798.53765116
  Ewald energy   TEWEN  =    -12891.91574088
  -Hartree energ DENC   =     -1094.32519888
  -exchange      EXHF   =         0.00000000
  -V(xc)+E(xc)   XCENC  =      -293.87516859
  PAW double counting   =     10738.42099860    -9719.93139476
  entropy T*S    EENTRO =        -0.01530926
  eigenvalues    EBANDS =      -638.24168046
  atomic energy  EATOM  =     13036.45147835
  Solvation  Ediel_sol  =         0.00000000
  ---------------------------------------------------
  free energy    TOTEN  =       -64.89436471 eV

  energy without entropy =      -64.87905545  energy(sigma->0) =      -64.88671008


--------------------------------------------------------------------------------------------------------




--------------------------------------- Iteration      1(   3)  ---------------------------------------


     EDDAV:  cpu time      9.8148: real time      9.8624
       DOS:  cpu time      0.0012: real time      0.0012
    --------------------------------------------
      LOOP:  cpu time      9.8160: real time      9.8635

 eigenvalue-minimisations  :  8568
 total energy-change (2. order) :-0.2167860E+03  (-0.2107555E+03)
 number of electron     360.0000000 magnetization      72.0000000
 augmentation part      360.0000000 magnetization      72.0000000

 Free energy of the ion-electron system (eV)
  ---------------------------------------------------
  alpha Z        PSCENC =       798.53765116
  Ewald energy   TEWEN  =    -12891.91574088
  -Hartree energ DENC   =     -1094.32519888
  -exchange      EXHF   =         0.00000000
  -V(xc)+E(xc)   XCENC  =      -293.87516859
  PAW double counting   =     10738.42099860    -9719.93139476
  entropy T*S    EENTRO =        -0.00000751
  eigenvalues    EBANDS =      -855.04302319
  atomic energy  EATOM  =     13036.45147835
  Solvation  Ediel_sol  =         0.00000000
  ---------------------------------------------------
  free energy    TOTEN  =      -281.68040569 eV

  energy without entropy =     -281.68039818  energy(sigma->0) =     -281.68040194


--------------------------------------------------------------------------------------------------------




--------------------------------------- Iteration      1(   4)  ---------------------------------------


     EDDAV:  cpu time     10.0472: real time     10.0965
       DOS:  cpu time      0.0010: real time      0.0010
    --------------------------------------------
      LOOP:  cpu time     10.0482: real time     10.0975

 eigenvalue-minimisations  :  8824
 total energy-change (2. order) :-0.7940240E+01  (-0.7854161E+01)
 number of electron     360.0000000 magnetization      72.0000000
 augmentation part      360.0000000 magnetization      72.0000000

 Free energy of the ion-electron system (eV)
  ---------------------------------------------------
  alpha Z        PSCENC =       798.53765116
  Ewald energy   TEWEN  =    -12891.91574088
  -Hartree energ DENC   =     -1094.32519888
  -exchange      EXHF   =         0.00000000
  -V(xc)+E(xc)   XCENC  =      -293.87516859
  PAW double counting   =     10738.42099860    -9719.93139476
  entropy T*S    EENTRO =        -0.00000266
  eigenvalues    EBANDS =      -862.98326782
  atomic energy  EATOM  =     13036.45147835
  Solvation  Ediel_sol  =         0.00000000
  ---------------------------------------------------
  free energy    TOTEN  =      -289.62064548 eV

  energy without entropy =     -289.62064281  energy(sigma->0) =     -289.62064414


--------------------------------------------------------------------------------------------------------




--------------------------------------- Iteration      1(   5)  ---------------------------------------


     EDDAV:  cpu time     10.1803: real time     10.2305
       DOS:  cpu time      0.0009: real time      0.0010
    CHARGE:  cpu time      0.4206: real time      0.4224
    MIXING:  cpu time      0.0071: real time      0.0072
    --------------------------------------------
      LOOP:  cpu time     10.6090: real time     10.6611

 eigenvalue-minimisations  :  9024
 total energy-change (2. order) :-0.2712116E+00  (-0.2705072E+00)
 number of electron     359.9999993 magnetization      48.8238148
 augmentation part      -66.8701686 magnetization      49.0367944

 Broyden mixing:
  rms(total) = 0.29134E+01    rms(broyden)= 0.29134E+01
  rms(prec ) = 0.30729E+01
  weight for this iteration     100.00

 Free energy of the ion-electron system (eV)
  ---------------------------------------------------
  alpha Z        PSCENC =       798.53765116
  Ewald energy   TEWEN  =    -12891.91574088
  -Hartree energ DENC   =     -1094.32519888
  -exchange      EXHF   =         0.00000000
  -V(xc)+E(xc)   XCENC  =      -293.87516859
  PAW double counting   =     10738.42099860    -9719.93139476
  entropy T*S    EENTRO =        -0.00000352
  eigenvalues    EBANDS =      -863.25447854
  atomic energy  EATOM  =     13036.45147835
  Solvation  Ediel_sol  =         0.00000000
  ---------------------------------------------------
  free energy    TOTEN  =      -289.89185705 eV

  energy without entropy =     -289.89185353  energy(sigma->0) =     -289.89185529


--------------------------------------------------------------------------------------------------------




--------------------------------------- Iteration      1(   6)  ---------------------------------------


    POTLOK:  cpu time      0.1361: real time      0.1372
    SETDIJ:  cpu time      0.6044: real time      0.6065
     EDDAV:  cpu time      9.3745: real time      9.4212
       DOS:  cpu time      0.0013: real time      0.0013
    CHARGE:  cpu time      0.4237: real time      0.4256
    MIXING:  cpu time      0.0073: real time      0.0073
    --------------------------------------------
      LOOP:  cpu time     10.5472: real time     10.5991

 eigenvalue-minimisations  :  7968
 total energy-change (2. order) : 0.5670467E+00  (-0.2709334E+01)
 number of electron     359.9999993 magnetization      27.9753690
 augmentation part      -66.2545075 magnetization      29.1594074

 Broyden mixing:
  rms(total) = 0.17266E+01    rms(broyden)= 0.17266E+01
  rms(prec ) = 0.17626E+01
  weight for this iteration     100.00

 eigenvalues of (default mixing * dielectric matrix)
  average eigenvalue GAMMA=   1.0080
  1.0080

 Free energy of the ion-electron system (eV)
  ---------------------------------------------------
  alpha Z        PSCENC =       798.53765116
  Ewald energy   TEWEN  =    -12891.91574088
  -Hartree energ DENC   =     -1148.11444611
  -exchange      EXHF   =         0.00000000
  -V(xc)+E(xc)   XCENC  =      -287.43942416
  PAW double counting   =     13002.56846954   -11987.55004884
  entropy T*S    EENTRO =        -0.00001728
  eigenvalues    EBANDS =      -811.86273210
  atomic energy  EATOM  =     13036.45147835
  Solvation  Ediel_sol  =         0.00000000
  ---------------------------------------------------
  free energy    TOTEN  =      -289.32481033 eV

  energy without entropy =     -289.32479304  energy(sigma->0) =     -289.32480168


--------------------------------------------------------------------------------------------------------




--------------------------------------- Iteration      1(   7)  ---------------------------------------


    POTLOK:  cpu time      0.1318: real time      0.1324
    SETDIJ:  cpu time      0.6025: real time      0.6045
     EDDAV:  cpu time      9.5520: real time      9.6025
       DOS:  cpu time      0.0012: real time      0.0012
    CHARGE:  cpu time      0.4225: real time      0.4241
    MIXING:  cpu time      0.0076: real time      0.0076
    --------------------------------------------
      LOOP:  cpu time     10.7175: real time     10.7722

 eigenvalue-minimisations  :  8080
 total energy-change (2. order) :-0.7359664E+01  (-0.8712729E+00)
 number of electron     359.9999993 magnetization       9.4018142
 augmentation part      -66.2371140 magnetization      10.0775206

 Broyden mixing:
  rms(total) = 0.90993E+00    rms(broyden)= 0.90993E+00
  rms(prec ) = 0.92552E+00
  weight for this iteration     100.00

 eigenvalues of (default mixing * dielectric matrix)
  average eigenvalue GAMMA=   1.4462
  0.8620  2.0303

 Free energy of the ion-electron system (eV)
  ---------------------------------------------------
  alpha Z        PSCENC =       798.53765116
  Ewald energy   TEWEN  =    -12891.91574088
  -Hartree energ DENC   =     -1164.80066583
  -exchange      EXHF   =         0.00000000
  -V(xc)+E(xc)   XCENC  =      -290.41024191
  PAW double counting   =     15071.02034252   -14057.57572589
  entropy T*S    EENTRO =        -0.00000001
  eigenvalues    EBANDS =      -797.99157216
  atomic energy  EATOM  =     13036.45147835
  Solvation  Ediel_sol  =         0.00000000
  ---------------------------------------------------
  free energy    TOTEN  =      -296.68447463 eV

  energy without entropy =     -296.68447463  energy(sigma->0) =     -296.68447463


--------------------------------------------------------------------------------------------------------




--------------------------------------- Iteration      1(   8)  ---------------------------------------


    POTLOK:  cpu time      0.1315: real time      0.1322
    SETDIJ:  cpu time      0.6018: real time      0.6039
     EDDAV:  cpu time      9.4509: real time      9.4948
       DOS:  cpu time      0.0008: real time      0.0008
    CHARGE:  cpu time      0.4180: real time      0.4194
    MIXING:  cpu time      0.0081: real time      0.0081
    --------------------------------------------
      LOOP:  cpu time     10.6112: real time     10.6592

 eigenvalue-minimisations  :  8136
 total energy-change (2. order) :-0.3231198E+01  (-0.1701809E+00)
 number of electron     359.9999993 magnetization       4.4427133
 augmentation part      -66.2536653 magnetization       4.7540909

 Broyden mixing:
  rms(total) = 0.33623E+00    rms(broyden)= 0.33623E+00
  rms(prec ) = 0.34151E+00
  weight for this iteration     100.00

 eigenvalues of (default mixing * dielectric matrix)
  average eigenvalue GAMMA=   1.3570
  2.4955  0.9244  0.6510

 Free energy of the ion-electron system (eV)
  ---------------------------------------------------
  alpha Z        PSCENC =       798.53765116
  Ewald energy   TEWEN  =    -12891.91574088
  -Hartree energ DENC   =     -1168.64792246
  -exchange      EXHF   =         0.00000000
  -V(xc)+E(xc)   XCENC  =      -290.20118286
  PAW double counting   =     16809.35035570   -15796.79719528
  entropy T*S    EENTRO =        -0.00000000
  eigenvalues    EBANDS =      -796.69311636
  atomic energy  EATOM  =     13036.45147835
  Solvation  Ediel_sol  =         0.00000000
  ---------------------------------------------------
  free energy    TOTEN  =      -299.91567261 eV

  energy without entropy =     -299.91567261  energy(sigma->0) =     -299.91567261


--------------------------------------------------------------------------------------------------------




--------------------------------------- Iteration      1(   9)  ---------------------------------------


    POTLOK:  cpu time      0.1310: real time      0.1316
    SETDIJ:  cpu time      0.6032: real time      0.6055
     EDDAV:  cpu time     10.3312: real time     10.3809
       DOS:  cpu time      0.0008: real time      0.0008
    CHARGE:  cpu time      0.4205: real time      0.4223
    MIXING:  cpu time      0.0081: real time      0.0081
    --------------------------------------------
      LOOP:  cpu time     11.4948: real time     11.5491

 eigenvalue-minimisations  :  9088
 total energy-change (2. order) :-0.3958112E+00  (-0.4338630E-01)
 number of electron     359.9999993 magnetization       2.2901385
 augmentation part      -66.2933348 magnetization       2.4453117

 Broyden mixing:
  rms(total) = 0.14956E+00    rms(broyden)= 0.14956E+00
  rms(prec ) = 0.15121E+00
  weight for this iteration     100.00

 eigenvalues of (default mixing * dielectric matrix)
  average eigenvalue GAMMA=   1.3317
  2.6338  1.2395  0.8345  0.6188

 Free energy of the ion-electron system (eV)
  ---------------------------------------------------
  alpha Z        PSCENC =       798.53765116
  Ewald energy   TEWEN  =    -12891.91574088
  -Hartree energ DENC   =     -1167.52610562
  -exchange      EXHF   =         0.00000000
  -V(xc)+E(xc)   XCENC  =      -290.25106060
  PAW double counting   =     17103.62336469   -16091.40855532
  entropy T*S    EENTRO =        -0.00000000
  eigenvalues    EBANDS =      -797.82251556
  atomic energy  EATOM  =     13036.45147835
  Solvation  Ediel_sol  =         0.00000000
  ---------------------------------------------------
  free energy    TOTEN  =      -300.31148378 eV

  energy without entropy =     -300.31148378  energy(sigma->0) =     -300.31148378


--------------------------------------------------------------------------------------------------------




--------------------------------------- Iteration      1(  10)  ---------------------------------------


    POTLOK:  cpu time      0.1312: real time      0.1318
    SETDIJ:  cpu time      0.6041: real time      0.6060
     EDDAV:  cpu time      9.4917: real time      9.5356
       DOS:  cpu time      0.0008: real time      0.0008
    CHARGE:  cpu time      0.4197: real time      0.4221
    MIXING:  cpu time      0.0077: real time      0.0078
    --------------------------------------------
      LOOP:  cpu time     10.6553: real time     10.7040

 eigenvalue-minimisations  :  8128
 total energy-change (2. order) :-0.1094648E+00  (-0.1004030E-01)
 number of electron     359.9999993 magnetization       0.7312489
 augmentation part      -66.2961196 magnetization       0.7992582

 Broyden mixing:
  rms(total) = 0.73477E-01    rms(broyden)= 0.73477E-01
  rms(prec ) = 0.74547E-01
  weight for this iteration     100.00

 eigenvalues of (default mixing * dielectric matrix)
  average eigenvalue GAMMA=   1.3780
  2.7091  1.7538  0.9746  0.8271  0.6255

 Free energy of the ion-electron system (eV)
  ---------------------------------------------------
  alpha Z        PSCENC =       798.53765116
  Ewald energy   TEWEN  =    -12891.91574088
  -Hartree energ DENC   =     -1167.69196353
  -exchange      EXHF   =         0.00000000
  -V(xc)+E(xc)   XCENC  =      -290.24934742
  PAW double counting   =     17115.14803744   -16102.94621163
  entropy T*S    EENTRO =        -0.00000000
  eigenvalues    EBANDS =      -797.75485207
  atomic energy  EATOM  =     13036.45147835
  Solvation  Ediel_sol  =         0.00000000
  ---------------------------------------------------
  free energy    TOTEN  =      -300.42094857 eV

  energy without entropy =     -300.42094857  energy(sigma->0) =     -300.42094857


--------------------------------------------------------------------------------------------------------




--------------------------------------- Iteration      1(  11)  ---------------------------------------


    POTLOK:  cpu time      0.1305: real time      0.1311
    SETDIJ:  cpu time      0.6028: real time      0.6050
     EDDAV:  cpu time     10.2868: real time     10.3372
       DOS:  cpu time      0.0009: real time      0.0009
    CHARGE:  cpu time      0.4197: real time      0.4215
    MIXING:  cpu time      0.0075: real time      0.0075
    --------------------------------------------
      LOOP:  cpu time     11.4481: real time     11.5032

 eigenvalue-minimisations  :  9024
 total energy-change (2. order) :-0.3151524E-01  (-0.3704448E-02)
 number of electron     359.9999993 magnetization       0.1895063
 augmentation part      -66.2815093 magnetization       0.2081261

 Broyden mixing:
  rms(total) = 0.28383E-01    rms(broyden)= 0.28383E-01
  rms(prec ) = 0.28888E-01
  weight for this iteration     100.00

 eigenvalues of (default mixing * dielectric matrix)
  average eigenvalue GAMMA=   1.4044
  2.9114  2.1611  1.1733  0.8566  0.6995  0.6244

 Free energy of the ion-electron system (eV)
  ---------------------------------------------------
  alpha Z        PSCENC =       798.53765116
  Ewald energy   TEWEN  =    -12891.91574088
  -Hartree energ DENC   =     -1168.80921682
  -exchange      EXHF   =         0.00000000
  -V(xc)+E(xc)   XCENC  =      -290.20997901
  PAW double counting   =     17037.20021553   -16024.97132587
  entropy T*S    EENTRO =        -0.00000000
  eigenvalues    EBANDS =      -796.73554628
  atomic energy  EATOM  =     13036.45147835
  Solvation  Ediel_sol  =         0.00000000
  ---------------------------------------------------
  free energy    TOTEN  =      -300.45246381 eV

  energy without entropy =     -300.45246381  energy(sigma->0) =     -300.45246381


--------------------------------------------------------------------------------------------------------




--------------------------------------- Iteration      1(  12)  ---------------------------------------


    POTLOK:  cpu time      0.1343: real time      0.1362
    SETDIJ:  cpu time      0.6028: real time      0.6055
     EDDAV:  cpu time      9.8054: real time      9.8554
       DOS:  cpu time      0.0008: real time      0.0008
    CHARGE:  cpu time      0.4156: real time      0.4177
    MIXING:  cpu time      0.0081: real time      0.0082
    --------------------------------------------
      LOOP:  cpu time     10.9670: real time     11.0239

 eigenvalue-minimisations  :  8472
 total energy-change (2. order) :-0.3194812E-02  (-0.4385656E-03)
 number of electron     359.9999993 magnetization       0.0633383
 augmentation part      -66.2811766 magnetization       0.0680905

 Broyden mixing:
  rms(total) = 0.11070E-01    rms(broyden)= 0.11070E-01
  rms(prec ) = 0.11658E-01
  weight for this iteration     100.00

 eigenvalues of (default mixing * dielectric matrix)
  average eigenvalue GAMMA=   1.3666
  3.0033  2.3206  1.1974  0.8894  0.8894  0.6103  0.6559

 Free energy of the ion-electron system (eV)
  ---------------------------------------------------
  alpha Z        PSCENC =       798.53765116
  Ewald energy   TEWEN  =    -12891.91574088
  -Hartree energ DENC   =     -1168.88380216
  -exchange      EXHF   =         0.00000000
  -V(xc)+E(xc)   XCENC  =      -290.21507311
  PAW double counting   =     17001.86161778   -15989.61023485
  entropy T*S    EENTRO =        -0.00000000
  eigenvalues    EBANDS =      -796.68155492
  atomic energy  EATOM  =     13036.45147835
  Solvation  Ediel_sol  =         0.00000000
  ---------------------------------------------------
  free energy    TOTEN  =      -300.45565862 eV

  energy without entropy =     -300.45565862  energy(sigma->0) =     -300.45565862


--------------------------------------------------------------------------------------------------------




--------------------------------------- Iteration      1(  13)  ---------------------------------------


    POTLOK:  cpu time      0.1308: real time      0.1316
    SETDIJ:  cpu time      0.6048: real time      0.6072
     EDDAV:  cpu time     11.0217: real time     11.0825
       DOS:  cpu time      0.0011: real time      0.0011
    CHARGE:  cpu time      0.4128: real time      0.4145
    MIXING:  cpu time      0.0080: real time      0.0080
    --------------------------------------------
      LOOP:  cpu time     12.1792: real time     12.2449

 eigenvalue-minimisations  :  9792
 total energy-change (2. order) :-0.1313886E-03  (-0.6577058E-04)
 number of electron     359.9999993 magnetization       0.0167458
 augmentation part      -66.2824884 magnetization       0.0176619

 Broyden mixing:
  rms(total) = 0.45176E-02    rms(broyden)= 0.45176E-02
  rms(prec ) = 0.47075E-02
  weight for this iteration     100.00

 eigenvalues of (default mixing * dielectric matrix)
  average eigenvalue GAMMA=   1.3515
  3.0552  2.4303  1.1307  1.1307  0.9332  0.8735  0.6502  0.6081

 Free energy of the ion-electron system (eV)
  ---------------------------------------------------
  alpha Z        PSCENC =       798.53765116
  Ewald energy   TEWEN  =    -12891.91574088
  -Hartree energ DENC   =     -1168.78137461
  -exchange      EXHF   =         0.00000000
  -V(xc)+E(xc)   XCENC  =      -290.22624029
  PAW double counting   =     16987.50444523   -15975.24166750
  entropy T*S    EENTRO =        -0.00000000
  eigenvalues    EBANDS =      -796.78434149
  atomic energy  EATOM  =     13036.45147835
  Solvation  Ediel_sol  =         0.00000000
  ---------------------------------------------------
  free energy    TOTEN  =      -300.45579001 eV

  energy without entropy =     -300.45579001  energy(sigma->0) =     -300.45579001


--------------------------------------------------------------------------------------------------------




--------------------------------------- Iteration      1(  14)  ---------------------------------------


    POTLOK:  cpu time      0.1308: real time      0.1315
    SETDIJ:  cpu time      0.6047: real time      0.6070
     EDDAV:  cpu time      9.7344: real time      9.7874
       DOS:  cpu time      0.0008: real time      0.0008
    CHARGE:  cpu time      0.4193: real time      0.4209
    MIXING:  cpu time      0.0085: real time      0.0085
    --------------------------------------------
      LOOP:  cpu time     10.8984: real time     10.9560

 eigenvalue-minimisations  :  8336
 total energy-change (2. order) :-0.1801650E-04  (-0.8635046E-05)
 number of electron     359.9999993 magnetization       0.0054711
 augmentation part      -66.2821207 magnetization       0.0058657

 Broyden mixing:
  rms(total) = 0.17373E-02    rms(broyden)= 0.17373E-02
  rms(prec ) = 0.18349E-02
  weight for this iteration     100.00

 eigenvalues of (default mixing * dielectric matrix)
  average eigenvalue GAMMA=   1.3338
  3.0834  2.4617  1.4672  1.1947  0.8867  0.8867  0.7698  0.6105  0.6439

 Free energy of the ion-electron system (eV)
  ---------------------------------------------------
  alpha Z        PSCENC =       798.53765116
  Ewald energy   TEWEN  =    -12891.91574088
  -Hartree energ DENC   =     -1168.78875846
  -exchange      EXHF   =         0.00000000
  -V(xc)+E(xc)   XCENC  =      -290.22682266
  PAW double counting   =     16982.94658928   -15970.68100728
  entropy T*S    EENTRO =        -0.00000000
  eigenvalues    EBANDS =      -796.77919755
  atomic energy  EATOM  =     13036.45147835
  Solvation  Ediel_sol  =         0.00000000
  ---------------------------------------------------
  free energy    TOTEN  =      -300.45580803 eV

  energy without entropy =     -300.45580803  energy(sigma->0) =     -300.45580803


--------------------------------------------------------------------------------------------------------




--------------------------------------- Iteration      1(  15)  ---------------------------------------


    POTLOK:  cpu time      0.1310: real time      0.1317
    SETDIJ:  cpu time      0.6034: real time      0.6056
     EDDAV:  cpu time     10.0262: real time     10.0784
       DOS:  cpu time      0.0010: real time      0.0010
    CHARGE:  cpu time      0.4166: real time      0.4182
    MIXING:  cpu time      0.0082: real time      0.0082
    --------------------------------------------
      LOOP:  cpu time     11.1862: real time     11.2430

 eigenvalue-minimisations  :  8648
 total energy-change (2. order) :-0.3229063E-05  (-0.1604315E-05)
 number of electron     359.9999993 magnetization       0.0019353
 augmentation part      -66.2822327 magnetization       0.0021539

 Broyden mixing:
  rms(total) = 0.79284E-03    rms(broyden)= 0.79284E-03
  rms(prec ) = 0.83784E-03
  weight for this iteration     100.00

 eigenvalues of (default mixing * dielectric matrix)
  average eigenvalue GAMMA=   1.3029
  3.0946  2.4312  1.6817  1.1129  0.9683  0.9683  0.8299  0.7028  0.6195  0.6195

 Free energy of the ion-electron system (eV)
  ---------------------------------------------------
  alpha Z        PSCENC =       798.53765116
  Ewald energy   TEWEN  =    -12891.91574088
  -Hartree energ DENC   =     -1168.77724338
  -exchange      EXHF   =         0.00000000
  -V(xc)+E(xc)   XCENC  =      -290.22718790
  PAW double counting   =     16982.50246914   -15970.23618952
  entropy T*S    EENTRO =        -0.00000000
  eigenvalues    EBANDS =      -796.79104825
  atomic energy  EATOM  =     13036.45147835
  Solvation  Ediel_sol  =         0.00000000
  ---------------------------------------------------
  free energy    TOTEN  =      -300.45581126 eV

  energy without entropy =     -300.45581126  energy(sigma->0) =     -300.45581126


--------------------------------------------------------------------------------------------------------




--------------------------------------- Iteration      1(  16)  ---------------------------------------


    POTLOK:  cpu time      0.1301: real time      0.1308
    SETDIJ:  cpu time      0.6045: real time      0.6068
     EDDAV:  cpu time      6.6462: real time      6.6810
       DOS:  cpu time      0.0013: real time      0.0013
    --------------------------------------------
      LOOP:  cpu time      7.3821: real time      7.4198

 eigenvalue-minimisations  :  4832
 total energy-change (2. order) :-0.5876850E-06  (-0.1415031E-06)
 number of electron     359.9999993 magnetization       0.0019353
 augmentation part      -66.2822327 magnetization       0.0021539

 Free energy of the ion-electron system (eV)
  ---------------------------------------------------
  alpha Z        PSCENC =       798.53765116
  Ewald energy   TEWEN  =    -12891.91574088
  -Hartree energ DENC   =     -1168.76969180
  -exchange      EXHF   =         0.00000000
  -V(xc)+E(xc)   XCENC  =      -290.22752453
  PAW double counting   =     16982.47168426   -15970.20514626
  entropy T*S    EENTRO =        -0.00000000
  eigenvalues    EBANDS =      -796.79852215
  atomic energy  EATOM  =     13036.45147835
  Solvation  Ediel_sol  =         0.00000000
  ---------------------------------------------------
  free energy    TOTEN  =      -300.45581185 eV

  energy without entropy =     -300.45581185  energy(sigma->0) =     -300.45581185


--------------------------------------------------------------------------------------------------------




 average (electrostatic) potential at core
  the test charge radii are     1.1631  1.0808
  (the norm of the test charge is              1.0000)
       1 -33.4041       2 -33.4267       3 -33.6041       4 -33.5213       5 -33.5290
       6 -33.5474       7 -33.5224       8 -33.2221       9 -33.2504      10 -33.7140
      11 -33.4056      12 -33.7501      13 -33.5971      14 -33.1410      15 -33.5504
      16 -33.3728      17 -33.4379      18 -33.3623      19 -33.4384      20 -33.5407
      21 -33.3974      22 -33.5169      23 -33.5043      24 -33.5439      25 -33.6306
      26 -33.7198      27 -33.3150      28 -33.2768      29 -33.3775      30 -33.3659
      31 -33.3837      32 -33.6315      33 -33.4703      34 -33.3252      35 -33.3826
      36 -33.5818      37 -54.6710      38 -55.0674      39 -54.7649      40 -54.6627
      41 -54.9362      42 -54.7362      43 -54.9223      44 -54.8073      45 -54.7282
      46 -54.9433      47 -54.9309      48 -54.7583      49 -54.7699      50 -54.5415
      51 -54.6849      52 -54.7402      53 -54.9113      54 -54.8756      55 -54.9747
      56 -54.8569      57 -54.8067      58 -54.8264      59 -54.9205      60 -54.9589
      61 -54.8469      62 -54.4645      63 -54.7718      64 -54.7206      65 -54.7076
      66 -54.8315      67 -54.5538      68 -55.0226      69 -54.8983      70 -54.9755
      71 -54.7376      72 -55.1170
 
 
 
 E-fermi :   3.5470     XC(G=0):  -9.3906     alpha+bet : -8.8392

 Fermi energy:         3.5470101080

 spin component 1

 k-point     1 :       0.0000    0.0000    0.0000
  band No.  band energies     occupation 
      1     -10.8818      1.00000
      2     -10.5755      1.00000
      3     -10.4200      1.00000
      4     -10.3126      1.00000
      5     -10.2265      1.00000
      6     -10.1941      1.00000
      7     -10.1345      1.00000
      8     -10.0198      1.00000
      9      -9.9662      1.00000
     10      -9.9201      1.00000
     11      -9.8870      1.00000
     12      -9.8411      1.00000
     13      -9.7705      1.00000
     14      -9.7177      1.00000
     15      -9.6693      1.00000
     16      -9.6246      1.00000
     17      -9.6067      1.00000
     18      -9.5321      1.00000
     19      -9.4968      1.00000
     20      -9.4586      1.00000
     21      -9.4488      1.00000
     22      -9.3873      1.00000
     23      -9.3474      1.00000
     24      -9.3145      1.00000
     25      -9.2852      1.00000
     26      -9.2183      1.00000
     27      -9.1813      1.00000
     28      -9.1645      1.00000
     29      -9.1156      1.00000
     30      -9.1013      1.00000
     31      -9.0747      1.00000
     32      -9.0524      1.00000
     33      -8.9956      1.00000
     34      -8.9530      1.00000
     35      -8.9347      1.00000
     36      -8.6973      1.00000
     37      -5.3854      1.00000
     38      -5.3190      1.00000
     39      -5.2918      1.00000
     40      -5.1735      1.00000
     41      -5.0993      1.00000
     42      -5.0430      1.00000
     43      -4.9356      1.00000
     44      -4.9071      1.00000
     45      -4.8289      1.00000
     46      -4.7176      1.00000
     47      -4.5729      1.00000
     48      -4.5041      1.00000
     49      -4.4839      1.00000
     50      -4.4059      1.00000
     51      -4.3885      1.00000
     52      -4.3563      1.00000
     53      -4.3242      1.00000
     54      -4.3060      1.00000
     55      -4.2605      1.00000
     56      -4.2492      1.00000
     57      -4.2030      1.00000
     58      -4.1951      1.00000
     59      -4.1558      1.00000
     60      -4.1139      1.00000
     61      -4.1053      1.00000
     62      -4.0313      1.00000
     63      -3.9918      1.00000
     64      -3.9418      1.00000
     65      -3.8879      1.00000
     66      -3.7604      1.00000
     67      -3.7118      1.00000
     68      -3.6956      1.00000
     69      -3.5114      1.00000
     70      -3.4439      1.00000
     71      -2.4798      1.00000
     72      -2.3640      1.00000
     73      -1.8197      1.00000
     74      -1.6123      1.00000
     75      -1.6005      1.00000
     76      -1.5305      1.00000
     77      -1.4959      1.00000
     78      -1.4395      1.00000
     79      -1.3436      1.00000
     80      -1.2718      1.00000
     81      -1.2435      1.00000
     82      -1.1559      1.00000
     83      -1.1370      1.00000
     84      -1.0364      1.00000
     85      -0.9883      1.00000
     86      -0.8269      1.00000
     87      -0.7532      1.00000
     88      -0.7450      1.00000
     89      -0.7066      1.00000
     90      -0.5899      1.00000
     91      -0.5244      1.00000
     92      -0.4848      1.00000
     93      -0.4196      1.00000
     94      -0.3392      1.00000
     95      -0.1647      1.00000
     96      -0.0764      1.00000
     97      -0.0708      1.00000
     98       0.0168      1.00000
     99       0.0893      1.00000
    100       0.1223      1.00000
    101       0.1643      1.00000
    102       0.1853      1.00000
    103       0.2206      1.00000
    104       0.2337      1.00000
    105       0.2544      1.00000
    106       0.3210      1.00000
    107       0.3541      1.00000
    108       0.3925      1.00000
    109       0.4255      1.00000
    110       0.4696      1.00000
    111       0.5277      1.00000
    112       0.5577      1.00000
    113       0.5978      1.00000
    114       0.6236      1.00000
    115       0.6394      1.00000
    116       0.6837      1.00000
    117       0.7116      1.00000
    118       0.7570      1.00000
    119       0.7828      1.00000
    120       0.7999      1.00000
    121       0.8341      1.00000
    122       0.8778      1.00000
    123       0.9439      1.00000
    124       0.9936      1.00000
    125       1.0027      1.00000
    126       1.0476      1.00000
    127       1.0688      1.00000
    128       1.0905      1.00000
    129       1.1414      1.00000
    130       1.1668      1.00000
    131       1.2179      1.00000
    132       1.2322      1.00000
    133       1.2493      1.00000
    134       1.3315      1.00000
    135       1.3811      1.00000
    136       1.4078      1.00000
    137       1.4343      1.00000
    138       1.4764      1.00000
    139       1.4788      1.00000
    140       1.5567      1.00000
    141       1.5977      1.00000
    142       1.6199      1.00000
    143       1.6949      1.00000
    144       1.7208      1.00000
    145       1.7250      1.00000
    146       1.7585      1.00000
    147       1.8127      1.00000
    148       1.8607      1.00000
    149       1.8829      1.00000
    150       1.9426      1.00000
    151       1.9626      1.00000
    152       1.9790      1.00000
[...]
   0.767E+01 -.116E+02 -.285E+02   -.832E+01 0.138E+02 0.314E+02   0.390E+00 -.211E+01 -.263E+01   0.207E-03 -.186E-03 -.596E-05
   0.477E+01 0.272E+01 0.317E+02   -.540E+01 -.435E+01 -.347E+02   0.583E+00 0.170E+01 0.246E+01   -.277E-03 0.101E-03 0.244E-03
   0.198E+02 0.224E+02 0.105E+02   -.207E+02 -.239E+02 -.121E+02   0.644E-01 0.689E+00 0.202E+01   0.523E-03 -.104E-03 0.141E-03
   0.924E+01 -.924E+01 0.174E+02   -.984E+01 0.870E+01 -.192E+02   0.233E+00 0.666E+00 0.185E+01   -.126E-03 -.267E-03 0.955E-04
   0.482E+00 0.208E+02 0.265E+02   -.509E+00 -.224E+02 -.281E+02   -.271E+00 0.756E+00 0.174E+01   0.342E-03 0.350E-03 0.308E-03
   0.599E+01 0.382E+01 0.301E+02   -.646E+01 -.400E+01 -.321E+02   0.425E+00 0.876E+00 0.160E+01   -.593E-04 -.454E-03 0.275E-03
   -.221E+00 0.457E+01 0.216E+02   0.508E+00 -.527E+01 -.229E+02   -.727E+00 0.494E+00 0.147E+01   -.159E-05 0.295E-03 0.295E-04
   -.729E+00 0.154E+02 0.269E+02   0.696E+00 -.169E+02 -.283E+02   0.510E+00 0.889E+00 0.166E+01   -.113E-03 0.275E-03 0.148E-03
   0.113E+02 -.213E+01 0.172E+02   -.118E+02 0.127E+01 -.192E+02   -.574E-02 0.879E+00 0.195E+01   0.382E-04 -.255E-03 0.328E-03
   0.251E+01 -.140E+02 -.205E+02   -.253E+01 0.152E+02 0.222E+02   -.233E+00 -.869E+00 -.229E+01   0.130E-03 -.358E-03 0.940E-04
   -.609E+01 0.273E+01 -.168E+02   0.672E+01 -.205E+01 0.184E+02   -.545E+00 -.415E+00 -.204E+01   -.473E-04 0.152E-03 -.184E-04
   0.113E+02 -.244E+02 -.128E+02   -.118E+02 0.256E+02 0.144E+02   -.187E-01 -.775E+00 -.192E+01   0.391E-03 -.333E-03 -.414E-04
   -.517E+01 -.405E+01 -.302E+02   0.474E+01 0.480E+01 0.323E+02   0.471E+00 -.957E+00 -.160E+01   0.118E-03 -.433E-05 -.111E-03
   -.749E+01 0.909E+01 -.229E+02   0.745E+01 -.892E+01 0.247E+02   0.461E+00 -.569E+00 -.232E+01   -.232E-04 -.155E-03 0.136E-03
   -.572E+01 -.269E+02 -.939E+01   0.544E+01 0.283E+02 0.106E+02   0.478E+00 -.967E+00 -.135E+01   -.222E-03 -.538E-05 0.521E-06
   -.111E+02 0.148E+01 -.311E+02   0.115E+02 -.113E+01 0.332E+02   -.316E+00 -.176E+00 -.175E+01   0.210E-03 0.398E-04 -.522E-03
   -.844E+01 0.120E+02 0.183E+02   0.878E+01 -.124E+02 -.202E+02   -.217E+00 0.852E+00 0.183E+01   -.315E-03 0.881E-04 0.711E-04
   -.463E+01 0.556E+01 0.229E+02   0.491E+01 -.604E+01 -.249E+02   0.182E+00 0.209E+00 0.193E+01   -.261E-03 0.373E-03 0.473E-04
   -.249E+01 -.158E+02 0.412E+02   0.262E+01 0.171E+02 -.434E+02   -.896E-01 -.125E+01 0.139E+01   0.117E-03 0.269E-03 -.128E-03
   -.118E+02 -.488E+00 0.471E+02   0.122E+02 0.119E+01 -.488E+02   -.305E+00 -.522E+00 0.879E+00   -.213E-03 -.423E-04 -.587E-04
   -.166E+01 0.826E+01 0.352E+02   0.155E+01 -.818E+01 -.373E+02   0.286E-01 -.510E+00 0.191E+01   0.187E-03 -.176E-03 -.105E-03
   0.935E+01 0.698E+00 -.266E+02   -.977E+01 -.660E+00 0.288E+02   0.344E+00 -.133E+00 -.229E+01   -.799E-04 0.211E-03 -.349E-03
   0.219E+01 0.228E+02 -.395E+02   -.213E+01 -.243E+02 0.413E+02   -.661E-01 0.966E+00 -.179E+01   0.636E-05 -.348E-03 -.143E-03
   0.152E+02 0.264E+01 -.255E+02   -.160E+02 -.349E+01 0.271E+02   0.496E-01 0.484E+00 -.203E+01   0.265E-03 0.371E-04 0.332E-03
   0.114E+01 0.295E+01 -.368E+02   -.738E+00 -.351E+01 0.387E+02   -.502E+00 0.818E+00 -.150E+01   -.932E-04 0.416E-03 0.171E-03
   0.320E+01 0.164E+02 -.352E+02   -.329E+01 -.174E+02 0.368E+02   0.203E+00 0.121E+01 -.148E+01   -.318E-03 0.436E-04 0.232E-03
   0.239E+01 -.111E+01 -.195E+02   -.255E+01 0.408E+00 0.206E+02   0.211E+00 0.107E+01 -.134E+01   -.747E-04 0.402E-03 0.416E-03
   -.214E+01 0.485E+01 -.186E+02   0.246E+01 -.556E+01 0.202E+02   -.455E+00 0.108E+01 -.227E+01   0.719E-04 -.381E-03 -.253E-03
   -.938E+01 0.838E+01 -.248E+02   0.968E+01 -.896E+01 0.265E+02   -.551E+00 0.883E+00 -.213E+01   0.193E-03 -.251E-03 0.703E-04
   -.121E+02 0.458E+01 -.298E+02   0.127E+02 -.558E+01 0.320E+02   -.417E+00 0.995E+00 -.168E+01   -.286E-03 0.225E-03 -.709E-04
   -.818E+00 0.890E+01 -.246E+02   0.541E+00 -.987E+01 0.260E+02   0.564E+00 0.105E+01 -.179E+01   -.291E-04 0.190E-03 -.155E-04
   -.584E+01 -.109E+02 0.271E+02   0.605E+01 0.118E+02 -.288E+02   -.325E-01 -.121E+01 0.170E+01   0.239E-03 0.210E-03 -.262E-04
   0.102E+02 -.405E+01 0.288E+02   -.104E+02 0.450E+01 -.306E+02   0.512E-01 -.104E+01 0.211E+01   0.988E-04 -.334E-03 -.166E-03
   -.290E+01 -.453E+01 0.216E+02   0.285E+01 0.523E+01 -.228E+02   0.136E+00 -.121E+01 0.156E+01   -.535E-04 0.946E-04 0.485E-04
   -.130E+01 -.914E+01 0.239E+02   0.210E+01 0.972E+01 -.258E+02   -.848E+00 -.572E+00 0.160E+01   -.120E-03 0.383E-03 -.941E-05
   -.114E+02 -.994E+01 0.210E+02   0.119E+02 0.108E+02 -.228E+02   0.410E+00 -.480E+00 0.219E+01   -.239E-03 -.621E-03 -.104E-03
   -.181E+02 -.107E+02 0.353E+02   0.188E+02 0.112E+02 -.373E+02   -.159E+00 -.150E+00 0.243E+01   -.136E-03 -.169E-03 0.566E-04
   0.135E+02 -.148E+02 -.321E+02   -.138E+02 0.161E+02 0.342E+02   -.219E+00 -.103E+01 -.150E+01   -.356E-03 0.101E-03 0.113E-03
 -----------------------------------------------------------------------------------------------
   -.205E+01 -.472E+00 0.655E+00   -.249E-13 0.320E-13 0.284E-13   0.205E+01 0.472E+00 -.655E+00   -.297E-03 -.176E-03 0.913E-03
 
 
 POSITION                                       TOTAL-FORCE (eV/Angst)
 -----------------------------------------------------------------------------------
      0.66314      0.60499      1.54374         0.337263     -0.377436      0.120170
      3.00521     10.77124      3.97386         0.016656      0.161381     -0.207240
      6.86516      2.51838      4.12812         0.079582      0.126282     -0.232201
      7.20190      6.62112      3.93348        -0.328188      0.127715      0.464951
      7.09701     10.84508      4.05356        -0.363850      0.273517      0.095035
     11.15627      2.56225      4.16301         0.076242      0.032117      0.109189
     10.98144      6.77655      3.99264         0.594255     -0.391918     -0.239657
     11.20112     10.93285      4.07203        -0.137590     -0.141829      0.743092
      0.88554      1.86558      6.92744         0.700759      0.275036      0.103516
      0.97541      6.02042      6.83324         0.179290      0.128193      0.385030
      1.01679     10.18654      6.93958        -0.144889      0.257607     -0.390726
      5.02079      2.08020      6.90479        -0.033578     -0.726434      0.200815
      5.15665      5.91610      6.79079         0.180987      0.177816      0.291433
      5.06056     10.28090      7.05860         0.139703      0.728264      0.391411
      9.23496      2.11942      7.08041         0.023353     -0.695606      0.353360
      9.10850      6.12033      7.09808         0.260991      0.129036     -0.567461
      2.62160      6.75716      4.05562         0.484332      0.198486     -0.067991
      2.80116      2.51130      4.33323         0.302400     -0.214525      0.168100
      8.98131     10.22210      6.86035        -0.036784      0.164465      0.507636
     11.32143      8.23510      9.38818        -0.184893     -0.165167      0.210448
     11.40289     12.11226      9.64657        -0.288821      0.227516     -0.137279
      1.09915      4.44209      1.52230        -0.204304      0.203899      0.054430
      0.72202      8.78045      1.46064         0.287306      0.324871     -0.434814
      5.02139      0.60004      1.55227        -0.253693     -0.279965      0.289842
      5.10971      4.78740      1.28918        -0.376361     -0.048017      0.338112
      8.86038      0.48067      1.46437         0.345605      0.272939      0.399707
      9.43876      4.52037      1.66055        -0.718716     -0.068566     -0.266020
      5.06719      8.87937      1.38806        -0.879318     -0.219942     -0.229585
      3.08861      3.98192      9.47592         0.005503      0.202087      0.284639
      3.04536      8.04584      9.64696         0.568715      0.372628     -0.167450
      2.96594     12.32711      9.58159         0.306733     -0.338905      0.084736
      7.06359      3.82501      9.80729         0.270216      0.047833     -0.368839
      7.01978      8.00107      9.79213        -0.076862      0.156756     -0.488560
      7.32405      0.01838      9.57019        -0.205684     -0.538504      0.311771
     11.45247      4.08968      9.54219        -0.258815      0.077962      0.234950
      9.13402      8.86310      1.39319        -0.047989      0.068030     -0.558780
     11.40735      0.35118      7.10947        -0.860578     -0.792957      0.376855
      3.19901      4.23946      6.95573        -0.363833      0.126069      0.054787
      3.13169      8.67829      7.07763        -0.297674     -0.901823      0.164456
      7.30926      0.11634      7.13502        -0.054037      0.696525     -0.437547
      7.25835      4.26815      7.18138        -0.440237     -0.210427      0.185839
      6.96112      8.59552      7.14988         0.477088     -0.558934      0.248046
     11.38599      4.41593      7.03790        -0.444698      0.018662      0.021035
      9.09884      0.02988      4.08314        -0.261415      0.349136     -0.645034
      0.76367      0.03677      4.06703         0.091151      0.262583     -0.405584
      0.89776      4.19708      4.11397        -0.471080      0.488620     -0.389885
      0.71071      8.55357      3.90508         0.044459     -0.200584      0.496882
      4.93607      0.19716      4.13478         0.419537     -0.395876     -0.473064
      4.87062      4.15470      3.90706         0.193175      0.435006     -0.134258
      4.79262      8.36393      3.84392         0.166727      0.176360      0.363428
      2.91231      0.08812      7.07139         0.126741      0.400294     -0.056374
     11.07292      8.55310      6.94154         0.469897     -0.269347     -0.097310
     11.10593     10.56053      1.63550         0.040212     -0.020414     -0.841500
      2.73805      2.13385      1.85753         0.164842      0.180838     -0.749276
     11.05206      2.34186      1.65011        -0.081734     -0.429715     -0.112235
      9.12053      4.38503      4.17522        -0.070455     -0.095155     -0.046902
      1.01317      2.46060      9.47608        -0.003823     -0.549035      0.010576
      1.16475      6.42639      9.43037        -0.763507     -0.366634     -0.456161
      0.97334     10.38059      9.41371        -0.097883      0.256505      0.459268
      5.02383      2.11192      9.44466         0.110261      0.209364      0.089735
      5.07656      6.24752      9.43828         0.048480      0.360819     -0.187472
      5.13192     10.67779      9.67351        -0.135008      0.369724     -0.709521
      9.36058      2.25062      9.67520        -0.248169      0.302508     -0.437031
      9.10121      6.44496      9.50574         0.261665     -0.002236      0.547634
      9.22294     10.57760      9.50325         0.286066      0.086127     -0.374741
      2.80416      6.41160      1.54556         0.175246     -0.373450     -0.027648
      2.92837     10.72977      1.43569        -0.094331     -0.594874      0.304062
      7.00956      2.39902      1.53625         0.085582     -0.522732      0.365745
      7.13048      6.33605      1.49931        -0.053681      0.007904     -0.319700
      6.84153     10.61962      1.50634         0.984448      0.393145      0.347608
     11.11049      6.34460      1.39647         0.549280      0.353951      0.482070
      9.11536      8.44578      3.83915        -0.572272      0.282430      0.597448
 -----------------------------------------------------------------------------------
    total drift:                               -0.000071     -0.000276      0.000377


--------------------------------------------------------------------------------------------------------



  FREE ENERGIE OF THE ION-ELECTRON SYSTEM (eV)
  ---------------------------------------------------
  free  energy   TOTEN  =      -300.45581185 eV

  energy  without entropy=     -300.45581185  energy(sigma->0) =     -300.45581185
 


--------------------------------------------------------------------------------------------------------


    POTLOK:  cpu time      0.7355: real time      0.7389


--------------------------------------------------------------------------------------------------------


     LOOP+:  cpu time    181.9370: real time    182.8430
    4ORBIT:  cpu time      0.0000: real time      0.0000



 total charge

# of ion       s       p       d       tot
------------------------------------------
    1        1.321   0.768   0.054   2.144
    2        1.330   0.726   0.050   2.106
    3        1.331   0.730   0.052   2.113
    4        1.326   0.763   0.056   2.144
    5        1.326   0.742   0.050   2.118
    6        1.328   0.749   0.054   2.131
    7        1.329   0.757   0.057   2.143
    8        1.312   0.822   0.066   2.200
    9        1.304   0.821   0.065   2.190
   10        1.328   0.730   0.050   2.108
   11        1.329   0.760   0.057   2.147
   12        1.334   0.705   0.051   2.091
   13        1.336   0.727   0.051   2.115
   14        1.310   0.808   0.062   2.180
   15        1.334   0.716   0.050   2.100
   16        1.320   0.786   0.060   2.166
   17        1.318   0.770   0.056   2.144
   18        1.317   0.794   0.068   2.180
   19        1.325   0.744   0.053   2.123
   20        1.332   0.731   0.051   2.114
   21        1.325   0.750   0.048   2.122
   22        1.335   0.732   0.051   2.117
   23        1.329   0.749   0.054   2.131
   24        1.338   0.721   0.049   2.108
   25        1.328   0.732   0.049   2.109
   26        1.338   0.703   0.045   2.086
   27        1.317   0.806   0.065   2.189
   28        1.311   0.793   0.060   2.165
   29        1.319   0.790   0.062   2.171
   30        1.325   0.765   0.057   2.147
   31        1.328   0.743   0.051   2.121
   32        1.336   0.710   0.048   2.094
   33        1.326   0.739   0.052   2.116
   34        1.313   0.778   0.057   2.148
   35        1.322   0.777   0.056   2.156
   36        1.332   0.751   0.056   2.139
   37        1.475   2.315   0.031   3.821
   38        1.478   2.305   0.037   3.820
   39        1.474   2.318   0.032   3.823
   40        1.479   2.291   0.030   3.800
   41        1.476   2.297   0.032   3.804
   42        1.474   2.305   0.030   3.809
   43        1.478   2.300   0.034   3.811
   44        1.479   2.283   0.029   3.791
   45        1.479   2.292   0.031   3.802
   46        1.477   2.303   0.034   3.814
   47        1.477   2.311   0.036   3.824
   48        1.480   2.265   0.028   3.773
   49        1.473   2.296   0.028   3.797
   50        1.477   2.287   0.026   3.790
   51        1.478   2.282   0.030   3.790
   52        1.479   2.294   0.031   3.804
   53        1.475   2.320   0.034   3.829
   54        1.473   2.318   0.034   3.825
   55        1.479   2.299   0.036   3.813
   56        1.481   2.279   0.032   3.792
   57        1.475   2.316   0.032   3.823
   58        1.477   2.297   0.031   3.805
   59        1.477   2.307   0.035   3.820
   60        1.477   2.297   0.032   3.807
   61        1.476   2.290   0.030   3.796
   62        1.480   2.262   0.024   3.767
   63        1.481   2.266   0.027   3.775
   64        1.477   2.311   0.032   3.821
   65        1.476   2.277   0.026   3.779
   66        1.478   2.291   0.030   3.800
   67        1.479   2.265   0.025   3.769
   68        1.479   2.289   0.034   3.802
   69        1.477   2.313   0.034   3.824
   70        1.480   2.296   0.035   3.811
   71        1.480   2.286   0.030   3.795
   72        1.475   2.333   0.040   3.847
--------------------------------------------------
tot        100.897 109.842   3.109 213.848



 magnetization (x)

# of ion       s       p       d       tot
------------------------------------------
    1       -0.000   0.000  -0.000   0.000
    2       -0.000  -0.000  -0.000  -0.000
    3       -0.000   0.000   0.000   0.000
    4       -0.000   0.000   0.000   0.000
    5       -0.000  -0.000  -0.000  -0.000
    6       -0.000   0.000   0.000   0.000
    7       -0.000   0.000   0.000   0.000
    8       -0.000   0.000  -0.000   0.000
    9       -0.000   0.000   0.000   0.000
   10       -0.000   0.000   0.000   0.000
   11       -0.000  -0.000  -0.000  -0.000
   12       -0.000   0.000   0.000   0.000
   13       -0.000   0.000   0.000   0.000
   14       -0.000  -0.000  -0.000  -0.000
   15       -0.000   0.000   0.000   0.000
   16       -0.000   0.000   0.000   0.000
   17       -0.000   0.000   0.000   0.000
   18       -0.000   0.000  -0.000   0.000
   19       -0.000   0.000  -0.000   0.000
   20       -0.000   0.000   0.000   0.000
   21       -0.000   0.000  -0.000   0.000
   22       -0.000   0.000   0.000   0.000
   23       -0.000   0.000  -0.000   0.000
   24       -0.000   0.000  -0.000  -0.000
   25       -0.000   0.000   0.000   0.000
   26       -0.000   0.000   0.000   0.000
   27       -0.000   0.000   0.000   0.000
   28       -0.000   0.000  -0.000   0.000
   29       -0.000   0.000   0.000   0.000
   30       -0.000   0.000  -0.000   0.000
   31       -0.000   0.000  -0.000  -0.000
   32       -0.000   0.000   0.000   0.000
   33       -0.000   0.000   0.000   0.000
   34       -0.000   0.000  -0.000   0.000
   35       -0.000   0.000   0.000   0.000
   36       -0.000   0.000   0.000   0.000
   37       -0.000  -0.000   0.000  -0.000
   38       -0.000  -0.000   0.000  -0.000
   39       -0.000  -0.000  -0.000  -0.000
   40       -0.000  -0.000   0.000  -0.000
   41       -0.000  -0.000   0.000  -0.000
   42       -0.000  -0.000  -0.000  -0.000
   43       -0.000  -0.000   0.000  -0.000
   44       -0.000  -0.000  -0.000  -0.000
   45       -0.000  -0.000  -0.000  -0.000
   46       -0.000  -0.000   0.000  -0.000
   47       -0.000  -0.000   0.000  -0.000
   48       -0.000  -0.000  -0.000  -0.000
   49       -0.000  -0.000   0.000  -0.000
   50       -0.000  -0.000  -0.000  -0.000
   51       -0.000  -0.000  -0.000  -0.000
   52       -0.000  -0.000   0.000  -0.000
   53       -0.000  -0.000  -0.000  -0.000
   54       -0.000  -0.000   0.000  -0.000
   55       -0.000  -0.000   0.000  -0.000
   56       -0.000  -0.000   0.000  -0.000
   57       -0.000  -0.000   0.000  -0.000
   58       -0.000  -0.000   0.000  -0.000
   59       -0.000  -0.000  -0.000  -0.000
   60       -0.000  -0.000   0.000  -0.000
   61       -0.000  -0.000   0.000  -0.000
   62       -0.000  -0.000  -0.000  -0.000
   63       -0.000  -0.000   0.000  -0.000
   64       -0.000  -0.000   0.000  -0.000
   65       -0.000  -0.000  -0.000  -0.000
   66       -0.000  -0.000   0.000  -0.000
   67       -0.000  -0.000  -0.000  -0.000
   68       -0.000  -0.000   0.000  -0.000
   69       -0.000  -0.000   0.000  -0.000
   70       -0.000  -0.000  -0.000  -0.000
   71       -0.000  -0.000   0.000  -0.000
   72       -0.000  -0.000   0.000  -0.000
--------------------------------------------------
tot         -0.000  -0.000   0.000  -0.000
 

 total amount of memory used by VASP MPI-rank0   110524. kBytes
=======================================================================

   base      :      30000. kBytes
   nonl-proj :      16287. kBytes
   fftplans  :       6179. kBytes
   grid      :      15593. kBytes
   one-center:        146. kBytes
   wavefun   :      42319. kBytes
 
  
  
 General timing and accounting informations for this job:
 ========================================================
  
                  Total CPU time used (sec):      193.682
                            User time (sec):      187.684
                          System time (sec):        5.999
                         Elapsed time (sec):      196.119
  
                   Maximum memory used (kb):      315320.
                   Average memory used (kb):          N/A
  
                          Minor page faults:        98516
                          Major page faults:           83
                 Voluntary context switches:         5244
