 vasp.6.4.2 20Jul23 (build Oct 12 2023 10:31:02) complex                         
 executed on              LinuxNV date 2025.05.18  04:02:38
 running  160 mpi-ranks, with    1 threads/rank, on   10 nodes
 distrk:  each k-point on   80 cores,    2 groups
 distr:  one band on NCORE=   5 cores,   16 groups


--------------------------------------------------------------------------------------------------------


 INCAR:
   ENCUT = 520.000000
   SIGMA = 0.050000
   EDIFF = 1.00e-06
   ALGO = Normal
   GGA = PE
   PREC = Normal
   SYSTEM = ./
   ICHARG = 2
   ISMEAR = 0
   ISPIN = 1
   ISTART = 0
   ISYM = 0
   KPAR = 2
   LMAXMIX = 4
   NELM = 100
   NPAR = 16
   LASPH = .TRUE.
   LCHARG = .FALSE.
   LWAVE = .FALSE.

 POTCAR:    PAW_PBE Ge 05Jan2001                  
 POTCAR:    PAW_PBE Se 06Sep2000                  
 POTCAR:    PAW_PBE Ge 05Jan2001                  
   VRHFIN =Ge: s2p2                                                                                 
   LEXCH  = PE                                                                                      
   EATOM  =   104.9960 eV,    7.7170 Ry                                                             
                                                                                                    
   TITEL  = PAW_PBE Ge 05Jan2001                                                                    
   LULTRA =        F    use ultrasoft PP ?                                                          
   IUNSCR =        1    unscreen: 0-lin 1-nonlin 2-no                                               
   RPACOR =    2.170    partial core radius                                                         
   POMASS =   72.610; ZVAL   =    4.000    mass and valenz                                          
   RCORE  =    2.300    outmost cutoff radius                                                       
   RWIGS  =    2.300; RWIGS  =    1.217    wigner-seitz radius (au A)                               
   ENMAX  =  173.807; ENMIN  =  130.355 eV                                                          
   ICORE  =        3    local potential                                                             
   LCOR   =        T    correct aug charges                                                         
   LPAW   =        T    paw PP                                                                      
   EAUG   =  385.843                                                                                
   DEXC   =    0.000                                                                                
   RMAX   =    2.342    core radius for proj-oper                                                   
   RAUG   =    1.300    factor for augmentation sphere                                              
   RDEP   =    2.318    radius for radial grids                                                     
   RDEPT  =    2.103    core radius for aug-charge                                                  
                                                                                                    
   Atomic configuration                                                                             
   10 entries                                                                                       
     n  l   j            E        occ.                                                              
     1  0  0.50    -10959.8463   2.0000                                                             
     2  0  0.50     -1371.6056   2.0000                                                             
     2  1  1.50     -1198.4791   6.0000                                                             
     3  0  0.50      -168.4733   2.0000                                                             
     3  1  1.50      -115.6019   6.0000                                                             
     3  2  2.50       -29.3106  10.0000                                                             
     4  0  0.50       -11.7309   2.0000                                                             
     4  1  0.50        -3.8952   2.0000                                                             
     4  2  1.50        -4.0817   0.0000                                                             
     4  3  2.50        -4.0817   0.0000                                                             
   Description                                                                                      
     l       E           TYP  RCUT    TYP  RCUT                                                     
     0    -11.7309493     23  2.300                                                                 
     0     -7.4578696     23  2.300                                                                 
     1     -3.8952261     23  2.300                                                                 
     1      6.1178114     23  2.300                                                                 
     2     -4.0817478     23  2.300                                                                 
     3     -1.3605826      7  2.300                                                                 
  local pseudopotential read in
  partial core-charges read in
  partial kinetic energy density read in
  atomic valenz-charges read in
  non local Contribution for L=            0  read in
    real space projection operators read in
  non local Contribution for L=            0  read in
    real space projection operators read in
  non local Contribution for L=            1  read in
    real space projection operators read in
  non local Contribution for L=            1  read in
    real space projection operators read in
  non local Contribution for L=            2  read in
    real space projection operators read in
    PAW grid and wavefunctions read in
 
   number of l-projection  operators is LMAX  =            5
   number of lm-projection operators is LMMAX =           13
 
 POTCAR:    PAW_PBE Se 06Sep2000                  
   VRHFIN =Se: s2p4                                                                                 
   LEXCH  = PE                                                                                      
   EATOM  =   257.1286 eV,   18.8984 Ry                                                             
                                                                                                    
   TITEL  = PAW_PBE Se 06Sep2000                                                                    
   LULTRA =        F    use ultrasoft PP ?                                                          
   IUNSCR =        1    unscreen: 0-lin 1-nonlin 2-no                                               
   RPACOR =    1.900    partial core radius                                                         
   POMASS =   78.960; ZVAL   =    6.000    mass and valenz                                          
   RCORE  =    2.100    outmost cutoff radius                                                       
   RWIGS  =    2.200; RWIGS  =    1.164    wigner-seitz radius (au A)                               
   ENMAX  =  211.555; ENMIN  =  158.666 eV                                                          
   ICORE  =        3    local potential                                                             
   LCOR   =        T    correct aug charges                                                         
   LPAW   =        T    paw PP                                                                      
   EAUG   =  446.842                                                                                
   DEXC   =    0.000                                                                                
   RMAX   =    2.147    core radius for proj-oper                                                   
   RAUG   =    1.300    factor for augmentation sphere                                              
   RDEP   =    2.177    radius for radial grids                                                     
   RDEPT  =    1.928    core radius for aug-charge                                                  
                                                                                                    
   Atomic configuration                                                                             
   10 entries                                                                                       
     n  l   j            E        occ.                                                              
     1  0  0.50    -12503.4787   2.0000                                                             
     2  0  0.50     -1606.9547   2.0000                                                             
     2  1  1.50     -1413.3140   6.0000                                                             
     3  0  0.50      -213.4885   2.0000                                                             
     3  1  1.50      -152.9538   6.0000                                                             
     3  2  2.50       -53.1221  10.0000                                                             
     4  0  0.50       -17.2865   2.0000                                                             
     4  1  0.50        -6.5110   4.0000                                                             
     4  2  2.50        -6.8029   0.0000                                                             
     4  3  2.50        -6.8029   0.0000                                                             
   Description                                                                                      
     l       E           TYP  RCUT    TYP  RCUT                                                     
     0    -17.2865377     23  2.100                                                                 
     0    -15.3094411     23  2.100                                                                 
     1     -6.5110275     23  2.100                                                                 
     1     -0.0695192     23  2.100                                                                 
     2     -6.8029130     23  2.100                                                                 
     3     -1.3605826      7  2.100                                                                 
  local pseudopotential read in
  partial core-charges read in
  partial kinetic energy density read in
  atomic valenz-charges read in
  non local Contribution for L=            0  read in
    real space projection operators read in
  non local Contribution for L=            0  read in
    real space projection operators read in
  non local Contribution for L=            1  read in
    real space projection operators read in
  non local Contribution for L=            1  read in
    real space projection operators read in
  non local Contribution for L=            2  read in
    real space projection operators read in
    PAW grid and wavefunctions read in
 
   number of l-projection  operators is LMAX  =            5
   number of lm-projection operators is LMMAX =           13
 
  PAW_PBE Ge 05Jan2001                  :
 energy of atom  1       EATOM= -104.9960
 kinetic energy error for atom=    0.0002 (will be added to EATOM!!)
  PAW_PBE Se 06Sep2000                  :
 energy of atom  2       EATOM= -257.1286
 kinetic energy error for atom=    0.0007 (will be added to EATOM!!)
 
 
 POSCAR: Ge Se
  positions in cartesian coordinates
  No initial velocities read in
 exchange correlation table for  LEXCH =        8
   RHO(1)=    0.500       N(1)  =     2000
   RHO(2)=  100.500       N(2)  =     4000
 


--------------------------------------------------------------------------------------------------------


 ion  position               nearest neighbor table
   1  0.438  0.114  0.123-   6 2.60   6 2.60   5 2.60
   2  0.938  0.614  0.377-   5 2.60   5 2.60   6 2.60
   3  0.750  0.886  0.877-   8 2.60   8 2.60   7 2.60
   4  0.250  0.386  0.623-   7 2.60   7 2.60   8 2.60
   5  0.438  0.993  0.352-   2 2.60   2 2.60   1 2.60
   6  0.938  0.493  0.148-   1 2.60   1 2.60   2 2.60
   7  0.750  0.007  0.648-   4 2.60   4 2.60   3 2.60
   8  0.250  0.507  0.852-   3 2.60   3 2.60   4 2.60
 

IMPORTANT INFORMATION: All symmetrisations will be switched off!
NOSYMM: (Re-)initialisation of all symmetry stuff for point group C_1.


----------------------------------------------------------------------------------------

                                     Primitive cell                                     

  volume of cell :     193.5913

  direct lattice vectors                    reciprocal lattice vectors
     3.858100176  0.000000000  0.000000000     0.259194929  0.000000000  0.000000000
     0.000000000  4.526575088  0.000000000     0.000000000  0.220917577  0.000000000
     0.000000000  0.000000000 11.085176468     0.000000000  0.000000000  0.090210562

  length of vectors
     3.858100176  4.526575088 11.085176468     0.259194929  0.220917577  0.090210562

  position of ions in fractional coordinates (direct lattice)
     0.438405797  0.114120434  0.122982664
     0.938405797  0.614120434  0.377017336
     0.750000000  0.885879566  0.877017336
     0.250000000  0.385879566  0.622982664
     0.438405797  0.993309889  0.352381810
     0.938405797  0.493309889  0.147618190
     0.750000000  0.006690111  0.647618190
     0.250000000  0.506690111  0.852381810

  ion indices of the primitive-cell ions
   primitive index   ion index
                 1           1
                 2           2
                 3           3
                 4           4
                 5           5
                 6           6
                 7           7
                 8           8

----------------------------------------------------------------------------------------

 
 
 KPOINTS: KPOINTS created by Atomic Simulation Env

Automatic generation of k-mesh.
 Grid dimensions read from file:
 generate k-points for:    6    6    2

 Generating k-lattice:

  Cartesian coordinates                     Fractional coordinates (reciprocal lattice)
     0.043199155  0.000000000  0.000000000     0.166666667  0.000000000  0.000000000
     0.000000000  0.036819596  0.000000000     0.000000000  0.166666667  0.000000000
     0.000000000  0.000000000  0.045105281     0.000000000  0.000000000  0.500000000

  Length of vectors
     0.043199155  0.036819596  0.045105281

  Shift w.r.t. Gamma in fractional coordinates (k-lattice)
     0.000000000  0.000000000  0.000000000

 
 Subroutine IBZKPT returns following result:
 ===========================================
 
 Found     40 irreducible k-points:
 
 Following reciprocal coordinates:
            Coordinates               Weight
  0.000000  0.000000  0.000000      1.000000
  0.166667  0.000000  0.000000      2.000000
  0.333333  0.000000  0.000000      2.000000
  0.500000  0.000000  0.000000      1.000000
  0.000000  0.166667  0.000000      2.000000
  0.166667  0.166667  0.000000      2.000000
  0.166667 -0.166667  0.000000      2.000000
  0.333333  0.166667  0.000000      2.000000
  0.333333 -0.166667  0.000000      2.000000
  0.500000  0.166667  0.000000      2.000000
  0.000000  0.333333  0.000000      2.000000
  0.166667  0.333333  0.000000      2.000000
  0.166667 -0.333333  0.000000      2.000000
  0.333333  0.333333  0.000000      2.000000
  0.333333 -0.333333  0.000000      2.000000
  0.500000  0.333333  0.000000      2.000000
  0.000000  0.500000  0.000000      1.000000
  0.166667  0.500000  0.000000      2.000000
  0.333333  0.500000  0.000000      2.000000
  0.500000  0.500000  0.000000      1.000000
  0.000000  0.000000  0.500000      1.000000
  0.166667  0.000000  0.500000      2.000000
  0.333333  0.000000  0.500000      2.000000
  0.500000  0.000000  0.500000      1.000000
  0.000000  0.166667  0.500000      2.000000
  0.166667  0.166667  0.500000      2.000000
  0.166667 -0.166667  0.500000      2.000000
  0.333333  0.166667  0.500000      2.000000
  0.333333 -0.166667  0.500000      2.000000
  0.500000  0.166667  0.500000      2.000000
  0.000000  0.333333  0.500000      2.000000
  0.166667  0.333333  0.500000      2.000000
  0.166667 -0.333333  0.500000      2.000000
  0.333333  0.333333  0.500000      2.000000
  0.333333 -0.333333  0.500000      2.000000
  0.500000  0.333333  0.500000      2.000000
  0.000000  0.500000  0.500000      1.000000
  0.166667  0.500000  0.500000      2.000000
  0.333333  0.500000  0.500000      2.000000
  0.500000  0.500000  0.500000      1.000000
 
 Following cartesian coordinates:
            Coordinates               Weight
  0.000000  0.000000  0.000000      1.000000
  0.043199  0.000000  0.000000      2.000000
  0.086398  0.000000  0.000000      2.000000
  0.129597  0.000000  0.000000      1.000000
  0.000000  0.036820  0.000000      2.000000
  0.043199  0.036820  0.000000      2.000000
  0.043199 -0.036820  0.000000      2.000000
  0.086398  0.036820  0.000000      2.000000
  0.086398 -0.036820  0.000000      2.000000
  0.129597  0.036820  0.000000      2.000000
  0.000000  0.073639  0.000000      2.000000
  0.043199  0.073639  0.000000      2.000000
  0.043199 -0.073639  0.000000      2.000000
  0.086398  0.073639  0.000000      2.000000
  0.086398 -0.073639  0.000000      2.000000
  0.129597  0.073639  0.000000      2.000000
  0.000000  0.110459  0.000000      1.000000
  0.043199  0.110459  0.000000      2.000000
  0.086398  0.110459  0.000000      2.000000
  0.129597  0.110459  0.000000      1.000000
  0.000000  0.000000  0.045105      1.000000
  0.043199  0.000000  0.045105      2.000000
  0.086398  0.000000  0.045105      2.000000
  0.129597  0.000000  0.045105      1.000000
  0.000000  0.036820  0.045105      2.000000
  0.043199  0.036820  0.045105      2.000000
  0.043199 -0.036820  0.045105      2.000000
  0.086398  0.036820  0.045105      2.000000
  0.086398 -0.036820  0.045105      2.000000
  0.129597  0.036820  0.045105      2.000000
  0.000000  0.073639  0.045105      2.000000
  0.043199  0.073639  0.045105      2.000000
  0.043199 -0.073639  0.045105      2.000000
  0.086398  0.073639  0.045105      2.000000
  0.086398 -0.073639  0.045105      2.000000
  0.129597  0.073639  0.045105      2.000000
  0.000000  0.110459  0.045105      1.000000
  0.043199  0.110459  0.045105      2.000000
  0.086398  0.110459  0.045105      2.000000
  0.129597  0.110459  0.045105      1.000000
 


--------------------------------------------------------------------------------------------------------




 Dimension of arrays:
   k-points           NKPTS =     40   k-points in BZ     NKDIM =     40   number of bands    NBANDS=     32
   number of dos      NEDOS =    301   number of ions     NIONS =      8
   non local maximal  LDIM  =      5   non local SUM 2l+1 LMDIM =     13
   total plane-waves  NPLWV =  43008
   max r-space proj   IRMAX =      1   max aug-charges    IRDMAX=  12272
   dimension x,y,z NGX =    24 NGY =   28 NGZ =   64
   dimension x,y,z NGXF=    48 NGYF=   56 NGZF=  128
   support grid    NGXF=    48 NGYF=   56 NGZF=  128
   ions per type =               4   4
   NGX,Y,Z   is equivalent  to a cutoff of  10.34, 10.28,  9.60 a.u.
   NGXF,Y,Z  is equivalent  to a cutoff of  20.68, 20.57, 19.20 a.u.

 SYSTEM =  ./                                      
 POSCAR =  Ge Se                                   

 Startparameter for this run:
   NWRITE =      2    write-flag & timer
   PREC   = normal    normal or accurate (medium, high low for compatibility)
   ISTART =      0    job   : 0-new  1-cont  2-samecut
   ICHARG =      2    charge: 1-file 2-atom 10-const
   ISPIN  =      1    spin polarized calculation?
   LNONCOLLINEAR =      F non collinear calculations
   LSORBIT =      F    spin-orbit coupling
   INIWAV =      1    electr: 0-lowe 1-rand  2-diag
   LASPH  =      T    aspherical Exc in radial PAW
 Electronic Relaxation 1
   ENCUT  =  520.0 eV  38.22 Ry    6.18 a.u.   7.17  8.42 20.61*2*pi/ulx,y,z
   ENINI  =  520.0     initial cutoff
   ENAUG  =  446.8 eV  augmentation charge cutoff
   NELM   =    100;   NELMIN=  2; NELMDL= -5     # of ELM steps 
   EDIFF  = 0.1E-05   stopping-criterion for ELM
   LREAL  =      F    real-space projection
   NLSPLINE    = F    spline interpolate recip. space projectors
   LCOMPAT=      F    compatible to vasp.4.4
   GGA_COMPAT  = T    GGA compatible to vasp.4.4-vasp.4.6
   LMAXPAW     = -100 max onsite density
   LMAXMIX     =    4 max onsite mixed and CHGCAR
   VOSKOWN=      0    Vosko Wilk Nusair interpolation
   ROPT   =    0.00000   0.00000
 Ionic relaxation
   EDIFFG = 0.1E-04   stopping-criterion for IOM
   NSW    =      0    number of steps for IOM
   NBLOCK =      1;   KBLOCK =      1    inner block; outer block 
   IBRION =     -1    ionic relax: 0-MD 1-quasi-New 2-CG
   NFREE  =      0    steps in history (QN), initial steepest desc. (CG)
   ISIF   =      2    stress and relaxation
   IWAVPR =     10    prediction:  0-non 1-charg 2-wave 3-comb
   ISYM   =      0    0-nonsym 1-usesym 2-fastsym
   LCORR  =      T    Harris-Foulkes like correction to forces

   POTIM  = 0.5000    time-step for ionic-motion
   TEIN   =    0.0    initial temperature
   TEBEG  =    0.0;   TEEND  =   0.0 temperature during run
   SMASS  =  -3.00    Nose mass-parameter (am)
   estimated Nose-frequenzy (Omega)   =  0.10E-29 period in steps = 0.13E+47 mass=  -0.340E-27a.u.
   SCALEE = 1.0000    scale energy and forces
   NPACO  =    256;   APACO  = 10.0  distance and # of slots for P.C.
   PSTRESS=    0.0 pullay stress

  Mass of Ions in am
   POMASS =  72.61 78.96
  Ionic Valenz
   ZVAL   =   4.00  6.00
  Atomic Wigner-Seitz radii
   RWIGS  =  -1.00 -1.00
  virtual crystal weights 
   VCA    =   1.00  1.00
   NELECT =      40.0000    total number of electrons
   NUPDOWN=      -1.0000    fix difference up-down

 DOS related values:
   EMIN   =  10.00;   EMAX   =-10.00  energy-range for DOS
   EFERMI =   0.00;   METHOD = LEGACY      
   ISMEAR =     0;   SIGMA  =   0.05  broadening in eV -4-tet -1-fermi 0-gaus

 Electronic relaxation 2 (details)
   IALGO  =     38    algorithm
   LDIAG  =      T    sub-space diagonalisation (order eigenvalues)
   LSUBROT=      F    optimize rotation matrix (better conditioning)
   TURBO    =      0    0=normal 1=particle mesh
   IRESTART =      0    0=no restart 2=restart with 2 vectors
   NREBOOT  =      0    no. of reboots
   NMIN     =      0    reboot dimension
   EREF     =   0.00    reference energy to select bands
   IMIX   =      4    mixing-type and parameters
     AMIX     =   0.40;   BMIX     =  1.00
     AMIX_MAG =   1.60;   BMIX_MAG =  1.00
     AMIN     =   0.10
     WC   =   100.;   INIMIX=   1;  MIXPRE=   1;  MAXMIX= -45

 Intra band minimization:
   WEIMIN = 0.0000     energy-eigenvalue tresh-hold
   EBREAK =  0.78E-08  absolut break condition
   DEPER  =   0.30     relativ break condition  

   TIME   =   0.40     timestep for ELM

  volume/ion in A,a.u.               =      24.20       163.30
  Fermi-wavevector in a.u.,A,eV,Ry     =   0.967831  1.828935 12.744535  0.936697
  Thomas-Fermi vector in A             =   2.097750
 
 Write flags
   LWAVE        =      F    write WAVECAR
   LDOWNSAMPLE  =      F    k-point downsampling of WAVECAR
   LCHARG       =      F    write CHGCAR
   LVTOT        =      F    write LOCPOT, total local potential
   LVHAR        =      F    write LOCPOT, Hartree potential only
   LELF         =      F    write electronic localiz. function (ELF)
   LORBIT       =      0    0 simple, 1 ext, 2 COOP (PROOUT), +10 PAW based schemes


 Dipole corrections
   LMONO  =      F    monopole corrections only (constant potential shift)
   LDIPOL =      F    correct potential (dipole corrections)
   IDIPOL =      0    1-x, 2-y, 3-z, 4-all directions 
   EPSILON=  1.0000000 bulk dielectric constant

 Exchange correlation treatment:
   GGA     =    PE    GGA type
   LEXCH   =     8    internal setting for exchange type
   LIBXC   =     F    Libxc                    
   VOSKOWN =     0    Vosko Wilk Nusair interpolation
   LHFCALC =     F    Hartree Fock is set to
   LHFONE  =     F    Hartree Fock one center treatment
   AEXX    =    0.0000 exact exchange contribution

 Linear response parameters
   LEPSILON=     F    determine dielectric tensor
   LRPA    =     F    only Hartree local field effects (RPA)
   LNABLA  =     F    use nabla operator in PAW spheres
   LVEL    =     F    velocity operator in full k-point grid
   CSHIFT  =0.1000    complex shift for real part using Kramers Kronig
   OMEGAMAX=  -1.0    maximum frequency
   DEG_THRESHOLD= 0.2000000E-02 threshold for treating states as degnerate
   RTIME   =   -0.100 relaxation time in fs
  (WPLASMAI=    0.000 imaginary part of plasma frequency in eV, 0.658/RTIME)
   DFIELD  = 0.0000000 0.0000000 0.0000000 field for delta impulse in time
 
  Optional k-point grid parameters
   LKPOINTS_OPT  =     F    use optional k-point grid
   KPOINTS_OPT_MODE=     1    mode for optional k-point grid
 
 Orbital magnetization related:
   ORBITALMAG=     F  switch on orbital magnetization
   LCHIMAG   =     F  perturbation theory with respect to B field
   DQ        =  0.001000  dq finite difference perturbation B field
   LLRAUG    =     F  two centre corrections for induced B field
   LBONE     =     F  B-component reconstruction in AE one-centre
   LVGVCALC  =     T  calculate vGv susceptibility
   LVGVAPPL  =     F  apply vGv susceptibility instead of pGv for G=0

 Random number generation:
   RANDOM_GENERATOR = DEFAULT
   PCG_SEED         = not used


--------------------------------------------------------------------------------------------------------


 Static calculation
 charge density and potential will be updated during run
 non-spin polarized calculation
 Variant of blocked Davidson
 Davidson routine will perform the subspace rotation
 perform sub-space diagonalisation
    after iterative eigenvector-optimisation
 modified Broyden-mixing scheme, WC =      100.0
 initial mixing is a Kerker type mixing with AMIX =  0.4000 and BMIX =      1.0000
 Hartree-type preconditioning will be used
 using additional bands            12
 reciprocal scheme for non local part
 use partial core corrections
 calculate Harris-corrections to forces 
   (improved forces if not selfconsistent)
 use gradient corrections 
 use of overlap-Matrix (Vanderbilt PP)
 Gauss-broadening in eV      SIGMA  =   0.05


--------------------------------------------------------------------------------------------------------


  energy-cutoff  :      520.00
  volume of cell :      193.59
      direct lattice vectors                 reciprocal lattice vectors
     3.858100176  0.000000000  0.000000000     0.259194929  0.000000000  0.000000000
     0.000000000  4.526575088  0.000000000     0.000000000  0.220917577  0.000000000
     0.000000000  0.000000000 11.085176468     0.000000000  0.000000000  0.090210562

  length of vectors
     3.858100176  4.526575088 11.085176468     0.259194929  0.220917577  0.090210562


 
 k-points in units of 2pi/SCALE and weight: KPOINTS created by Atomic Simulation Env
   0.00000000  0.00000000  0.00000000       0.014
   0.04319915  0.00000000  0.00000000       0.028
   0.08639831  0.00000000  0.00000000       0.028
   0.12959746  0.00000000  0.00000000       0.014
   0.00000000  0.03681960  0.00000000       0.028
   0.04319915  0.03681960  0.00000000       0.028
   0.04319915 -0.03681960  0.00000000       0.028
   0.08639831  0.03681960  0.00000000       0.028
   0.08639831 -0.03681960  0.00000000       0.028
   0.12959746  0.03681960  0.00000000       0.028
   0.00000000  0.07363919  0.00000000       0.028
   0.04319915  0.07363919  0.00000000       0.028
   0.04319915 -0.07363919  0.00000000       0.028
   0.08639831  0.07363919  0.00000000       0.028
   0.08639831 -0.07363919  0.00000000       0.028
   0.12959746  0.07363919  0.00000000       0.028
   0.00000000  0.11045879  0.00000000       0.014
   0.04319915  0.11045879  0.00000000       0.028
   0.08639831  0.11045879  0.00000000       0.028
   0.12959746  0.11045879  0.00000000       0.014
   0.00000000  0.00000000  0.04510528       0.014
   0.04319915  0.00000000  0.04510528       0.028
   0.08639831  0.00000000  0.04510528       0.028
   0.12959746  0.00000000  0.04510528       0.014
   0.00000000  0.03681960  0.04510528       0.028
   0.04319915  0.03681960  0.04510528       0.028
   0.04319915 -0.03681960  0.04510528       0.028
   0.08639831  0.03681960  0.04510528       0.028
   0.08639831 -0.03681960  0.04510528       0.028
   0.12959746  0.03681960  0.04510528       0.028
   0.00000000  0.07363919  0.04510528       0.028
   0.04319915  0.07363919  0.04510528       0.028
   0.04319915 -0.07363919  0.04510528       0.028
   0.08639831  0.07363919  0.04510528       0.028
   0.08639831 -0.07363919  0.04510528       0.028
   0.12959746  0.07363919  0.04510528       0.028
   0.00000000  0.11045879  0.04510528       0.014
   0.04319915  0.11045879  0.04510528       0.028
   0.08639831  0.11045879  0.04510528       0.028
   0.12959746  0.11045879  0.04510528       0.014
 
 k-points in reciprocal lattice and weights: KPOINTS created by Atomic Simulation Env
   0.00000000  0.00000000  0.00000000       0.014
   0.16666667  0.00000000  0.00000000       0.028
   0.33333333  0.00000000  0.00000000       0.028
   0.50000000  0.00000000  0.00000000       0.014
   0.00000000  0.16666667  0.00000000       0.028
   0.16666667  0.16666667  0.00000000       0.028
   0.16666667 -0.16666667  0.00000000       0.028
   0.33333333  0.16666667  0.00000000       0.028
   0.33333333 -0.16666667  0.00000000       0.028
   0.50000000  0.16666667  0.00000000       0.028
   0.00000000  0.33333333  0.00000000       0.028
   0.16666667  0.33333333  0.00000000       0.028
   0.16666667 -0.33333333  0.00000000       0.028
   0.33333333  0.33333333  0.00000000       0.028
   0.33333333 -0.33333333  0.00000000       0.028
   0.50000000  0.33333333  0.00000000       0.028
   0.00000000  0.50000000  0.00000000       0.014
   0.16666667  0.50000000  0.00000000       0.028
   0.33333333  0.50000000  0.00000000       0.028
   0.50000000  0.50000000  0.00000000       0.014
   0.00000000  0.00000000  0.50000000       0.014
   0.16666667  0.00000000  0.50000000       0.028
   0.33333333  0.00000000  0.50000000       0.028
   0.50000000  0.00000000  0.50000000       0.014
   0.00000000  0.16666667  0.50000000       0.028
   0.16666667  0.16666667  0.50000000       0.028
   0.16666667 -0.16666667  0.50000000       0.028
   0.33333333  0.16666667  0.50000000       0.028
   0.33333333 -0.16666667  0.50000000       0.028
   0.50000000  0.16666667  0.50000000       0.028
   0.00000000  0.33333333  0.50000000       0.028
   0.16666667  0.33333333  0.50000000       0.028
   0.16666667 -0.33333333  0.50000000       0.028
   0.33333333  0.33333333  0.50000000       0.028
   0.33333333 -0.33333333  0.50000000       0.028
   0.50000000  0.33333333  0.50000000       0.028
   0.00000000  0.50000000  0.50000000       0.014
   0.16666667  0.50000000  0.50000000       0.028
   0.33333333  0.50000000  0.50000000       0.028
   0.50000000  0.50000000  0.50000000       0.014
 
 position of ions in fractional coordinates (direct lattice) 
   0.43840580  0.11412043  0.12298266
   0.93840580  0.61412043  0.37701734
   0.75000000  0.88587957  0.87701734
   0.25000000  0.38587957  0.62298266
   0.43840580  0.99330989  0.35238181
   0.93840580  0.49330989  0.14761819
   0.75000000  0.00669011  0.64761819
   0.25000000  0.50669011  0.85238181
 
 position of ions in cartesian coordinates  (Angst):
   1.69141348  0.51657472  1.36328454
   3.62046357  2.77986226  4.17930370
   2.89357513  4.01000037  9.72189193
   0.96452504  1.74671283  6.90587277
   1.69141348  4.49629180  3.90621455
   3.62046357  2.23300425  1.63637368
   2.89357513  0.03028329  7.17896192
   0.96452504  2.29357083  9.44880278
 


--------------------------------------------------------------------------------------------------------


 k-point   1 :   0.0000 0.0000 0.0000  plane waves:    5211
 k-point   2 :   0.1667 0.0000 0.0000  plane waves:    5225
 k-point   3 :   0.3333 0.0000 0.0000  plane waves:    5224
 k-point   4 :   0.5000 0.0000 0.0000  plane waves:    5258
 k-point   5 :   0.0000 0.1667 0.0000  plane waves:    5209
 k-point   6 :   0.1667 0.1667 0.0000  plane waves:    5201
 k-point   7 :   0.1667-0.1667 0.0000  plane waves:    5201
 k-point   8 :   0.3333 0.1667 0.0000  plane waves:    5230
 k-point   9 :   0.3333-0.1667 0.0000  plane waves:    5230
 k-point  10 :   0.5000 0.1667 0.0000  plane waves:    5236
 k-point  11 :   0.0000 0.3333 0.0000  plane waves:    5213
 k-point  12 :   0.1667 0.3333 0.0000  plane waves:    5199
 k-point  13 :   0.1667-0.3333 0.0000  plane waves:    5199
 k-point  14 :   0.3333 0.3333 0.0000  plane waves:    5211
 k-point  15 :   0.3333-0.3333 0.0000  plane waves:    5211
 k-point  16 :   0.5000 0.3333 0.0000  plane waves:    5230
 k-point  17 :   0.0000 0.5000 0.0000  plane waves:    5220
 k-point  18 :   0.1667 0.5000 0.0000  plane waves:    5208
 k-point  19 :   0.3333 0.5000 0.0000  plane waves:    5230
 k-point  20 :   0.5000 0.5000 0.0000  plane waves:    5180
 k-point  21 :   0.0000 0.0000 0.5000  plane waves:    5210
 k-point  22 :   0.1667 0.0000 0.5000  plane waves:    5178
 k-point  23 :   0.3333 0.0000 0.5000  plane waves:    5214
 k-point  24 :   0.5000 0.0000 0.5000  plane waves:    5232
 k-point  25 :   0.0000 0.1667 0.5000  plane waves:    5224
 k-point  26 :   0.1667 0.1667 0.5000  plane waves:    5210
 k-point  27 :   0.1667-0.1667 0.5000  plane waves:    5210
 k-point  28 :   0.3333 0.1667 0.5000  plane waves:    5196
 k-point  29 :   0.3333-0.1667 0.5000  plane waves:    5196
 k-point  30 :   0.5000 0.1667 0.5000  plane waves:    5224
 k-point  31 :   0.0000 0.3333 0.5000  plane waves:    5202
 k-point  32 :   0.1667 0.3333 0.5000  plane waves:    5214
 k-point  33 :   0.1667-0.3333 0.5000  plane waves:    5214
 k-point  34 :   0.3333 0.3333 0.5000  plane waves:    5216
 k-point  35 :   0.3333-0.3333 0.5000  plane waves:    5216
 k-point  36 :   0.5000 0.3333 0.5000  plane waves:    5216
 k-point  37 :   0.0000 0.5000 0.5000  plane waves:    5212
 k-point  38 :   0.1667 0.5000 0.5000  plane waves:    5192
 k-point  39 :   0.3333 0.5000 0.5000  plane waves:    5208
 k-point  40 :   0.5000 0.5000 0.5000  plane waves:    5208

 maximum and minimum number of plane-waves per node :      1076     1017

 maximum number of plane-waves:      5258
 maximum index in each direction: 
   IXMAX=    7   IYMAX=    8   IZMAX=   20
   IXMIN=   -7   IYMIN=   -8   IZMIN=  -21


 parallel 3D FFT for wavefunctions:
    minimum data exchange during FFTs selected (reduces bandwidth)
 parallel 3D FFT for charge:
    minimum data exchange during FFTs selected (reduces bandwidth)


 total amount of memory used by VASP MPI-rank0    41770. kBytes
=======================================================================

   base      :      30000. kBytes
   nonl-proj :       9056. kBytes
   fftplans  :        519. kBytes
   grid      :        766. kBytes
   one-center:         16. kBytes
   wavefun   :       1413. kBytes
 
     INWAV:  cpu time      0.0000: real time      0.0001
 Broyden mixing: mesh for mixing (old mesh)
   NGX = 15   NGY = 17   NGZ = 41
  (NGX  = 48   NGY  = 56   NGZ  =128)
  gives a total of  10455 points

 initial charge density was supplied:
 charge density of overlapping atoms calculated
 number of electron      40.0000000 magnetization 
 keeping initial charge density in first step


--------------------------------------------------------------------------------------------------------


 Maximum index for augmentation-charges           580 (set IRDMAX)


--------------------------------------------------------------------------------------------------------


 First call to EWALD:  gamma=   0.306
 Maximum number of real-space cells 4x 3x 2
 Maximum number of reciprocal cells 2x 2x 5

    FEWALD:  cpu time      0.0011: real time      0.0011


--------------------------------------- Ionic step        1  -------------------------------------------




--------------------------------------- Iteration      1(   1)  ---------------------------------------


    POTLOK:  cpu time      0.0111: real time      0.0113
    SETDIJ:  cpu time      0.2191: real time      0.2195
     EDDAV:  cpu time      0.3490: real time      0.3506
       DOS:  cpu time      0.0010: real time      0.0010
    --------------------------------------------
      LOOP:  cpu time      0.5803: real time      0.5825

 eigenvalue-minimisations  :  2560
 total energy-change (2. order) : 0.1637032E+03  (-0.1588552E+04)
 number of electron      40.0000000 magnetization 
 augmentation part       40.0000000 magnetization 

 Free energy of the ion-electron system (eV)
  ---------------------------------------------------
  alpha Z        PSCENC =        87.52689448
  Ewald energy   TEWEN  =     -1419.70397604
  -Hartree energ DENC   =      -127.42453924
  -exchange      EXHF   =         0.00000000
  -V(xc)+E(xc)   XCENC  =       -33.40232622
  PAW double counting   =      1193.78262552    -1080.73714043
  entropy T*S    EENTRO =        -0.00304704
  eigenvalues    EBANDS =        95.17008798
  atomic energy  EATOM  =      1448.49460871
  Solvation  Ediel_sol  =         0.00000000
  ---------------------------------------------------
  free energy    TOTEN  =       163.70318771 eV

  energy without entropy =      163.70623475  energy(sigma->0) =      163.70471123


--------------------------------------------------------------------------------------------------------




--------------------------------------- Iteration      1(   2)  ---------------------------------------


     EDDAV:  cpu time      0.4825: real time      0.4860
       DOS:  cpu time      0.0010: real time      0.0010
    --------------------------------------------
      LOOP:  cpu time      0.4835: real time      0.4869

 eigenvalue-minimisations  :  3696
 total energy-change (2. order) :-0.1863408E+03  (-0.1809467E+03)
 number of electron      40.0000000 magnetization 
 augmentation part       40.0000000 magnetization 

 Free energy of the ion-electron system (eV)
  ---------------------------------------------------
  alpha Z        PSCENC =        87.52689448
  Ewald energy   TEWEN  =     -1419.70397604
  -Hartree energ DENC   =      -127.42453924
  -exchange      EXHF   =         0.00000000
  -V(xc)+E(xc)   XCENC  =       -33.40232622
  PAW double counting   =      1193.78262552    -1080.73714043
  entropy T*S    EENTRO =        -0.00008102
  eigenvalues    EBANDS =       -91.17370302
  atomic energy  EATOM  =      1448.49460871
  Solvation  Ediel_sol  =         0.00000000
  ---------------------------------------------------
  free energy    TOTEN  =       -22.63763728 eV

  energy without entropy =      -22.63755625  energy(sigma->0) =      -22.63759676


--------------------------------------------------------------------------------------------------------




--------------------------------------- Iteration      1(   3)  ---------------------------------------


     EDDAV:  cpu time      0.5454: real time      0.5481
       DOS:  cpu time      0.0006: real time      0.0006
    --------------------------------------------
      LOOP:  cpu time      0.5460: real time      0.5487

 eigenvalue-minimisations  :  3424
 total energy-change (2. order) :-0.1135118E+02  (-0.1132207E+02)
 number of electron      40.0000000 magnetization 
 augmentation part       40.0000000 magnetization 

 Free energy of the ion-electron system (eV)
  ---------------------------------------------------
  alpha Z        PSCENC =        87.52689448
  Ewald energy   TEWEN  =     -1419.70397604
  -Hartree energ DENC   =      -127.42453924
  -exchange      EXHF   =         0.00000000
  -V(xc)+E(xc)   XCENC  =       -33.40232622
  PAW double counting   =      1193.78262552    -1080.73714043
  entropy T*S    EENTRO =        -0.00000000
  eigenvalues    EBANDS =      -102.52496574
  atomic energy  EATOM  =      1448.49460871
  Solvation  Ediel_sol  =         0.00000000
  ---------------------------------------------------
  free energy    TOTEN  =       -33.98881897 eV

  energy without entropy =      -33.98881897  energy(sigma->0) =      -33.98881897


--------------------------------------------------------------------------------------------------------




--------------------------------------- Iteration      1(   4)  ---------------------------------------


     EDDAV:  cpu time      0.4146: real time      0.4169
       DOS:  cpu time      0.0005: real time      0.0005
    --------------------------------------------
      LOOP:  cpu time      0.4151: real time      0.4174

 eigenvalue-minimisations  :  3104
 total energy-change (2. order) :-0.8490974E-01  (-0.8489573E-01)
 number of electron      40.0000000 magnetization 
 augmentation part       40.0000000 magnetization 

 Free energy of the ion-electron system (eV)
  ---------------------------------------------------
  alpha Z        PSCENC =        87.52689448
  Ewald energy   TEWEN  =     -1419.70397604
  -Hartree energ DENC   =      -127.42453924
  -exchange      EXHF   =         0.00000000
  -V(xc)+E(xc)   XCENC  =       -33.40232622
  PAW double counting   =      1193.78262552    -1080.73714043
  entropy T*S    EENTRO =        -0.00000000
  eigenvalues    EBANDS =      -102.60987548
  atomic energy  EATOM  =      1448.49460871
  Solvation  Ediel_sol  =         0.00000000
  ---------------------------------------------------
  free energy    TOTEN  =       -34.07372871 eV

  energy without entropy =      -34.07372871  energy(sigma->0) =      -34.07372871


--------------------------------------------------------------------------------------------------------




--------------------------------------- Iteration      1(   5)  ---------------------------------------


     EDDAV:  cpu time      0.4731: real time      0.4752
       DOS:  cpu time      0.0005: real time      0.0005
    CHARGE:  cpu time      0.0099: real time      0.0100
    MIXING:  cpu time      0.0007: real time      0.0007
    --------------------------------------------
      LOOP:  cpu time      0.4842: real time      0.4864

 eigenvalue-minimisations  :  3392
 total energy-change (2. order) :-0.5250488E-03  (-0.5250223E-03)
 number of electron      40.0000000 magnetization 
 augmentation part       -7.4124255 magnetization 

 Broyden mixing:
  rms(total) = 0.64833E+00    rms(broyden)= 0.64833E+00
  rms(prec ) = 0.73145E+00
  weight for this iteration     100.00

 Free energy of the ion-electron system (eV)
  ---------------------------------------------------
  alpha Z        PSCENC =        87.52689448
  Ewald energy   TEWEN  =     -1419.70397604
  -Hartree energ DENC   =      -127.42453924
  -exchange      EXHF   =         0.00000000
  -V(xc)+E(xc)   XCENC  =       -33.40232622
  PAW double counting   =      1193.78262552    -1080.73714043
  entropy T*S    EENTRO =        -0.00000000
  eigenvalues    EBANDS =      -102.61040053
  atomic energy  EATOM  =      1448.49460871
  Solvation  Ediel_sol  =         0.00000000
  ---------------------------------------------------
  free energy    TOTEN  =       -34.07425376 eV

  energy without entropy =      -34.07425376  energy(sigma->0) =      -34.07425376


--------------------------------------------------------------------------------------------------------




--------------------------------------- Iteration      1(   6)  ---------------------------------------


    POTLOK:  cpu time      0.0101: real time      0.0102
    SETDIJ:  cpu time      0.2221: real time      0.2227
     EDDAV:  cpu time      0.4231: real time      0.4252
       DOS:  cpu time      0.0005: real time      0.0005
    CHARGE:  cpu time      0.0089: real time      0.0090
    MIXING:  cpu time      0.0006: real time      0.0006
    --------------------------------------------
      LOOP:  cpu time      0.6653: real time      0.6682

 eigenvalue-minimisations  :  3136
 total energy-change (2. order) : 0.3722847E+00  (-0.7613952E-01)
 number of electron      40.0000000 magnetization 
 augmentation part       -7.3570087 magnetization 

 Broyden mixing:
  rms(total) = 0.40712E+00    rms(broyden)= 0.40712E+00
  rms(prec ) = 0.42920E+00
  weight for this iteration     100.00

 eigenvalues of (default mixing * dielectric matrix)
  average eigenvalue GAMMA=   2.2053
  2.2053

 Free energy of the ion-electron system (eV)
  ---------------------------------------------------
  alpha Z        PSCENC =        87.52689448
  Ewald energy   TEWEN  =     -1419.70397604
  -Hartree energ DENC   =      -133.32245995
  -exchange      EXHF   =         0.00000000
  -V(xc)+E(xc)   XCENC  =       -32.79815875
  PAW double counting   =      1456.66333651    -1343.93791129
  entropy T*S    EENTRO =        -0.00000000
  eigenvalues    EBANDS =       -96.62430275
  atomic energy  EATOM  =      1448.49460871
  Solvation  Ediel_sol  =         0.00000000
  ---------------------------------------------------
  free energy    TOTEN  =       -33.70196908 eV

  energy without entropy =      -33.70196908  energy(sigma->0) =      -33.70196908


--------------------------------------------------------------------------------------------------------




--------------------------------------- Iteration      1(   7)  ---------------------------------------


    POTLOK:  cpu time      0.0101: real time      0.0103
    SETDIJ:  cpu time      0.2199: real time      0.2205
     EDDAV:  cpu time      0.4921: real time      0.4947
       DOS:  cpu time      0.0007: real time      0.0007
    CHARGE:  cpu time      0.0088: real time      0.0088
    MIXING:  cpu time      0.0006: real time      0.0006
    --------------------------------------------
      LOOP:  cpu time      0.7323: real time      0.7357

 eigenvalue-minimisations  :  2912
 total energy-change (2. order) : 0.1321253E-01  (-0.2280197E-01)
 number of electron      40.0000000 magnetization 
 augmentation part       -7.3432964 magnetization 

 Broyden mixing:
  rms(total) = 0.12785E+00    rms(broyden)= 0.12785E+00
  rms(prec ) = 0.13651E+00
  weight for this iteration     100.00

 eigenvalues of (default mixing * dielectric matrix)
  average eigenvalue GAMMA=   1.7881
  1.1868  2.3894

 Free energy of the ion-electron system (eV)
  ---------------------------------------------------
  alpha Z        PSCENC =        87.52689448
  Ewald energy   TEWEN  =     -1419.70397604
  -Hartree energ DENC   =      -136.02697786
  -exchange      EXHF   =         0.00000000
  -V(xc)+E(xc)   XCENC  =       -32.31983533
  PAW double counting   =      1783.04633675    -1670.56307698
  entropy T*S    EENTRO =        -0.00000000
  eigenvalues    EBANDS =       -94.14273028
  atomic energy  EATOM  =      1448.49460871
  Solvation  Ediel_sol  =         0.00000000
  ---------------------------------------------------
  free energy    TOTEN  =       -33.68875655 eV

  energy without entropy =      -33.68875655  energy(sigma->0) =      -33.68875655


--------------------------------------------------------------------------------------------------------




--------------------------------------- Iteration      1(   8)  ---------------------------------------


    POTLOK:  cpu time      0.0103: real time      0.0105
    SETDIJ:  cpu time      0.2201: real time      0.2206
     EDDAV:  cpu time      0.4098: real time      0.4117
       DOS:  cpu time      0.0006: real time      0.0006
    CHARGE:  cpu time      0.0090: real time      0.0091
    MIXING:  cpu time      0.0006: real time      0.0006
    --------------------------------------------
      LOOP:  cpu time      0.6505: real time      0.6530

 eigenvalue-minimisations  :  3072
 total energy-change (2. order) : 0.1141965E-02  (-0.2093800E-02)
 number of electron      40.0000000 magnetization 
 augmentation part       -7.3512406 magnetization 

 Broyden mixing:
  rms(total) = 0.17977E-01    rms(broyden)= 0.17977E-01
  rms(prec ) = 0.21941E-01
  weight for this iteration     100.00

 eigenvalues of (default mixing * dielectric matrix)
  average eigenvalue GAMMA=   1.6938
  2.5045  1.2885  1.2885

 Free energy of the ion-electron system (eV)
  ---------------------------------------------------
  alpha Z        PSCENC =        87.52689448
  Ewald energy   TEWEN  =     -1419.70397604
  -Hartree energ DENC   =      -136.16986441
  -exchange      EXHF   =         0.00000000
  -V(xc)+E(xc)   XCENC  =       -32.17867566
  PAW double counting   =      1919.80976673    -1807.38786895
  entropy T*S    EENTRO =        -0.00000000
  eigenvalues    EBANDS =       -94.07849944
  atomic energy  EATOM  =      1448.49460871
  Solvation  Ediel_sol  =         0.00000000
  ---------------------------------------------------
  free energy    TOTEN  =       -33.68761459 eV

  energy without entropy =      -33.68761459  energy(sigma->0) =      -33.68761459


--------------------------------------------------------------------------------------------------------




--------------------------------------- Iteration      1(   9)  ---------------------------------------


    POTLOK:  cpu time      0.0104: real time      0.0105
    SETDIJ:  cpu time      0.2191: real time      0.2197
     EDDAV:  cpu time      0.4215: real time      0.4235
       DOS:  cpu time      0.0006: real time      0.0006
    CHARGE:  cpu time      0.0089: real time      0.0090
    MIXING:  cpu time      0.0006: real time      0.0006
    --------------------------------------------
      LOOP:  cpu time      0.6610: real time      0.6640

 eigenvalue-minimisations  :  3152
 total energy-change (2. order) :-0.2756395E-03  (-0.3401439E-03)
 number of electron      40.0000000 magnetization 
 augmentation part       -7.3495832 magnetization 

 Broyden mixing:
  rms(total) = 0.65690E-02    rms(broyden)= 0.65690E-02
  rms(prec ) = 0.73619E-02
  weight for this iteration     100.00

 eigenvalues of (default mixing * dielectric matrix)
  average eigenvalue GAMMA=   1.7204
  2.2782  2.2782  1.1626  1.1626

 Free energy of the ion-electron system (eV)
  ---------------------------------------------------
  alpha Z        PSCENC =        87.52689448
  Ewald energy   TEWEN  =     -1419.70397604
  -Hartree energ DENC   =      -136.50966978
  -exchange      EXHF   =         0.00000000
  -V(xc)+E(xc)   XCENC  =       -32.13992591
  PAW double counting   =      1933.53769154    -1821.12475252
  entropy T*S    EENTRO =        -0.00000000
  eigenvalues    EBANDS =       -93.76876072
  atomic energy  EATOM  =      1448.49460871
  Solvation  Ediel_sol  =         0.00000000
  ---------------------------------------------------
  free energy    TOTEN  =       -33.68789023 eV

  energy without entropy =      -33.68789023  energy(sigma->0) =      -33.68789023


--------------------------------------------------------------------------------------------------------




--------------------------------------- Iteration      1(  10)  ---------------------------------------


    POTLOK:  cpu time      0.0102: real time      0.0104
    SETDIJ:  cpu time      0.2181: real time      0.2186
     EDDAV:  cpu time      0.4151: real time      0.4174
       DOS:  cpu time      0.0006: real time      0.0006
    CHARGE:  cpu time      0.0081: real time      0.0081
    MIXING:  cpu time      0.0006: real time      0.0006
    --------------------------------------------
      LOOP:  cpu time      0.6528: real time      0.6557

 eigenvalue-minimisations  :  3104
 total energy-change (2. order) :-0.9449053E-04  (-0.2746849E-04)
 number of electron      40.0000000 magnetization 
 augmentation part       -7.3495027 magnetization 

 Broyden mixing:
  rms(total) = 0.23925E-02    rms(broyden)= 0.23925E-02
  rms(prec ) = 0.29344E-02
  weight for this iteration     100.00

 eigenvalues of (default mixing * dielectric matrix)
  average eigenvalue GAMMA=   1.7500
  2.7104  2.4167  1.1274  1.2477  1.2477

 Free energy of the ion-electron system (eV)
  ---------------------------------------------------
  alpha Z        PSCENC =        87.52689448
  Ewald energy   TEWEN  =     -1419.70397604
  -Hartree energ DENC   =      -136.54143955
  -exchange      EXHF   =         0.00000000
  -V(xc)+E(xc)   XCENC  =       -32.13694590
  PAW double counting   =      1927.23917207    -1814.82123464
  entropy T*S    EENTRO =        -0.00000000
  eigenvalues    EBANDS =       -93.74506385
  atomic energy  EATOM  =      1448.49460871
  Solvation  Ediel_sol  =         0.00000000
  ---------------------------------------------------
  free energy    TOTEN  =       -33.68798472 eV

  energy without entropy =      -33.68798472  energy(sigma->0) =      -33.68798472


--------------------------------------------------------------------------------------------------------




--------------------------------------- Iteration      1(  11)  ---------------------------------------


    POTLOK:  cpu time      0.0099: real time      0.0100
    SETDIJ:  cpu time      0.2195: real time      0.2199
     EDDAV:  cpu time      0.4229: real time      0.4252
       DOS:  cpu time      0.0006: real time      0.0006
    CHARGE:  cpu time      0.0091: real time      0.0091
    MIXING:  cpu time      0.0006: real time      0.0006
    --------------------------------------------
      LOOP:  cpu time      0.6626: real time      0.6655

 eigenvalue-minimisations  :  2864
 total energy-change (2. order) :-0.2733297E-04  (-0.4053506E-05)
 number of electron      40.0000000 magnetization 
 augmentation part       -7.3497318 magnetization 

 Broyden mixing:
  rms(total) = 0.12268E-02    rms(broyden)= 0.12268E-02
  rms(prec ) = 0.13626E-02
  weight for this iteration     100.00

 eigenvalues of (default mixing * dielectric matrix)
  average eigenvalue GAMMA=   1.7094
  2.5208  2.5208  1.9653  1.1652  1.1652  0.9192

 Free energy of the ion-electron system (eV)
  ---------------------------------------------------
  alpha Z        PSCENC =        87.52689448
  Ewald energy   TEWEN  =     -1419.70397604
  -Hartree energ DENC   =      -136.56650691
  -exchange      EXHF   =         0.00000000
  -V(xc)+E(xc)   XCENC  =       -32.13065428
  PAW double counting   =      1928.74375353    -1816.32612108
  entropy T*S    EENTRO =        -0.00000000
  eigenvalues    EBANDS =       -93.72601046
  atomic energy  EATOM  =      1448.49460871
  Solvation  Ediel_sol  =         0.00000000
  ---------------------------------------------------
  free energy    TOTEN  =       -33.68801205 eV

  energy without entropy =      -33.68801205  energy(sigma->0) =      -33.68801205


--------------------------------------------------------------------------------------------------------




--------------------------------------- Iteration      1(  12)  ---------------------------------------


    POTLOK:  cpu time      0.0100: real time      0.0102
    SETDIJ:  cpu time      0.2194: real time      0.2200
     EDDAV:  cpu time      0.4543: real time      0.4567
       DOS:  cpu time      0.0006: real time      0.0006
    --------------------------------------------
      LOOP:  cpu time      0.6844: real time      0.6875

 eigenvalue-minimisations  :  3440
 total energy-change (2. order) :-0.1409266E-06  (-0.5443291E-06)
 number of electron      40.0000000 magnetization 
 augmentation part       -7.3497318 magnetization 

 Free energy of the ion-electron system (eV)
  ---------------------------------------------------
  alpha Z        PSCENC =        87.52689448
  Ewald energy   TEWEN  =     -1419.70397604
  -Hartree energ DENC   =      -136.58030799
  -exchange      EXHF   =         0.00000000
  -V(xc)+E(xc)   XCENC  =       -32.12973974
  PAW double counting   =      1927.88987213    -1815.47198246
  entropy T*S    EENTRO =        -0.00000000
  eigenvalues    EBANDS =       -93.71338128
  atomic energy  EATOM  =      1448.49460871
  Solvation  Ediel_sol  =         0.00000000
  ---------------------------------------------------
  free energy    TOTEN  =       -33.68801219 eV

  energy without entropy =      -33.68801219  energy(sigma->0) =      -33.68801219


--------------------------------------------------------------------------------------------------------




 average (electrostatic) potential at core
  the test charge radii are     1.1631  1.0808
  (the norm of the test charge is              1.0000)
       1 -33.4605       2 -33.4605       3 -33.4605       4 -33.4605       5 -54.9566
       6 -54.9566       7 -54.9566       8 -54.9566
 
 
 
 E-fermi :   3.7805     XC(G=0):  -9.2934     alpha+bet : -8.7197

 Fermi energy:         3.7805210785

 k-point     1 :       0.0000    0.0000    0.0000
  band No.  band energies     occupation 
      1     -10.9619      2.00000
      2     -10.6188      2.00000
      3      -9.7041      2.00000
      4      -9.1838      2.00000
      5      -4.7822      2.00000
      6      -4.1165      2.00000
      7      -2.8057      2.00000
      8      -2.1107      2.00000
      9      -1.8563      2.00000
     10      -0.3943      2.00000
     11      -0.1773      2.00000
     12      -0.0633      2.00000
     13       0.2475      2.00000
     14       0.4052      2.00000
     15       1.4637      2.00000
     16       1.5458      2.00000
     17       1.7608      2.00000
     18       2.2816      2.00000
     19       2.3096      2.00000
     20       3.5758      2.00000
     21       3.9848      0.00000
     22       5.7561      0.00000
     23       5.8127      0.00000
     24       5.8641      0.00000
     25       6.2861      0.00000
     26       6.5113      0.00000
     27       6.8922      0.00000
     28       7.1097      0.00000
     29       8.3616      0.00000
     30       8.4317      0.00000
     31       8.6518      0.00000
     32       9.0874      0.00000

 k-point     2 :       0.1667    0.0000    0.0000
  band No.  band energies     occupation 
      1     -10.7729      2.00000
      2     -10.4420      2.00000
      3      -9.5918      2.00000
      4      -9.1249      2.00000
      5      -4.9906      2.00000
      6      -4.3430      2.00000
      7      -3.2126      2.00000
      8      -2.6116      2.00000
      9      -1.6805      2.00000
     10      -0.2469      2.00000
     11      -0.1747      2.00000
     12      -0.0129      2.00000
     13       0.0537      2.00000
     14       0.3725      2.00000
     15       1.3339      2.00000
     16       1.4333      2.00000
     17       1.5890      2.00000
     18       2.1672      2.00000
     19       2.5958      2.00000
     20       3.3951      2.00000
     21       4.1807      0.00000
     22       5.3679      0.00000
     23       5.7741      0.00000
     24       6.1680      0.00000
     25       6.3974      0.00000
     26       6.5453      0.00000
     27       6.8173      0.00000
     28       7.1243      0.00000
     29       7.2752      0.00000
     30       8.1782      0.00000
     31       8.1983      0.00000
     32       8.8890      0.00000

 k-point     3 :       0.3333    0.0000    0.0000
  band No.  band energies     occupation 
      1     -10.2576      2.00000
      2      -9.9715      2.00000
      3      -9.4132      2.00000
      4      -9.1145      2.00000
      5      -5.4081      2.00000
      6      -4.7359      2.00000
      7      -4.3346      2.00000
      8      -3.6379      2.00000
      9      -1.1036      2.00000
     10      -0.2306      2.00000
     11      -0.0253      2.00000
     12       0.3955      2.00000
     13       0.4611      2.00000
     14       0.7030      2.00000
     15       1.1220      2.00000
     16       1.5556      2.00000
     17       1.6146      2.00000
     18       1.6998      2.00000
     19       2.6575      2.00000
     20       2.9159      2.00000
     21       4.1717      0.00000
     22       4.5591      0.00000
     23       4.7530      0.00000
     24       5.3094      0.00000
     25       5.4034      0.00000
     26       5.8082      0.00000
     27       5.9318      0.00000
     28       6.7562      0.00000
     29       6.9094      0.00000
     30       7.3850      0.00000
     31       7.5479      0.00000
     32       8.8118      0.00000

 k-point     4 :       0.5000    0.0000    0.0000
  band No.  band energies     occupation 
      1      -9.6361      2.00000
      2      -9.6361      2.00000
      3      -9.4288      2.00000
      4      -9.4288      2.00000
      5      -5.2832      2.00000
      6      -5.2832      2.00000
      7      -4.5427      2.00000
      8      -4.5427      2.00000
      9      -0.3263      2.00000
     10      -0.3263      2.00000
     11       0.4297      2.00000
     12       0.4297      2.00000
     13       0.8681      2.00000
     14       0.8681      2.00000
     15       1.2391      2.00000
     16       1.2391      2.00000
     17       1.5578      2.00000
     18       1.5578      2.00000
     19       2.4400      2.00000
     20       2.4400      2.00000
     21       4.1901      0.00000
     22       4.1901      0.00000
     23       4.7683      0.00000
     24       4.7683      0.00000
     25       5.1663      0.00000
     26       5.1663      0.00000
     27       5.7489      0.00000
     28       5.7489      0.00000
     29       6.4564      0.00000
     30       6.4564      0.00000
     31       8.1384      0.00000
     32       8.1384      0.00000

 k-point     5 :       0.0000    0.1667    0.0000
  band No.  band energies     occupation 
      1     -10.8467      2.00000
      2     -10.5102      2.00000
      3      -9.7149      2.00000
      4      -9.2423      2.00000
      5      -5.0837      2.00000
      6      -4.2351      2.00000
      7      -3.4476      2.00000
      8      -2.6182      2.00000
      9      -1.6635      2.00000
     10      -0.0841      2.00000
     11       0.3746      2.00000
     12       0.4164      2.00000
     13       0.4562      2.00000
     14       0.5436      2.00000
     15       1.5497      2.00000
     16       1.6791      2.00000
     17       1.8680      2.00000
     18       1.9905      2.00000
     19       2.6847      2.00000
     20       3.3709      2.00000
     21       4.1579      0.00000
     22       5.2158      0.00000
     23       5.8194      0.00000
     24       5.8687      0.00000
     25       6.0812      0.00000
     26       6.4840      0.00000
     27       6.7376      0.00000
     28       6.8896      0.00000
     29       7.7432      0.00000
     30       7.9445      0.00000
     31       8.1146      0.00000
     32       9.1414      0.00000

 k-point     6 :       0.1667    0.1667    0.0000
  band No.  band energies     occupation 
      1     -10.6634      2.00000
      2     -10.3393      2.00000
      3      -9.6026      2.00000
      4      -9.1802      2.00000
      5      -5.1173      2.00000
      6      -4.3976      2.00000
      7      -3.5330      2.00000
      8      -3.0151      2.00000
      9      -1.5268      2.00000
     10      -0.7641      2.00000
     11      -0.5246      2.00000
     12       0.1833      2.00000
     13       0.8654      2.00000
     14       0.8809      2.00000
     15       1.2444      2.00000
     16       1.2770      2.00000
     17       1.8989      2.00000
     18       2.1007      2.00000
     19       2.8256      2.00000
     20       3.1753      2.00000
     21       4.3964      0.00000
     22       5.1402      0.00000
     23       5.5670      0.00000
     24       5.6675      0.00000
     25       6.3317      0.00000
     26       6.4361      0.00000
     27       6.8883      0.00000
     28       7.0002      0.00000
     29       7.5563      0.00000
     30       7.9901      0.00000
     31       8.2183      0.00000
     32       8.7509      0.00000

 k-point     7 :       0.1667   -0.1667    0.0000
  band No.  band energies     occupation 
      1     -10.6629      2.00000
      2     -10.3392      2.00000
      3      -9.6054      2.00000
      4      -9.1733      2.00000
      5      -5.1840      2.00000
      6      -4.3307      2.00000
      7      -3.6768      2.00000
      8      -2.8373      2.00000
      9      -1.4950      2.00000
     10      -0.7283      2.00000
     11      -0.4916      2.00000
     12       0.0875      2.00000
     13       0.8530      2.00000
     14       0.9043      2.00000
     15       1.0984      2.00000
     16       1.3627      2.00000
     17       1.9007      2.00000
     18       2.0561      2.00000
     19       2.7521      2.00000
     20       3.3346      2.00000
     21       4.2788      0.00000
     22       5.0866      0.00000
     23       5.4856      0.00000
     24       5.5674      0.00000
     25       6.4115      0.00000
     26       6.6913      0.00000
     27       7.2761      0.00000
     28       7.3102      0.00000
     29       7.3853      0.00000
     30       7.4649      0.00000
     31       7.9968      0.00000
     32       9.3899      0.00000

 k-point     8 :       0.3333    0.1667    0.0000
  band No.  band energies     occupation 
      1     -10.1693      2.00000
      2      -9.8901      2.00000
      3      -9.4143      2.00000
      4      -9.1420      2.00000
      5      -5.3042      2.00000
      6      -4.6967      2.00000
      7      -4.2817      2.00000
      8      -3.8174      2.00000
      9      -1.0019      2.00000
     10      -0.9994      2.00000
     11      -0.8146      2.00000
     12      -0.0753      2.00000
     13       0.8162      2.00000
     14       0.9946      2.00000
     15       1.0368      2.00000
     16       1.1940      2.00000
     17       1.3282      2.00000
     18       1.7604      2.00000
     19       2.4973      2.00000
     20       2.8737      2.00000
     21       4.2523      0.00000
     22       5.0804      0.00000
     23       5.1054      0.00000
     24       5.2060      0.00000
     25       5.7706      0.00000
     26       6.3787      0.00000
     27       6.7010      0.00000
     28       6.8235      0.00000
     29       7.5074      0.00000
     30       7.7897      0.00000
     31       8.1020      0.00000
     32       8.6213      0.00000

 k-point     9 :       0.3333   -0.1667    0.0000
  band No.  band energies     occupation 
      1     -10.1682      2.00000
      2      -9.8905      2.00000
      3      -9.4235      2.00000
      4      -9.1266      2.00000
      5      -5.3837      2.00000
      6      -4.6187      2.00000
      7      -4.4169      2.00000
      8      -3.6538      2.00000
      9      -1.0779      2.00000
     10      -0.9667      2.00000
     11      -0.6467      2.00000
     12      -0.1070      2.00000
     13       0.5916      2.00000
     14       0.8014      2.00000
     15       1.0256      2.00000
     16       1.3091      2.00000
     17       1.4852      2.00000
     18       1.9320      2.00000
     19       2.3469      2.00000
     20       2.8698      2.00000
     21       4.2317      0.00000
     22       4.8736      0.00000
     23       4.9384      0.00000
     24       5.4702      0.00000
     25       5.9794      0.00000
     26       6.1975      0.00000
     27       6.9161      0.00000
     28       6.9996      0.00000
     29       7.1235      0.00000
     30       7.8059      0.00000
     31       8.4796      0.00000
     32       8.7587      0.00000

 k-point    10 :       0.5000    0.1667    0.0000
  band No.  band energies     occupation 
      1      -9.5984      2.00000
      2      -9.5917      2.00000
      3      -9.3962      2.00000
      4      -9.3878      2.00000
      5      -5.1873      2.00000
      6      -5.1739      2.00000
      7      -4.5132      2.00000
      8      -4.4905      2.00000
      9      -0.6087      2.00000
     10      -0.5322      2.00000
     11      -0.3175      2.00000
     12      -0.0240      2.00000
     13       0.1627      2.00000
     14       0.4291      2.00000
     15       0.7873      2.00000
     16       0.7873      2.00000
     17       1.5208      2.00000
     18       1.5483      2.00000
     19       2.5998      2.00000
     20       2.6536      2.00000
     21       4.2351      0.00000
     22       4.2972      0.00000
     23       5.3151      0.00000
     24       5.5211      0.00000
     25       6.0915      0.00000
     26       6.1509      0.00000
     27       6.2653      0.00000
     28       6.6572      0.00000
     29       7.1218      0.00000
     30       7.2416      0.00000
     31       7.8566      0.00000
     32       7.8706      0.00000

 k-point    11 :       0.0000    0.3333    0.0000
  band No.  band energies     occupation 
      1     -10.5321      2.00000
      2     -10.2126      2.00000
      3      -9.8225      2.00000
      4      -9.4525      2.00000
      5      -5.4167      2.00000
      6      -4.4937      2.00000
      7      -4.3701      2.00000
      8      -3.4498      2.00000
      9      -1.2071      2.00000
     10       0.2955      2.00000
     11       0.7381      2.00000
     12       0.8939      2.00000
     13       1.2434      2.00000
     14       1.2461      2.00000
     15       1.5317      2.00000
     16       1.6676      2.00000
     17       1.6708      2.00000
     18       2.7936      2.00000
     19       2.9074      2.00000
     20       3.1575      2.00000
     21       4.3947      0.00000
     22       4.7148      0.00000
     23       4.9332      0.00000
     24       5.5144      0.00000
     25       5.8944      0.00000
     26       6.0009      0.00000
     27       6.2606      0.00000
     28       6.7793      0.00000
     29       6.8694      0.00000
     30       7.0881      0.00000
     31       7.9669      0.00000
     32       9.3374      0.00000

 k-point    12 :       0.1667    0.3333    0.0000
  band No.  band energies     occupation 
      1     -10.3664      2.00000
      2     -10.0594      2.00000
      3      -9.7049      2.00000
      4      -9.3676      2.00000
      5      -5.3157      2.00000
      6      -4.3968      2.00000
      7      -4.3558      2.00000
      8      -3.5844      2.00000
      9      -1.0642      2.00000
     10      -0.8266      2.00000
     11      -0.4475      2.00000
     12       0.2788      2.00000
     13       0.4892      2.00000
     14       0.8072      2.00000
     15       1.3959      2.00000
     16       1.7355      2.00000
     17       1.9524      2.00000
     18       2.2618      2.00000
     19       2.9434      2.00000
     20       3.0414      2.00000
     21       4.5659      0.00000
     22       5.2451      0.00000
     23       5.5093      0.00000
     24       5.8239      0.00000
     25       5.8478      0.00000
     26       6.2020      0.00000
     27       6.8399      0.00000
     28       7.3201      0.00000
     29       7.5768      0.00000
     30       7.6032      0.00000
     31       8.2641      0.00000
     32       8.7011      0.00000

 k-point    13 :       0.1667   -0.3333    0.0000
  band No.  band energies     occupation 
      1     -10.3654      2.00000
      2     -10.0598      2.00000
      3      -9.7090      2.00000
      4      -9.3595      2.00000
      5      -5.3449      2.00000
      6      -4.4847      2.00000
      7      -4.3405      2.00000
      8      -3.4655      2.00000
      9      -1.0214      2.00000
     10      -0.6839      2.00000
     11      -0.5088      2.00000
     12       0.1166      2.00000
     13       0.5228      2.00000
     14       0.6764      2.00000
     15       1.3482      2.00000
     16       1.9628      2.00000
     17       2.1022      2.00000
     18       2.3636      2.00000
     19       2.6093      2.00000
     20       2.9596      2.00000
     21       4.5921      0.00000
     22       5.1547      0.00000
     23       5.5829      0.00000
     24       5.6808      0.00000
     25       5.9370      0.00000
     26       6.3462      0.00000
     27       6.8641      0.00000
     28       7.2080      0.00000
     29       7.5372      0.00000
     30       7.9126      0.00000
     31       7.9660      0.00000
     32       9.2109      0.00000

 k-point    14 :       0.3333    0.3333    0.0000
  band No.  band energies     occupation 
      1      -9.9383      2.00000
      2      -9.6761      2.00000
      3      -9.4740      2.00000
      4      -9.2336      2.00000
      5      -5.1406      2.00000
      6      -4.4744      2.00000
      7      -4.4105      2.00000
      8      -4.0917      2.00000
      9      -1.5851      2.00000
     10      -1.2558      2.00000
     11      -0.8782      2.00000
     12      -0.6076      2.00000
     13      -0.1633      2.00000
     14       0.5961      2.00000
     15       0.6525      2.00000
     16       0.6738      2.00000
     17       1.0008      2.00000
     18       1.9942      2.00000
     19       2.4974      2.00000
     20       2.5432      2.00000
     21       4.4431      0.00000
     22       6.0425      0.00000
     23       6.3126      0.00000
     24       6.3567      0.00000
     25       6.6412      0.00000
     26       6.7387      0.00000
     27       6.8912      0.00000
     28       7.7905      0.00000
     29       8.2529      0.00000
     30       8.3776      0.00000
     31       8.7470      0.00000
     32       9.5503      0.00000

 k-point    15 :       0.3333   -0.3333    0.0000
  band No.  band energies     occupation 
      1      -9.9353      2.00000
      2      -9.6789      2.00000
      3      -9.4863      2.00000
      4      -9.2147      2.00000
      5      -5.2047      2.00000
      6      -4.6141      2.00000
      7      -4.4210      2.00000
      8      -3.8342      2.00000
      9      -1.5921      2.00000
     10      -1.1667      2.00000
     11      -0.9271      2.00000
     12      -0.6031      2.00000
     13      -0.2155      2.00000
     14       0.3124      2.00000
     15       0.4631      2.00000
     16       1.1615      2.00000
     17       1.2000      2.00000
     18       1.6465      2.00000
     19       2.2832      2.00000
     20       2.9470      2.00000
     21       4.2953      0.00000
     22       5.9197      0.00000
     23       6.0309      0.00000
     24       6.5207      0.00000
     25       6.5783      0.00000
     26       7.1259      0.00000
     27       7.1980      0.00000
     28       7.6402      0.00000
     29       8.1620      0.00000
     30       8.4170      0.00000
     31       8.5236      0.00000
     32       9.4712      0.00000

 k-point    16 :       0.5000    0.3333    0.0000
  band No.  band energies     occupation 
      1      -9.5153      2.00000
      2      -9.5029      2.00000
      3      -9.3232      2.00000
      4      -9.3077      2.00000
      5      -4.9558      2.00000
      6      -4.9157      2.00000
      7      -4.4714      2.00000
      8      -4.4101      2.00000
      9      -1.2791      2.00000
     10      -1.2736      2.00000
     11      -0.8712      2.00000
     12      -0.7975      2.00000
     13      -0.3504      2.00000
     14      -0.2404      2.00000
     15       0.2417      2.00000
     16       0.3375      2.00000
     17       0.8464      2.00000
     18       1.1724      2.00000
     19       2.3136      2.00000
     20       2.6496      2.00000
     21       5.2515      0.00000
     22       5.2984      0.00000
     23       6.5092      0.00000
     24       6.6604      0.00000
     25       6.9959      0.00000
     26       7.0938      0.00000
     27       7.3656      0.00000
     28       7.5108      0.00000
     29       8.0525      0.00000
     30       8.2203      0.00000
     31       9.0673      0.00000
     32       9.2624      0.00000

 k-point    17 :       0.0000    0.5000    0.0000
  band No.  band energies     occupation 
      1     -10.1278      2.00000
      2     -10.1278      2.00000
      3      -9.8143      2.00000
      4      -9.8143      2.00000
      5      -5.2334      2.00000
      6      -5.2334      2.00000
      7      -4.1209      2.00000
      8      -4.1209      2.00000
      9      -0.4616      2.00000
     10      -0.4616      2.00000
     11       1.2317      2.00000
     12       1.2317      2.00000
     13       1.3172      2.00000
     14       1.3172      2.00000
     15       1.9457      2.00000
     16       1.9457      2.00000
     17       2.2652      2.00000
     18       2.2652      2.00000
     19       2.9058      2.00000
     20       2.9058      2.00000
     21       4.6523      0.00000
     22       4.6523      0.00000
     23       5.1809      0.00000
     24       5.1809      0.00000
     25       5.6029      0.00000
     26       5.6029      0.00000
     27       6.1376      0.00000
     28       6.1376      0.00000
     29       6.4153      0.00000
     30       6.4153      0.00000
     31       8.8937      0.00000
     32       8.8937      0.00000

 k-point    18 :       0.1667    0.5000    0.0000
  band No.  band energies     occupation 
      1      -9.9905      2.00000
      2      -9.9880      2.00000
      3      -9.6927      2.00000
      4      -9.6893      2.00000
      5      -5.1244      2.00000
      6      -5.0979      2.00000
      7      -4.1032      2.00000
      8      -4.0546      2.00000
      9      -0.5020      2.00000
     10      -0.4935      2.00000
     11      -0.2078      2.00000
     12      -0.1038      2.00000
     13       0.1308      2.00000
     14       0.1856      2.00000
     15       1.5513      2.00000
     16       1.8695      2.00000
     17       1.9632      2.00000
     18       2.5571      2.00000
     19       2.8030      2.00000
     20       3.0102      2.00000
     21       4.7628      0.00000
     22       4.8431      0.00000
     23       5.7853      0.00000
     24       5.8076      0.00000
     25       6.1799      0.00000
     26       6.4438      0.00000
     27       6.9968      0.00000
     28       7.1349      0.00000
     29       7.2982      0.00000
     30       7.3986      0.00000
     31       8.4696      0.00000
     32       8.5548      0.00000

 k-point    19 :       0.3333    0.5000    0.0000
  band No.  band energies     occupation 
      1      -9.6687      2.00000
      2      -9.6610      2.00000
      3      -9.4254      2.00000
      4      -9.4153      2.00000
      5      -4.9104      2.00000
      6      -4.8514      2.00000
      7      -4.2385      2.00000
      8      -4.1378      2.00000
      9      -1.5356      2.00000
     10      -1.4279      2.00000
     11      -0.9796      2.00000
     12      -0.9658      2.00000
     13      -0.1608      2.00000
     14      -0.1126      2.00000
     15       0.4875      2.00000
     16       0.6664      2.00000
     17       0.9843      2.00000
     18       1.4594      2.00000
     19       2.3607      2.00000
     20       2.7100      2.00000
     21       5.2913      0.00000
     22       5.3020      0.00000
     23       6.9648      0.00000
     24       6.9682      0.00000
     25       7.3544      0.00000
     26       7.3582      0.00000
     27       7.6308      0.00000
     28       7.7994      0.00000
     29       8.4522      0.00000
     30       8.5686      0.00000
     31       9.1689      0.00000
     32       9.4176      0.00000

 k-point    20 :       0.5000    0.5000    0.0000
  band No.  band energies     occupation 
      1      -9.4716      2.00000
      2      -9.4566      2.00000
      3      -9.2850      2.00000
      4      -9.2664      2.00000
      5      -4.8137      2.00000
      6      -4.7310      2.00000
      7      -4.4963      2.00000
      8      -4.3843      2.00000
      9      -1.5776      2.00000
     10      -1.4886      2.00000
     11      -1.2422      2.00000
     12      -1.1124      2.00000
     13      -0.6569      2.00000
     14      -0.2413      2.00000
     15      -0.1787      2.00000
     16       0.0274      2.00000
     17       0.6563      2.00000
     18       1.1970      2.00000
[...]
     32       8.2374      0.00000

 k-point    32 :       0.1667    0.3333    0.5000
  band No.  band energies     occupation 
      1     -10.2489      2.00000
      2     -10.2489      2.00000
      3      -9.5010      2.00000
      4      -9.5010      2.00000
      5      -4.9892      2.00000
      6      -4.9892      2.00000
      7      -3.8963      2.00000
      8      -3.8963      2.00000
      9      -0.7335      2.00000
     10      -0.7335      2.00000
     11      -0.0290      2.00000
     12      -0.0290      2.00000
     13       0.4393      2.00000
     14       0.4393      2.00000
     15       1.5183      2.00000
     16       1.5183      2.00000
     17       2.1012      2.00000
     18       2.1012      2.00000
     19       2.7650      2.00000
     20       2.7650      2.00000
     21       5.2749      0.00000
     22       5.2749      0.00000
     23       5.6974      0.00000
     24       5.6974      0.00000
     25       6.3539      0.00000
     26       6.3539      0.00000
     27       6.9468      0.00000
     28       6.9468      0.00000
     29       7.3481      0.00000
     30       7.3481      0.00000
     31       8.2268      0.00000
     32       8.2268      0.00000

 k-point    33 :       0.1667   -0.3333    0.5000
  band No.  band energies     occupation 
      1     -10.2490      2.00000
      2     -10.2490      2.00000
      3      -9.4990      2.00000
      4      -9.4990      2.00000
      5      -5.0279      2.00000
      6      -5.0279      2.00000
      7      -3.8536      2.00000
      8      -3.8536      2.00000
      9      -0.7650      2.00000
     10      -0.7650      2.00000
     11       0.0602      2.00000
     12       0.0602      2.00000
     13       0.4564      2.00000
     14       0.4564      2.00000
     15       1.4905      2.00000
     16       1.4905      2.00000
     17       2.1628      2.00000
     18       2.1628      2.00000
     19       2.5647      2.00000
     20       2.5647      2.00000
     21       5.3469      0.00000
     22       5.3469      0.00000
     23       5.5813      0.00000
     24       5.5813      0.00000
     25       6.4212      0.00000
     26       6.4212      0.00000
     27       6.8066      0.00000
     28       6.8066      0.00000
     29       7.7688      0.00000
     30       7.7688      0.00000
     31       8.3524      0.00000
     32       8.3524      0.00000

 k-point    34 :       0.3333    0.3333    0.5000
  band No.  band energies     occupation 
      1      -9.8402      2.00000
      2      -9.8402      2.00000
      3      -9.3213      2.00000
      4      -9.3213      2.00000
      5      -4.8725      2.00000
      6      -4.8725      2.00000
      7      -4.2121      2.00000
      8      -4.2121      2.00000
      9      -1.4367      2.00000
     10      -1.4367      2.00000
     11      -0.6456      2.00000
     12      -0.6456      2.00000
     13       0.0837      2.00000
     14       0.0837      2.00000
     15       0.7985      2.00000
     16       0.7985      2.00000
     17       1.4029      2.00000
     18       1.4029      2.00000
     19       2.3918      2.00000
     20       2.3918      2.00000
     21       5.5615      0.00000
     22       5.5615      0.00000
     23       6.1657      0.00000
     24       6.1657      0.00000
     25       6.6046      0.00000
     26       6.6046      0.00000
     27       7.4324      0.00000
     28       7.4324      0.00000
     29       7.9236      0.00000
     30       7.9236      0.00000
     31       9.4175      0.00000
     32       9.4175      0.00000

 k-point    35 :       0.3333   -0.3333    0.5000
  band No.  band energies     occupation 
      1      -9.8412      2.00000
      2      -9.8412      2.00000
      3      -9.3175      2.00000
      4      -9.3175      2.00000
      5      -4.9631      2.00000
      6      -4.9631      2.00000
      7      -4.1008      2.00000
      8      -4.1008      2.00000
      9      -1.4869      2.00000
     10      -1.4869      2.00000
     11      -0.6267      2.00000
     12      -0.6267      2.00000
     13       0.1393      2.00000
     14       0.1393      2.00000
     15       0.7835      2.00000
     16       0.7835      2.00000
     17       1.5057      2.00000
     18       1.5057      2.00000
     19       2.1957      2.00000
     20       2.1957      2.00000
     21       5.4693      0.00000
     22       5.4693      0.00000
     23       6.1544      0.00000
     24       6.1544      0.00000
     25       6.7474      0.00000
     26       6.7474      0.00000
     27       7.7136      0.00000
     28       7.7136      0.00000
     29       8.0285      0.00000
     30       8.0285      0.00000
     31       9.1194      0.00000
     32       9.1194      0.00000

 k-point    36 :       0.5000    0.3333    0.5000
  band No.  band energies     occupation 
      1      -9.5044      2.00000
      2      -9.5044      2.00000
      3      -9.3213      2.00000
      4      -9.3213      2.00000
      5      -4.8644      2.00000
      6      -4.8644      2.00000
      7      -4.5267      2.00000
      8      -4.5267      2.00000
      9      -1.1874      2.00000
     10      -1.1874      2.00000
     11      -0.9470      2.00000
     12      -0.9470      2.00000
     13      -0.2031      2.00000
     14      -0.2031      2.00000
     15       0.0803      2.00000
     16       0.0803      2.00000
     17       1.5700      2.00000
     18       1.5700      2.00000
     19       1.9591      2.00000
     20       1.9591      2.00000
     21       5.7697      0.00000
     22       5.7697      0.00000
     23       6.1650      0.00000
     24       6.1650      0.00000
     25       6.8890      0.00000
     26       6.8890      0.00000
     27       7.3141      0.00000
     28       7.3141      0.00000
     29       8.5477      0.00000
     30       8.5477      0.00000
     31       8.8746      0.00000
     32       8.8746      0.00000

 k-point    37 :       0.0000    0.5000    0.5000
  band No.  band energies     occupation 
      1     -10.1224      2.00000
      2     -10.1224      2.00000
      3      -9.8219      2.00000
      4      -9.8219      2.00000
      5      -5.1247      2.00000
      6      -5.1247      2.00000
      7      -4.3124      2.00000
      8      -4.3124      2.00000
      9       0.3223      2.00000
     10       0.3223      2.00000
     11       0.7020      2.00000
     12       0.7020      2.00000
     13       1.2455      2.00000
     14       1.2455      2.00000
     15       1.3458      2.00000
     16       1.3458      2.00000
     17       2.5565      2.00000
     18       2.5565      2.00000
     19       2.8904      2.00000
     20       2.8904      2.00000
     21       4.7001      0.00000
     22       4.7001      0.00000
     23       5.0444      0.00000
     24       5.0444      0.00000
     25       6.0107      0.00000
     26       6.0107      0.00000
     27       6.3009      0.00000
     28       6.3009      0.00000
     29       6.7872      0.00000
     30       6.7872      0.00000
     31       8.0982      0.00000
     32       8.0982      0.00000

 k-point    38 :       0.1667    0.5000    0.5000
  band No.  band energies     occupation 
      1      -9.9841      2.00000
      2      -9.9841      2.00000
      3      -9.6980      2.00000
      4      -9.6980      2.00000
      5      -5.0143      2.00000
      6      -5.0143      2.00000
      7      -4.2411      2.00000
      8      -4.2411      2.00000
      9      -0.3655      2.00000
     10      -0.3655      2.00000
     11      -0.1534      2.00000
     12      -0.1534      2.00000
     13       0.7780      2.00000
     14       0.7780      2.00000
     15       0.8931      2.00000
     16       0.8931      2.00000
     17       2.2008      2.00000
     18       2.2008      2.00000
     19       2.6955      2.00000
     20       2.6955      2.00000
     21       5.5309      0.00000
     22       5.5309      0.00000
     23       5.7101      0.00000
     24       5.7101      0.00000
     25       6.4522      0.00000
     26       6.4522      0.00000
     27       6.9572      0.00000
     28       6.9572      0.00000
     29       7.4236      0.00000
     30       7.4236      0.00000
     31       8.0899      0.00000
     32       8.0899      0.00000

 k-point    39 :       0.3333    0.5000    0.5000
  band No.  band energies     occupation 
      1      -9.6608      2.00000
      2      -9.6608      2.00000
      3      -9.4256      2.00000
      4      -9.4256      2.00000
      5      -4.8199      2.00000
      6      -4.8199      2.00000
      7      -4.2694      2.00000
      8      -4.2694      2.00000
      9      -1.3147      2.00000
     10      -1.3147      2.00000
     11      -1.2734      2.00000
     12      -1.2734      2.00000
     13       0.2402      2.00000
     14       0.2402      2.00000
     15       0.4142      2.00000
     16       0.4142      2.00000
     17       1.4998      2.00000
     18       1.4998      2.00000
     19       1.9988      2.00000
     20       1.9988      2.00000
     21       5.9053      0.00000
     22       5.9053      0.00000
     23       6.4805      0.00000
     24       6.4805      0.00000
     25       7.3126      0.00000
     26       7.3126      0.00000
     27       7.6034      0.00000
     28       7.6034      0.00000
     29       8.7757      0.00000
     30       8.7757      0.00000
     31       9.1972      0.00000
     32       9.1972      0.00000

 k-point    40 :       0.5000    0.5000    0.5000
  band No.  band energies     occupation 
      1      -9.4612      2.00000
      2      -9.4612      2.00000
      3      -9.2792      2.00000
      4      -9.2792      2.00000
      5      -4.7313      2.00000
      6      -4.7313      2.00000
      7      -4.4879      2.00000
      8      -4.4879      2.00000
      9      -1.4556      2.00000
     10      -1.4556      2.00000
     11      -1.1291      2.00000
     12      -1.1291      2.00000
     13      -0.6124      2.00000
     14      -0.6124      2.00000
     15      -0.3325      2.00000
     16      -0.3325      2.00000
     17       1.6240      2.00000
     18       1.6240      2.00000
     19       1.9910      2.00000
     20       1.9910      2.00000
     21       5.7550      0.00000
     22       5.7550      0.00000
     23       6.1244      0.00000
     24       6.1244      0.00000
     25       7.7911      0.00000
     26       7.7911      0.00000
     27       8.0974      0.00000
     28       8.0974      0.00000
     29       9.2487      0.00000
     30       9.2487      0.00000
     31       9.9622      0.00000
     32       9.9622      0.00000


--------------------------------------------------------------------------------------------------------


 soft charge-density along one line, spin component            1
         0         1         2         3         4         5         6         7         8         9
 total charge-density along one line
 
 pseudopotential strength for first ion, spin component:            1
 14.512  18.105   0.040   0.043   0.003   0.071   0.077   0.006
 18.105  22.603   0.050   0.054   0.004   0.090   0.097   0.007
  0.040   0.050   3.224  -0.003  -0.000   5.488  -0.004  -0.001
  0.043   0.054  -0.003   3.221  -0.000  -0.004   5.484  -0.000
  0.003   0.004  -0.000  -0.000   3.225  -0.001  -0.000   5.490
  0.071   0.090   5.488  -0.004  -0.001   9.399  -0.008  -0.001
  0.077   0.097  -0.004   5.484  -0.000  -0.008   9.392  -0.000
  0.006   0.007  -0.001  -0.000   5.490  -0.001  -0.000   9.403
 -0.001  -0.001   0.001  -0.000   0.006   0.001  -0.000   0.012
 -0.005  -0.007   0.011   0.013  -0.000   0.020   0.023  -0.000
 -0.004  -0.005  -0.003   0.011  -0.001  -0.006   0.020  -0.001
 -0.000  -0.000  -0.000   0.001   0.011  -0.000   0.001   0.020
  0.001   0.002  -0.012   0.000   0.001  -0.021   0.000   0.002
 total augmentation occupancy for first ion, spin component:            1
  2.753  -0.723   0.325   0.338   0.023  -0.060  -0.061  -0.004  -0.005  -0.003  -0.001  -0.008   0.010
 -0.723   0.683  -0.417  -0.448  -0.030   0.066   0.069   0.004   0.006   0.001   0.001   0.009  -0.007
  0.325  -0.417   1.236   0.079  -0.000  -0.202  -0.004   0.001   0.003   0.043  -0.100   0.003   0.002
  0.338  -0.448   0.079   1.327  -0.015  -0.004  -0.215   0.005   0.004  -0.024   0.093   0.008  -0.004
  0.023  -0.030  -0.000  -0.015   1.251   0.001   0.005  -0.216   0.143   0.003   0.003   0.037   0.001
 -0.060   0.066  -0.202  -0.004   0.001   0.037  -0.000  -0.000  -0.001  -0.007   0.017  -0.001  -0.000
 -0.061   0.069  -0.004  -0.215   0.005  -0.000   0.040  -0.001  -0.001   0.004  -0.016  -0.002   0.001
 -0.004   0.004   0.001   0.005  -0.216  -0.000  -0.001   0.041  -0.025  -0.001  -0.000  -0.006  -0.000
 -0.005   0.006   0.003   0.004   0.143  -0.001  -0.001  -0.025   0.031  -0.001  -0.001   0.004   0.000
 -0.003   0.001   0.043  -0.024   0.003  -0.007   0.004  -0.001  -0.001   0.012  -0.007  -0.001   0.001
 -0.001   0.001  -0.100   0.093   0.003   0.017  -0.016  -0.000  -0.001  -0.007   0.031  -0.001  -0.002
 -0.008   0.009   0.003   0.008   0.037  -0.001  -0.002  -0.006   0.004  -0.001  -0.001   0.011  -0.000
  0.010  -0.007   0.002  -0.004   0.001  -0.000   0.001  -0.000   0.000   0.001  -0.002  -0.000   0.008


------------------------ aborting loop because EDIFF is reached ----------------------------------------


    CHARGE:  cpu time      0.0089: real time      0.0090
    FORLOC:  cpu time      0.0004: real time      0.0004
    FORNL :  cpu time      0.0596: real time      0.0598
    STRESS:  cpu time      0.4414: real time      0.4435
    FORCOR:  cpu time      0.0092: real time      0.0092
    FORHAR:  cpu time      0.0022: real time      0.0022
    MIXING:  cpu time      0.0007: real time      0.0007
    OFIELD:  cpu time      0.0000: real time      0.0000

  FORCE on cell =-STRESS in cart. coord.  units (eV):
  Direction    XX          YY          ZZ          XY          YZ          ZX
  --------------------------------------------------------------------------------------
  Alpha Z    87.52689    87.52689    87.52689
  Ewald    -438.43127  -486.65817  -494.61604    -5.74529     0.00000     0.00000
  Hartree    62.38689    41.06521    33.13600    -1.83655    -0.00000     0.00000
  E(xc)    -141.21907  -141.24164  -141.44952    -0.05341     0.00000     0.00000
  Local    -188.48606  -124.89297  -113.09608     7.44462     0.00000     0.00000
  n-local   240.52362   240.03576   241.63279     0.01862     0.00000    -0.00000
  augment   -11.37892   -11.78434   -12.16056     0.01297    -0.00000    -0.00000
  Kinetic   390.31922   396.45044   401.00599    -0.61833     0.00000     0.00000
  Fock        0.00000     0.00000     0.00000     0.00000     0.00000     0.00000
  -------------------------------------------------------------------------------------
  Total       1.24131     0.50119     1.97947    -0.77738     0.00000     0.00000
  in kB      10.27322     4.14790    16.38228    -6.43366     0.00001     0.00000
  external pressure =       10.27 kB  Pullay stress =        0.00 kB


 VOLUME and BASIS-vectors are now :
 -----------------------------------------------------------------------------
  energy-cutoff  :      520.00
  volume of cell :      193.59
      direct lattice vectors                 reciprocal lattice vectors
     3.858100176  0.000000000  0.000000000     0.259194929  0.000000000  0.000000000
     0.000000000  4.526575088  0.000000000     0.000000000  0.220917577  0.000000000
     0.000000000  0.000000000 11.085176468     0.000000000  0.000000000  0.090210562

  length of vectors
     3.858100176  4.526575088 11.085176468     0.259194929  0.220917577  0.090210562


 FORCES acting on ions
    electron-ion (+dipol)            ewald-force                    non-local-force                 convergence-correction
 -----------------------------------------------------------------------------------------------
   0.357E+00 0.151E+02 0.259E+02   -.591E+00 -.175E+02 -.285E+02   0.190E+00 0.245E+01 0.278E+01   0.160E-04 -.279E-04 -.133E-02
   0.357E+00 0.151E+02 -.259E+02   -.591E+00 -.175E+02 0.285E+02   0.190E+00 0.245E+01 -.278E+01   0.151E-04 -.312E-04 0.133E-02
   -.357E+00 -.151E+02 -.259E+02   0.591E+00 0.175E+02 0.285E+02   -.190E+00 -.245E+01 -.278E+01   -.157E-04 0.288E-04 0.132E-02
   -.357E+00 -.151E+02 0.259E+02   0.591E+00 0.175E+02 -.285E+02   -.190E+00 -.245E+01 0.278E+01   -.156E-04 0.299E-04 -.132E-02
   0.100E+01 -.144E+02 -.237E+02   -.837E+00 0.160E+02 0.252E+02   -.301E+00 -.150E+01 -.157E+01   -.583E-04 0.285E-03 0.251E-02
   0.100E+01 -.144E+02 0.237E+02   -.837E+00 0.160E+02 -.252E+02   -.301E+00 -.150E+01 0.157E+01   -.615E-04 0.288E-03 -.250E-02
   -.100E+01 0.144E+02 0.237E+02   0.837E+00 -.160E+02 -.252E+02   0.301E+00 0.150E+01 0.157E+01   0.603E-04 -.287E-03 -.250E-02
   -.100E+01 0.144E+02 -.237E+02   0.837E+00 -.160E+02 0.252E+02   0.301E+00 0.150E+01 -.157E+01   0.613E-04 -.289E-03 0.250E-02
 -----------------------------------------------------------------------------------------------
   0.152E-05 0.229E-05 -.870E-06   -.344E-14 0.711E-14 0.355E-14   0.826E-04 0.130E-05 0.329E-06   0.165E-05 -.296E-05 0.959E-06
 
 
 POSITION                                       TOTAL-FORCE (eV/Angst)
 -----------------------------------------------------------------------------------
      1.69141      0.51657      1.36328        -0.043749     -0.015565      0.124543
      3.62046      2.77986      4.17930        -0.043749     -0.015566     -0.124544
      2.89358      4.01000      9.72189         0.043728      0.015564     -0.124545
      0.96453      1.74671      6.90587         0.043728      0.015565      0.124546
      1.69141      4.49629      3.90621        -0.136965      0.043192     -0.032968
      3.62046      2.23300      1.63637        -0.136964      0.043191      0.032969
      2.89358      0.03028      7.17896         0.136986     -0.043191      0.032966
      0.96453      2.29357      9.44880         0.136985     -0.043190     -0.032966
 -----------------------------------------------------------------------------------
    total drift:                                0.000086      0.000001      0.000000


--------------------------------------------------------------------------------------------------------



  FREE ENERGIE OF THE ION-ELECTRON SYSTEM (eV)
  ---------------------------------------------------
  free  energy   TOTEN  =       -33.68801219 eV

  energy  without entropy=      -33.68801219  energy(sigma->0) =      -33.68801219
 


--------------------------------------------------------------------------------------------------------


    POTLOK:  cpu time      0.2284: real time      0.2291


--------------------------------------------------------------------------------------------------------


     LOOP+:  cpu time      8.1832: real time      8.2225
    4ORBIT:  cpu time      0.0000: real time      0.0000

 total amount of memory used by VASP MPI-rank0    41770. kBytes
=======================================================================

   base      :      30000. kBytes
   nonl-proj :       9056. kBytes
   fftplans  :        519. kBytes
   grid      :        766. kBytes
   one-center:         16. kBytes
   wavefun   :       1413. kBytes
 
  
  
 General timing and accounting informations for this job:
 ========================================================
  
                  Total CPU time used (sec):        9.951
                            User time (sec):        9.627
                          System time (sec):        0.325
                         Elapsed time (sec):       10.256
  
                   Maximum memory used (kb):      182548.
                   Average memory used (kb):          N/A
  
                          Minor page faults:        23582
                          Major page faults:           26
                 Voluntary context switches:         1962
