 running  128 mpi-ranks, with    1 threads/rank, on    2 nodes
 distrk:  each k-point on   64 cores,    2 groups
 distr:  one band on    8 cores,    8 groups
 vasp.6.4.2 20Jul23 (build Oct 12 2023 10:31:02) complex                         
 POSCAR found type information on POSCAR GeSe
 POSCAR found :  2 types and      72 ions
 Reading from existing POTCAR
 -----------------------------------------------------------------------------
|                                                                             |
|           W    W    AA    RRRRR   N    N  II  N    N   GGGG   !!!           |
|           W    W   A  A   R    R  NN   N  II  NN   N  G    G  !!!           |
|           W    W  A    A  R    R  N N  N  II  N N  N  G       !!!           |
|           W WW W  AAAAAA  RRRRR   N  N N  II  N  N N  G  GGG   !            |
|           WW  WW  A    A  R   R   N   NN  II  N   NN  G    G                |
|           W    W  A    A  R    R  N    N  II  N    N   GGGG   !!!           |
|                                                                             |
|     You use a magnetic or noncollinear calculation, but did not specify     |
|     the initial magnetic moment with the MAGMOM tag. Note that a            |
|     default of 1 will be used for all atoms. This ferromagnetic setup       |
|     may break the symmetry of the crystal, in particular it may rule        |
|     out finding an antiferromagnetic solution. Thence, we recommend         |
|     setting the initial magnetic moment manually or verifying carefully     |
|     that this magnetic setup is desired.                                    |
|                                                                             |
 -----------------------------------------------------------------------------

 scaLAPACK will be used
 Reading from existing POTCAR
 -----------------------------------------------------------------------------
|                                                                             |
|               ----> ADVICE to this user running VASP <----                  |
|                                                                             |
|     You have a (more or less) 'large supercell' and for larger cells it     |
|     might be more efficient to use real-space projection operators.         |
|     Therefore, try LREAL= Auto in the INCAR file.                           |
|     Mind: For very accurate calculation, you might also keep the            |
|     reciprocal projection scheme (i.e. LREAL=.FALSE.).                      |
|                                                                             |
 -----------------------------------------------------------------------------

 LDA part: xc-table for Pade appr. of Perdew
 -----------------------------------------------------------------------------
|                                                                             |
|           W    W    AA    RRRRR   N    N  II  N    N   GGGG   !!!           |
|           W    W   A  A   R    R  NN   N  II  NN   N  G    G  !!!           |
|           W    W  A    A  R    R  N N  N  II  N N  N  G       !!!           |
|           W WW W  AAAAAA  RRRRR   N  N N  II  N  N N  G  GGG   !            |
|           WW  WW  A    A  R   R   N   NN  II  N   NN  G    G                |
|           W    W  A    A  R    R  N    N  II  N    N   GGGG   !!!           |
|                                                                             |
|     The number of bands has been changed from the values supplied in        |
|     the INCAR file. This is a result of running the parallel version.       |
|     The orbitals not found in the WAVECAR file will be initialized with     |
|     random numbers, which is usually adequate. For correlated               |
|     calculations, however, you should redo the groundstate calculation.     |
|     I found NBANDS = 220. Now, NBANDS = 224.                                |
|                                                                             |
 -----------------------------------------------------------------------------

 POSCAR, INCAR and KPOINTS ok, starting setup
 FFT: planning ... GRIDC
 FFT: planning ... GRID_SOFT
 FFT: planning ... GRID
 WAVECAR not read
 WARNING: random wavefunctions but no delay for mixing, default for NELMDL
 entering main loop
       N       E                     dE             d eps       ncg     rms          rms(c)
DAV:   1     0.181837559078E+04    0.18184E+04   -0.14186E+05  7168   0.135E+03
DAV:   2    -0.644032963240E+02   -0.18828E+04   -0.18081E+04  8480   0.205E+02
DAV:   3    -0.281970915831E+03   -0.21757E+03   -0.21171E+03  8584   0.693E+01
DAV:   4    -0.289871470608E+03   -0.79006E+01   -0.78089E+01  8712   0.130E+01
DAV:   5    -0.290170958382E+03   -0.29949E+00   -0.29862E+00  9088   0.215E+00    0.291E+01
DAV:   6    -0.289518858249E+03    0.65210E+00   -0.26954E+01  7904   0.768E+00    0.172E+01
DAV:   7    -0.297111883761E+03   -0.75930E+01   -0.87637E+00  7968   0.455E+00    0.909E+00
DAV:   8    -0.300335775407E+03   -0.32239E+01   -0.17500E+00  8208   0.227E+00    0.331E+00
DAV:   9    -0.300718430713E+03   -0.38266E+00   -0.42648E-01  9032   0.103E+00    0.149E+00
DAV:  10    -0.300822229418E+03   -0.10380E+00   -0.91760E-02  8232   0.460E-01    0.739E-01
DAV:  11    -0.300855014645E+03   -0.32785E-01   -0.38776E-02  8744   0.295E-01    0.285E-01
DAV:  12    -0.300858299652E+03   -0.32850E-02   -0.46806E-03  8672   0.123E-01    0.110E-01
DAV:  13    -0.300858392016E+03   -0.92363E-04   -0.60451E-04  9840   0.389E-02    0.502E-02
DAV:  14    -0.300858409826E+03   -0.17811E-04   -0.11113E-04  8256   0.203E-02    0.176E-02
DAV:  15    -0.300858414378E+03   -0.45515E-05   -0.20954E-05  8552   0.104E-02    0.760E-03
DAV:  16    -0.300858414988E+03   -0.61052E-06   -0.15451E-06  5016   0.295E-03
   1 F= -.30085841E+03 E0= -.30085841E+03  d E =-.239589E-13  mag=     0.0006
