 running  128 mpi-ranks, with    1 threads/rank, on    2 nodes
 distrk:  each k-point on   64 cores,    2 groups
 distr:  one band on    4 cores,   16 groups
 vasp.6.4.2 20Jul23 (build Oct 12 2023 10:31:02) complex                         
 POSCAR found type information on POSCAR GeSe
 POSCAR found :  2 types and       8 ions
 Reading from existing POTCAR
 scaLAPACK will be used
 Reading from existing POTCAR
 LDA part: xc-table for Pade appr. of Perdew
 POSCAR, INCAR and KPOINTS ok, starting setup
 FFT: planning ... GRIDC
 FFT: planning ... GRID_SOFT
 FFT: planning ... GRID
 WAVECAR not read
 entering main loop
       N       E                     dE             d eps       ncg     rms          rms(c)
DAV:   1     0.132194653411E+03    0.13219E+03   -0.12632E+04  2560   0.763E+02
DAV:   2    -0.244651317374E+02   -0.15666E+03   -0.15226E+03  3776   0.136E+02
DAV:   3    -0.338626513544E+02   -0.93975E+01   -0.93785E+01  3168   0.389E+01
DAV:   4    -0.339318645330E+02   -0.69213E-01   -0.69207E-01  3248   0.384E+00
DAV:   5    -0.339323119636E+02   -0.44743E-03   -0.44743E-03  3184   0.301E-01    0.607E+00
DAV:   6    -0.333542442137E+02    0.57807E+00   -0.12789E+00  2864   0.368E+00    0.373E+00
DAV:   7    -0.333459345326E+02    0.83097E-02   -0.27792E-01  3120   0.184E+00    0.159E+00
DAV:   8    -0.333455388425E+02    0.39569E-03   -0.28380E-02  2832   0.653E-01    0.180E-01
DAV:   9    -0.333454054292E+02    0.13341E-03   -0.50915E-03  3088   0.294E-01    0.740E-02
DAV:  10    -0.333455569946E+02   -0.15157E-03   -0.55555E-04  2928   0.104E-01    0.250E-02
DAV:  11    -0.333455815150E+02   -0.24520E-04   -0.44039E-05  2912   0.307E-02    0.142E-02
DAV:  12    -0.333455815182E+02   -0.32002E-08   -0.10819E-05  3056   0.135E-02    0.390E-03
DAV:  13    -0.333455823653E+02   -0.84701E-06   -0.12823E-06  1952   0.424E-03
   1 F= -.33345582E+02 E0= -.33345582E+02  d E =-.242526E-12
