 vasp.6.4.2 20Jul23 (build Oct 12 2023 10:31:02) complex                         
 executed on              LinuxNV date 2025.05.17  17:50:20
 running  160 mpi-ranks, with    1 threads/rank, on   10 nodes
 distrk:  each k-point on   80 cores,    2 groups
 distr:  one band on NCORE=   5 cores,   16 groups


--------------------------------------------------------------------------------------------------------


 INCAR:
   ENCUT = 360.000000
   SIGMA = 0.050000
   EDIFF = 1.00e-06
   ALGO = Normal
   GGA = PE
   PREC = Normal
   SYSTEM = ./
   ICHARG = 2
   ISMEAR = 0
   ISPIN = 1
   ISTART = 0
   ISYM = 0
   KPAR = 2
   LMAXMIX = 4
   NELM = 100
   NPAR = 16
   LASPH = .TRUE.
   LCHARG = .FALSE.
   LWAVE = .FALSE.

 POTCAR:    PAW_PBE Ge 05Jan2001                  
 POTCAR:    PAW_PBE Se 06Sep2000                  
 POTCAR:    PAW_PBE Ge 05Jan2001                  
   VRHFIN =Ge: s2p2                                                                                 
   LEXCH  = PE                                                                                      
   EATOM  =   104.9960 eV,    7.7170 Ry                                                             
                                                                                                    
   TITEL  = PAW_PBE Ge 05Jan2001                                                                    
   LULTRA =        F    use ultrasoft PP ?                                                          
   IUNSCR =        1    unscreen: 0-lin 1-nonlin 2-no                                               
   RPACOR =    2.170    partial core radius                                                         
   POMASS =   72.610; ZVAL   =    4.000    mass and valenz                                          
   RCORE  =    2.300    outmost cutoff radius                                                       
   RWIGS  =    2.300; RWIGS  =    1.217    wigner-seitz radius (au A)                               
   ENMAX  =  173.807; ENMIN  =  130.355 eV                                                          
   ICORE  =        3    local potential                                                             
   LCOR   =        T    correct aug charges                                                         
   LPAW   =        T    paw PP                                                                      
   EAUG   =  385.843                                                                                
   DEXC   =    0.000                                                                                
   RMAX   =    2.342    core radius for proj-oper                                                   
   RAUG   =    1.300    factor for augmentation sphere                                              
   RDEP   =    2.318    radius for radial grids                                                     
   RDEPT  =    2.103    core radius for aug-charge                                                  
                                                                                                    
   Atomic configuration                                                                             
   10 entries                                                                                       
     n  l   j            E        occ.                                                              
     1  0  0.50    -10959.8463   2.0000                                                             
     2  0  0.50     -1371.6056   2.0000                                                             
     2  1  1.50     -1198.4791   6.0000                                                             
     3  0  0.50      -168.4733   2.0000                                                             
     3  1  1.50      -115.6019   6.0000                                                             
     3  2  2.50       -29.3106  10.0000                                                             
     4  0  0.50       -11.7309   2.0000                                                             
     4  1  0.50        -3.8952   2.0000                                                             
     4  2  1.50        -4.0817   0.0000                                                             
     4  3  2.50        -4.0817   0.0000                                                             
   Description                                                                                      
     l       E           TYP  RCUT    TYP  RCUT                                                     
     0    -11.7309493     23  2.300                                                                 
     0     -7.4578696     23  2.300                                                                 
     1     -3.8952261     23  2.300                                                                 
     1      6.1178114     23  2.300                                                                 
     2     -4.0817478     23  2.300                                                                 
     3     -1.3605826      7  2.300                                                                 
  local pseudopotential read in
  partial core-charges read in
  partial kinetic energy density read in
  atomic valenz-charges read in
  non local Contribution for L=            0  read in
    real space projection operators read in
  non local Contribution for L=            0  read in
    real space projection operators read in
  non local Contribution for L=            1  read in
    real space projection operators read in
  non local Contribution for L=            1  read in
    real space projection operators read in
  non local Contribution for L=            2  read in
    real space projection operators read in
    PAW grid and wavefunctions read in
 
   number of l-projection  operators is LMAX  =            5
   number of lm-projection operators is LMMAX =           13
 
 POTCAR:    PAW_PBE Se 06Sep2000                  
   VRHFIN =Se: s2p4                                                                                 
   LEXCH  = PE                                                                                      
   EATOM  =   257.1286 eV,   18.8984 Ry                                                             
                                                                                                    
   TITEL  = PAW_PBE Se 06Sep2000                                                                    
   LULTRA =        F    use ultrasoft PP ?                                                          
   IUNSCR =        1    unscreen: 0-lin 1-nonlin 2-no                                               
   RPACOR =    1.900    partial core radius                                                         
   POMASS =   78.960; ZVAL   =    6.000    mass and valenz                                          
   RCORE  =    2.100    outmost cutoff radius                                                       
   RWIGS  =    2.200; RWIGS  =    1.164    wigner-seitz radius (au A)                               
   ENMAX  =  211.555; ENMIN  =  158.666 eV                                                          
   ICORE  =        3    local potential                                                             
   LCOR   =        T    correct aug charges                                                         
   LPAW   =        T    paw PP                                                                      
   EAUG   =  446.842                                                                                
   DEXC   =    0.000                                                                                
   RMAX   =    2.147    core radius for proj-oper                                                   
   RAUG   =    1.300    factor for augmentation sphere                                              
   RDEP   =    2.177    radius for radial grids                                                     
   RDEPT  =    1.928    core radius for aug-charge                                                  
                                                                                                    
   Atomic configuration                                                                             
   10 entries                                                                                       
     n  l   j            E        occ.                                                              
     1  0  0.50    -12503.4787   2.0000                                                             
     2  0  0.50     -1606.9547   2.0000                                                             
     2  1  1.50     -1413.3140   6.0000                                                             
     3  0  0.50      -213.4885   2.0000                                                             
     3  1  1.50      -152.9538   6.0000                                                             
     3  2  2.50       -53.1221  10.0000                                                             
     4  0  0.50       -17.2865   2.0000                                                             
     4  1  0.50        -6.5110   4.0000                                                             
     4  2  2.50        -6.8029   0.0000                                                             
     4  3  2.50        -6.8029   0.0000                                                             
   Description                                                                                      
     l       E           TYP  RCUT    TYP  RCUT                                                     
     0    -17.2865377     23  2.100                                                                 
     0    -15.3094411     23  2.100                                                                 
     1     -6.5110275     23  2.100                                                                 
     1     -0.0695192     23  2.100                                                                 
     2     -6.8029130     23  2.100                                                                 
     3     -1.3605826      7  2.100                                                                 
  local pseudopotential read in
  partial core-charges read in
  partial kinetic energy density read in
  atomic valenz-charges read in
  non local Contribution for L=            0  read in
    real space projection operators read in
  non local Contribution for L=            0  read in
    real space projection operators read in
  non local Contribution for L=            1  read in
    real space projection operators read in
  non local Contribution for L=            1  read in
    real space projection operators read in
  non local Contribution for L=            2  read in
    real space projection operators read in
    PAW grid and wavefunctions read in
 
   number of l-projection  operators is LMAX  =            5
   number of lm-projection operators is LMMAX =           13
 
  PAW_PBE Ge 05Jan2001                  :
 energy of atom  1       EATOM= -104.9960
 kinetic energy error for atom=    0.0005 (will be added to EATOM!!)
  PAW_PBE Se 06Sep2000                  :
 energy of atom  2       EATOM= -257.1286
 kinetic energy error for atom=    0.0030 (will be added to EATOM!!)
 
 
 POSCAR: Ge Se
  positions in cartesian coordinates
  No initial velocities read in
 exchange correlation table for  LEXCH =        8
   RHO(1)=    0.500       N(1)  =     2000
   RHO(2)=  100.500       N(2)  =     4000
 


--------------------------------------------------------------------------------------------------------


 ion  position               nearest neighbor table
   1  0.004  0.409  0.116-   5 2.58   6 2.59   6 2.59
   2  0.504  0.909  0.384-   6 2.58   5 2.59   5 2.59
   3  0.750  0.881  0.884-   7 2.58   8 2.59   8 2.59
   4  0.250  0.381  0.616-   8 2.58   7 2.59   7 2.59
   5  0.004  0.285  0.355-   1 2.58   2 2.59   2 2.59
   6  0.504  0.785  0.145-   2 2.58   1 2.59   1 2.59
   7  0.750  0.005  0.645-   3 2.58   4 2.59   4 2.59
   8  0.250  0.505  0.855-   4 2.58   3 2.59   3 2.59
 

IMPORTANT INFORMATION: All symmetrisations will be switched off!
NOSYMM: (Re-)initialisation of all symmetry stuff for point group C_1.


----------------------------------------------------------------------------------------

                                     Primitive cell                                     

  volume of cell :     184.8593

  direct lattice vectors                    reciprocal lattice vectors
     3.858100176  0.000000000  0.000000000     0.259194929  0.000000000  0.000000000
     0.000000000  4.526575088  0.000000000     0.000000000  0.220917577  0.000000000
     0.000000000  0.000000000 10.585176468     0.000000000  0.000000000  0.094471736

  length of vectors
     3.858100176  4.526575088 10.585176468     0.259194929  0.220917577  0.094471736

  position of ions in fractional coordinates (direct lattice)
     0.003622897  0.409051195  0.116293234
     0.503622945  0.909051221  0.383706663
     0.749999529  0.880803548  0.883706698
     0.249998913  0.380803590  0.616293301
     0.003622969  0.284796283  0.354521754
     0.503622848  0.784796383  0.145478256
     0.749999119  0.005058363  0.645478205
     0.249999423  0.505058446  0.854521738

  ion indices of the primitive-cell ions
   primitive index   ion index
                 1           1
                 2           2
                 3           3
                 4           4
                 5           5
                 6           6
                 7           7
                 8           8

----------------------------------------------------------------------------------------

 
 
 KPOINTS: KPOINTS created by Atomic Simulation Env

Automatic generation of k-mesh.
 Grid dimensions read from file:
 generate k-points for:    6    6    2

 Generating k-lattice:

  Cartesian coordinates                     Fractional coordinates (reciprocal lattice)
     0.043199155  0.000000000  0.000000000     0.166666667  0.000000000  0.000000000
     0.000000000  0.036819596  0.000000000     0.000000000  0.166666667  0.000000000
     0.000000000  0.000000000  0.047235868     0.000000000  0.000000000  0.500000000

  Length of vectors
     0.043199155  0.036819596  0.047235868

  Shift w.r.t. Gamma in fractional coordinates (k-lattice)
     0.000000000  0.000000000  0.000000000

 
 Subroutine IBZKPT returns following result:
 ===========================================
 
 Found     40 irreducible k-points:
 
 Following reciprocal coordinates:
            Coordinates               Weight
  0.000000  0.000000  0.000000      1.000000
  0.166667  0.000000  0.000000      2.000000
  0.333333  0.000000  0.000000      2.000000
  0.500000  0.000000  0.000000      1.000000
  0.000000  0.166667  0.000000      2.000000
  0.166667  0.166667  0.000000      2.000000
  0.166667 -0.166667  0.000000      2.000000
  0.333333  0.166667  0.000000      2.000000
  0.333333 -0.166667  0.000000      2.000000
  0.500000  0.166667  0.000000      2.000000
  0.000000  0.333333  0.000000      2.000000
  0.166667  0.333333  0.000000      2.000000
  0.166667 -0.333333  0.000000      2.000000
  0.333333  0.333333  0.000000      2.000000
  0.333333 -0.333333  0.000000      2.000000
  0.500000  0.333333  0.000000      2.000000
  0.000000  0.500000  0.000000      1.000000
  0.166667  0.500000  0.000000      2.000000
  0.333333  0.500000  0.000000      2.000000
  0.500000  0.500000  0.000000      1.000000
  0.000000  0.000000  0.500000      1.000000
  0.166667  0.000000  0.500000      2.000000
  0.333333  0.000000  0.500000      2.000000
  0.500000  0.000000  0.500000      1.000000
  0.000000  0.166667  0.500000      2.000000
  0.166667  0.166667  0.500000      2.000000
  0.166667 -0.166667  0.500000      2.000000
  0.333333  0.166667  0.500000      2.000000
  0.333333 -0.166667  0.500000      2.000000
  0.500000  0.166667  0.500000      2.000000
  0.000000  0.333333  0.500000      2.000000
  0.166667  0.333333  0.500000      2.000000
  0.166667 -0.333333  0.500000      2.000000
  0.333333  0.333333  0.500000      2.000000
  0.333333 -0.333333  0.500000      2.000000
  0.500000  0.333333  0.500000      2.000000
  0.000000  0.500000  0.500000      1.000000
  0.166667  0.500000  0.500000      2.000000
  0.333333  0.500000  0.500000      2.000000
  0.500000  0.500000  0.500000      1.000000
 
 Following cartesian coordinates:
            Coordinates               Weight
  0.000000  0.000000  0.000000      1.000000
  0.043199  0.000000  0.000000      2.000000
  0.086398  0.000000  0.000000      2.000000
  0.129597  0.000000  0.000000      1.000000
  0.000000  0.036820  0.000000      2.000000
  0.043199  0.036820  0.000000      2.000000
  0.043199 -0.036820  0.000000      2.000000
  0.086398  0.036820  0.000000      2.000000
  0.086398 -0.036820  0.000000      2.000000
  0.129597  0.036820  0.000000      2.000000
  0.000000  0.073639  0.000000      2.000000
  0.043199  0.073639  0.000000      2.000000
  0.043199 -0.073639  0.000000      2.000000
  0.086398  0.073639  0.000000      2.000000
  0.086398 -0.073639  0.000000      2.000000
  0.129597  0.073639  0.000000      2.000000
  0.000000  0.110459  0.000000      1.000000
  0.043199  0.110459  0.000000      2.000000
  0.086398  0.110459  0.000000      2.000000
  0.129597  0.110459  0.000000      1.000000
  0.000000  0.000000  0.047236      1.000000
  0.043199  0.000000  0.047236      2.000000
  0.086398  0.000000  0.047236      2.000000
  0.129597  0.000000  0.047236      1.000000
  0.000000  0.036820  0.047236      2.000000
  0.043199  0.036820  0.047236      2.000000
  0.043199 -0.036820  0.047236      2.000000
  0.086398  0.036820  0.047236      2.000000
  0.086398 -0.036820  0.047236      2.000000
  0.129597  0.036820  0.047236      2.000000
  0.000000  0.073639  0.047236      2.000000
  0.043199  0.073639  0.047236      2.000000
  0.043199 -0.073639  0.047236      2.000000
  0.086398  0.073639  0.047236      2.000000
  0.086398 -0.073639  0.047236      2.000000
  0.129597  0.073639  0.047236      2.000000
  0.000000  0.110459  0.047236      1.000000
  0.043199  0.110459  0.047236      2.000000
  0.086398  0.110459  0.047236      2.000000
  0.129597  0.110459  0.047236      1.000000
 


--------------------------------------------------------------------------------------------------------




 Dimension of arrays:
   k-points           NKPTS =     40   k-points in BZ     NKDIM =     40   number of bands    NBANDS=     32
   number of dos      NEDOS =    301   number of ions     NIONS =      8
   non local maximal  LDIM  =      5   non local SUM 2l+1 LMDIM =     13
   total plane-waves  NPLWV =  21600
   max r-space proj   IRMAX =      1   max aug-charges    IRDMAX=   6549
   dimension x,y,z NGX =    18 NGY =   24 NGZ =   50
   dimension x,y,z NGXF=    36 NGYF=   48 NGZF=  100
   support grid    NGXF=    36 NGYF=   48 NGZF=  100
   ions per type =               4   4
   NGX,Y,Z   is equivalent  to a cutoff of   7.76,  8.81,  7.85 a.u.
   NGXF,Y,Z  is equivalent  to a cutoff of  15.51, 17.63, 15.71 a.u.

 SYSTEM =  ./                                      
 POSCAR =  Ge Se                                   

 Startparameter for this run:
   NWRITE =      2    write-flag & timer
   PREC   = normal    normal or accurate (medium, high low for compatibility)
   ISTART =      0    job   : 0-new  1-cont  2-samecut
   ICHARG =      2    charge: 1-file 2-atom 10-const
   ISPIN  =      1    spin polarized calculation?
   LNONCOLLINEAR =      F non collinear calculations
   LSORBIT =      F    spin-orbit coupling
   INIWAV =      1    electr: 0-lowe 1-rand  2-diag
   LASPH  =      T    aspherical Exc in radial PAW
 Electronic Relaxation 1
   ENCUT  =  360.0 eV  26.46 Ry    5.14 a.u.   5.97  7.00 16.38*2*pi/ulx,y,z
   ENINI  =  360.0     initial cutoff
   ENAUG  =  446.8 eV  augmentation charge cutoff
   NELM   =    100;   NELMIN=  2; NELMDL= -5     # of ELM steps 
   EDIFF  = 0.1E-05   stopping-criterion for ELM
   LREAL  =      F    real-space projection
   NLSPLINE    = F    spline interpolate recip. space projectors
   LCOMPAT=      F    compatible to vasp.4.4
   GGA_COMPAT  = T    GGA compatible to vasp.4.4-vasp.4.6
   LMAXPAW     = -100 max onsite density
   LMAXMIX     =    4 max onsite mixed and CHGCAR
   VOSKOWN=      0    Vosko Wilk Nusair interpolation
   ROPT   =    0.00000   0.00000
 Ionic relaxation
   EDIFFG = 0.1E-04   stopping-criterion for IOM
   NSW    =      0    number of steps for IOM
   NBLOCK =      1;   KBLOCK =      1    inner block; outer block 
   IBRION =     -1    ionic relax: 0-MD 1-quasi-New 2-CG
   NFREE  =      0    steps in history (QN), initial steepest desc. (CG)
   ISIF   =      2    stress and relaxation
   IWAVPR =     10    prediction:  0-non 1-charg 2-wave 3-comb
   ISYM   =      0    0-nonsym 1-usesym 2-fastsym
   LCORR  =      T    Harris-Foulkes like correction to forces

   POTIM  = 0.5000    time-step for ionic-motion
   TEIN   =    0.0    initial temperature
   TEBEG  =    0.0;   TEEND  =   0.0 temperature during run
   SMASS  =  -3.00    Nose mass-parameter (am)
   estimated Nose-frequenzy (Omega)   =  0.10E-29 period in steps = 0.13E+47 mass=  -0.340E-27a.u.
   SCALEE = 1.0000    scale energy and forces
   NPACO  =    256;   APACO  = 10.0  distance and # of slots for P.C.
   PSTRESS=    0.0 pullay stress

  Mass of Ions in am
   POMASS =  72.61 78.96
  Ionic Valenz
   ZVAL   =   4.00  6.00
  Atomic Wigner-Seitz radii
   RWIGS  =  -1.00 -1.00
  virtual crystal weights 
   VCA    =   1.00  1.00
   NELECT =      40.0000    total number of electrons
   NUPDOWN=      -1.0000    fix difference up-down

 DOS related values:
   EMIN   =  10.00;   EMAX   =-10.00  energy-range for DOS
   EFERMI =   0.00;   METHOD = LEGACY      
   ISMEAR =     0;   SIGMA  =   0.05  broadening in eV -4-tet -1-fermi 0-gaus

 Electronic relaxation 2 (details)
   IALGO  =     38    algorithm
   LDIAG  =      T    sub-space diagonalisation (order eigenvalues)
   LSUBROT=      F    optimize rotation matrix (better conditioning)
   TURBO    =      0    0=normal 1=particle mesh
   IRESTART =      0    0=no restart 2=restart with 2 vectors
   NREBOOT  =      0    no. of reboots
   NMIN     =      0    reboot dimension
   EREF     =   0.00    reference energy to select bands
   IMIX   =      4    mixing-type and parameters
     AMIX     =   0.40;   BMIX     =  1.00
     AMIX_MAG =   1.60;   BMIX_MAG =  1.00
     AMIN     =   0.10
     WC   =   100.;   INIMIX=   1;  MIXPRE=   1;  MAXMIX= -45

 Intra band minimization:
   WEIMIN = 0.0000     energy-eigenvalue tresh-hold
   EBREAK =  0.78E-08  absolut break condition
   DEPER  =   0.30     relativ break condition  

   TIME   =   0.40     timestep for ELM

  volume/ion in A,a.u.               =      23.11       155.94
  Fermi-wavevector in a.u.,A,eV,Ry     =   0.982836  1.857291 13.142773  0.965967
  Thomas-Fermi vector in A             =   2.113949
 
 Write flags
   LWAVE        =      F    write WAVECAR
   LDOWNSAMPLE  =      F    k-point downsampling of WAVECAR
   LCHARG       =      F    write CHGCAR
   LVTOT        =      F    write LOCPOT, total local potential
   LVHAR        =      F    write LOCPOT, Hartree potential only
   LELF         =      F    write electronic localiz. function (ELF)
   LORBIT       =      0    0 simple, 1 ext, 2 COOP (PROOUT), +10 PAW based schemes


 Dipole corrections
   LMONO  =      F    monopole corrections only (constant potential shift)
   LDIPOL =      F    correct potential (dipole corrections)
   IDIPOL =      0    1-x, 2-y, 3-z, 4-all directions 
   EPSILON=  1.0000000 bulk dielectric constant

 Exchange correlation treatment:
   GGA     =    PE    GGA type
   LEXCH   =     8    internal setting for exchange type
   LIBXC   =     F    Libxc                    
   VOSKOWN =     0    Vosko Wilk Nusair interpolation
   LHFCALC =     F    Hartree Fock is set to
   LHFONE  =     F    Hartree Fock one center treatment
   AEXX    =    0.0000 exact exchange contribution

 Linear response parameters
   LEPSILON=     F    determine dielectric tensor
   LRPA    =     F    only Hartree local field effects (RPA)
   LNABLA  =     F    use nabla operator in PAW spheres
   LVEL    =     F    velocity operator in full k-point grid
   CSHIFT  =0.1000    complex shift for real part using Kramers Kronig
   OMEGAMAX=  -1.0    maximum frequency
   DEG_THRESHOLD= 0.2000000E-02 threshold for treating states as degnerate
   RTIME   =   -0.100 relaxation time in fs
  (WPLASMAI=    0.000 imaginary part of plasma frequency in eV, 0.658/RTIME)
   DFIELD  = 0.0000000 0.0000000 0.0000000 field for delta impulse in time
 
  Optional k-point grid parameters
   LKPOINTS_OPT  =     F    use optional k-point grid
   KPOINTS_OPT_MODE=     1    mode for optional k-point grid
 
 Orbital magnetization related:
   ORBITALMAG=     F  switch on orbital magnetization
   LCHIMAG   =     F  perturbation theory with respect to B field
   DQ        =  0.001000  dq finite difference perturbation B field
   LLRAUG    =     F  two centre corrections for induced B field
   LBONE     =     F  B-component reconstruction in AE one-centre
   LVGVCALC  =     T  calculate vGv susceptibility
   LVGVAPPL  =     F  apply vGv susceptibility instead of pGv for G=0

 Random number generation:
   RANDOM_GENERATOR = DEFAULT
   PCG_SEED         = not used


--------------------------------------------------------------------------------------------------------


 Static calculation
 charge density and potential will be updated during run
 non-spin polarized calculation
 Variant of blocked Davidson
 Davidson routine will perform the subspace rotation
 perform sub-space diagonalisation
    after iterative eigenvector-optimisation
 modified Broyden-mixing scheme, WC =      100.0
 initial mixing is a Kerker type mixing with AMIX =  0.4000 and BMIX =      1.0000
 Hartree-type preconditioning will be used
 using additional bands            12
 reciprocal scheme for non local part
 use partial core corrections
 calculate Harris-corrections to forces 
   (improved forces if not selfconsistent)
 use gradient corrections 
 use of overlap-Matrix (Vanderbilt PP)
 Gauss-broadening in eV      SIGMA  =   0.05


--------------------------------------------------------------------------------------------------------


  energy-cutoff  :      360.00
  volume of cell :      184.86
      direct lattice vectors                 reciprocal lattice vectors
     3.858100176  0.000000000  0.000000000     0.259194929  0.000000000  0.000000000
     0.000000000  4.526575088  0.000000000     0.000000000  0.220917577  0.000000000
     0.000000000  0.000000000 10.585176468     0.000000000  0.000000000  0.094471736

  length of vectors
     3.858100176  4.526575088 10.585176468     0.259194929  0.220917577  0.094471736


 
 k-points in units of 2pi/SCALE and weight: KPOINTS created by Atomic Simulation Env
   0.00000000  0.00000000  0.00000000       0.014
   0.04319915  0.00000000  0.00000000       0.028
   0.08639831  0.00000000  0.00000000       0.028
   0.12959746  0.00000000  0.00000000       0.014
   0.00000000  0.03681960  0.00000000       0.028
   0.04319915  0.03681960  0.00000000       0.028
   0.04319915 -0.03681960  0.00000000       0.028
   0.08639831  0.03681960  0.00000000       0.028
   0.08639831 -0.03681960  0.00000000       0.028
   0.12959746  0.03681960  0.00000000       0.028
   0.00000000  0.07363919  0.00000000       0.028
   0.04319915  0.07363919  0.00000000       0.028
   0.04319915 -0.07363919  0.00000000       0.028
   0.08639831  0.07363919  0.00000000       0.028
   0.08639831 -0.07363919  0.00000000       0.028
   0.12959746  0.07363919  0.00000000       0.028
   0.00000000  0.11045879  0.00000000       0.014
   0.04319915  0.11045879  0.00000000       0.028
   0.08639831  0.11045879  0.00000000       0.028
   0.12959746  0.11045879  0.00000000       0.014
   0.00000000  0.00000000  0.04723587       0.014
   0.04319915  0.00000000  0.04723587       0.028
   0.08639831  0.00000000  0.04723587       0.028
   0.12959746  0.00000000  0.04723587       0.014
   0.00000000  0.03681960  0.04723587       0.028
   0.04319915  0.03681960  0.04723587       0.028
   0.04319915 -0.03681960  0.04723587       0.028
   0.08639831  0.03681960  0.04723587       0.028
   0.08639831 -0.03681960  0.04723587       0.028
   0.12959746  0.03681960  0.04723587       0.028
   0.00000000  0.07363919  0.04723587       0.028
   0.04319915  0.07363919  0.04723587       0.028
   0.04319915 -0.07363919  0.04723587       0.028
   0.08639831  0.07363919  0.04723587       0.028
   0.08639831 -0.07363919  0.04723587       0.028
   0.12959746  0.07363919  0.04723587       0.028
   0.00000000  0.11045879  0.04723587       0.014
   0.04319915  0.11045879  0.04723587       0.028
   0.08639831  0.11045879  0.04723587       0.028
   0.12959746  0.11045879  0.04723587       0.014
 
 k-points in reciprocal lattice and weights: KPOINTS created by Atomic Simulation Env
   0.00000000  0.00000000  0.00000000       0.014
   0.16666667  0.00000000  0.00000000       0.028
   0.33333333  0.00000000  0.00000000       0.028
   0.50000000  0.00000000  0.00000000       0.014
   0.00000000  0.16666667  0.00000000       0.028
   0.16666667  0.16666667  0.00000000       0.028
   0.16666667 -0.16666667  0.00000000       0.028
   0.33333333  0.16666667  0.00000000       0.028
   0.33333333 -0.16666667  0.00000000       0.028
   0.50000000  0.16666667  0.00000000       0.028
   0.00000000  0.33333333  0.00000000       0.028
   0.16666667  0.33333333  0.00000000       0.028
   0.16666667 -0.33333333  0.00000000       0.028
   0.33333333  0.33333333  0.00000000       0.028
   0.33333333 -0.33333333  0.00000000       0.028
   0.50000000  0.33333333  0.00000000       0.028
   0.00000000  0.50000000  0.00000000       0.014
   0.16666667  0.50000000  0.00000000       0.028
   0.33333333  0.50000000  0.00000000       0.028
   0.50000000  0.50000000  0.00000000       0.014
   0.00000000  0.00000000  0.50000000       0.014
   0.16666667  0.00000000  0.50000000       0.028
   0.33333333  0.00000000  0.50000000       0.028
   0.50000000  0.00000000  0.50000000       0.014
   0.00000000  0.16666667  0.50000000       0.028
   0.16666667  0.16666667  0.50000000       0.028
   0.16666667 -0.16666667  0.50000000       0.028
   0.33333333  0.16666667  0.50000000       0.028
   0.33333333 -0.16666667  0.50000000       0.028
   0.50000000  0.16666667  0.50000000       0.028
   0.00000000  0.33333333  0.50000000       0.028
   0.16666667  0.33333333  0.50000000       0.028
   0.16666667 -0.33333333  0.50000000       0.028
   0.33333333  0.33333333  0.50000000       0.028
   0.33333333 -0.33333333  0.50000000       0.028
   0.50000000  0.33333333  0.50000000       0.028
   0.00000000  0.50000000  0.50000000       0.014
   0.16666667  0.50000000  0.50000000       0.028
   0.33333333  0.50000000  0.50000000       0.028
   0.50000000  0.50000000  0.50000000       0.014
 
 position of ions in fractional coordinates (direct lattice) 
   0.00362290  0.40905120  0.11629323
   0.50362295  0.90905122  0.38370666
   0.74999953  0.88080355  0.88370670
   0.24999891  0.38080359  0.61629330
   0.00362297  0.28479628  0.35452175
   0.50362285  0.78479638  0.14547826
   0.74999912  0.00505836  0.64547820
   0.24999942  0.50505845  0.85452174
 
 position of ions in cartesian coordinates  (Angst):
   0.01397750  1.85160095  1.23098441
   1.94302777  4.11488861  4.06160274
   2.89357331  3.98702340  9.35419135
   0.96452085  1.72373604  6.52357335
   0.01397778  1.28915176  3.75267533
   1.94302740  3.55243976  1.53991301
   2.89357173  0.02289706  6.83250071
   0.96452282  2.28618498  9.04526339
 


--------------------------------------------------------------------------------------------------------


 k-point   1 :   0.0000 0.0000 0.0000  plane waves:    2825
 k-point   2 :   0.1667 0.0000 0.0000  plane waves:    2856
 k-point   3 :   0.3333 0.0000 0.0000  plane waves:    2864
 k-point   4 :   0.5000 0.0000 0.0000  plane waves:    2880
 k-point   5 :   0.0000 0.1667 0.0000  plane waves:    2850
 k-point   6 :   0.1667 0.1667 0.0000  plane waves:    2853
 k-point   7 :   0.1667-0.1667 0.0000  plane waves:    2853
 k-point   8 :   0.3333 0.1667 0.0000  plane waves:    2873
 k-point   9 :   0.3333-0.1667 0.0000  plane waves:    2873
 k-point  10 :   0.5000 0.1667 0.0000  plane waves:    2866
 k-point  11 :   0.0000 0.3333 0.0000  plane waves:    2864
 k-point  12 :   0.1667 0.3333 0.0000  plane waves:    2871
 k-point  13 :   0.1667-0.3333 0.0000  plane waves:    2871
 k-point  14 :   0.3333 0.3333 0.0000  plane waves:    2883
 k-point  15 :   0.3333-0.3333 0.0000  plane waves:    2883
 k-point  16 :   0.5000 0.3333 0.0000  plane waves:    2880
 k-point  17 :   0.0000 0.5000 0.0000  plane waves:    2874
 k-point  18 :   0.1667 0.5000 0.0000  plane waves:    2880
 k-point  19 :   0.3333 0.5000 0.0000  plane waves:    2888
 k-point  20 :   0.5000 0.5000 0.0000  plane waves:    2896
 k-point  21 :   0.0000 0.0000 0.5000  plane waves:    2828
 k-point  22 :   0.1667 0.0000 0.5000  plane waves:    2838
 k-point  23 :   0.3333 0.0000 0.5000  plane waves:    2868
 k-point  24 :   0.5000 0.0000 0.5000  plane waves:    2852
 k-point  25 :   0.0000 0.1667 0.5000  plane waves:    2846
 k-point  26 :   0.1667 0.1667 0.5000  plane waves:    2868
 k-point  27 :   0.1667-0.1667 0.5000  plane waves:    2868
 k-point  28 :   0.3333 0.1667 0.5000  plane waves:    2866
 k-point  29 :   0.3333-0.1667 0.5000  plane waves:    2866
 k-point  30 :   0.5000 0.1667 0.5000  plane waves:    2884
 k-point  31 :   0.0000 0.3333 0.5000  plane waves:    2852
 k-point  32 :   0.1667 0.3333 0.5000  plane waves:    2862
 k-point  33 :   0.1667-0.3333 0.5000  plane waves:    2862
 k-point  34 :   0.3333 0.3333 0.5000  plane waves:    2874
 k-point  35 :   0.3333-0.3333 0.5000  plane waves:    2874
 k-point  36 :   0.5000 0.3333 0.5000  plane waves:    2892
 k-point  37 :   0.0000 0.5000 0.5000  plane waves:    2872
 k-point  38 :   0.1667 0.5000 0.5000  plane waves:    2856
 k-point  39 :   0.3333 0.5000 0.5000  plane waves:    2876
 k-point  40 :   0.5000 0.5000 0.5000  plane waves:    2872

 maximum and minimum number of plane-waves per node :       592      553

 maximum number of plane-waves:      2896
 maximum index in each direction: 
   IXMAX=    5   IYMAX=    7   IZMAX=   16
   IXMIN=   -6   IYMIN=   -7   IZMIN=  -16


 parallel 3D FFT for wavefunctions:
    minimum data exchange during FFTs selected (reduces bandwidth)
 parallel 3D FFT for charge:
    minimum data exchange during FFTs selected (reduces bandwidth)


 total amount of memory used by VASP MPI-rank0    36587. kBytes
=======================================================================

   base      :      30000. kBytes
   nonl-proj :       5001. kBytes
   fftplans  :        306. kBytes
   grid      :        466. kBytes
   one-center:         16. kBytes
   wavefun   :        798. kBytes
 
     INWAV:  cpu time      0.0000: real time      0.0001
 Broyden mixing: mesh for mixing (old mesh)
   NGX = 11   NGY = 15   NGZ = 33
  (NGX  = 36   NGY  = 48   NGZ  =100)
  gives a total of   5445 points

 initial charge density was supplied:
 charge density of overlapping atoms calculated
 number of electron      40.0000000 magnetization 
 keeping initial charge density in first step


--------------------------------------------------------------------------------------------------------


 Maximum index for augmentation-charges           425 (set IRDMAX)


--------------------------------------------------------------------------------------------------------


 First call to EWALD:  gamma=   0.311
 Maximum number of real-space cells 4x 3x 2
 Maximum number of reciprocal cells 2x 2x 5

    FEWALD:  cpu time      0.0010: real time      0.0010


--------------------------------------- Ionic step        1  -------------------------------------------




--------------------------------------- Iteration      1(   1)  ---------------------------------------


    POTLOK:  cpu time      0.0087: real time      0.0088
    SETDIJ:  cpu time      0.2176: real time      0.2181
     EDDAV:  cpu time      0.3382: real time      0.3398
       DOS:  cpu time      0.0011: real time      0.0011
    --------------------------------------------
      LOOP:  cpu time      0.5656: real time      0.5677

 eigenvalue-minimisations  :  2560
 total energy-change (2. order) : 0.1327084E+03  (-0.1300440E+04)
 number of electron      40.0000000 magnetization 
 augmentation part       40.0000000 magnetization 

 Free energy of the ion-electron system (eV)
  ---------------------------------------------------
  alpha Z        PSCENC =        91.66130333
  Ewald energy   TEWEN  =     -1442.13543927
  -Hartree energ DENC   =      -121.59477533
  -exchange      EXHF   =         0.00000000
  -V(xc)+E(xc)   XCENC  =       -32.67365038
  PAW double counting   =      1193.78262552    -1080.73714043
  entropy T*S    EENTRO =        -0.00405913
  eigenvalues    EBANDS =        75.92488307
  atomic energy  EATOM  =      1448.48460880
  Solvation  Ediel_sol  =         0.00000000
  ---------------------------------------------------
  free energy    TOTEN  =       132.70835618 eV

  energy without entropy =      132.71241531  energy(sigma->0) =      132.71038574


--------------------------------------------------------------------------------------------------------




--------------------------------------- Iteration      1(   2)  ---------------------------------------


     EDDAV:  cpu time      0.4543: real time      0.4569
       DOS:  cpu time      0.0014: real time      0.0014
    --------------------------------------------
      LOOP:  cpu time      0.4556: real time      0.4583

 eigenvalue-minimisations  :  3760
 total energy-change (2. order) :-0.1576258E+03  (-0.1531287E+03)
 number of electron      40.0000000 magnetization 
 augmentation part       40.0000000 magnetization 

 Free energy of the ion-electron system (eV)
  ---------------------------------------------------
  alpha Z        PSCENC =        91.66130333
  Ewald energy   TEWEN  =     -1442.13543927
  -Hartree energ DENC   =      -121.59477533
  -exchange      EXHF   =         0.00000000
  -V(xc)+E(xc)   XCENC  =       -32.67365038
  PAW double counting   =      1193.78262552    -1080.73714043
  entropy T*S    EENTRO =        -0.00000000
  eigenvalues    EBANDS =       -81.70501805
  atomic energy  EATOM  =      1448.48460880
  Solvation  Ediel_sol  =         0.00000000
  ---------------------------------------------------
  free energy    TOTEN  =       -24.91748582 eV

  energy without entropy =      -24.91748582  energy(sigma->0) =      -24.91748582


--------------------------------------------------------------------------------------------------------




--------------------------------------- Iteration      1(   3)  ---------------------------------------


     EDDAV:  cpu time      0.3683: real time      0.3703
       DOS:  cpu time      0.0006: real time      0.0006
    --------------------------------------------
      LOOP:  cpu time      0.3689: real time      0.3709

 eigenvalue-minimisations  :  3184
 total energy-change (2. order) :-0.8472524E+01  (-0.8457307E+01)
 number of electron      40.0000000 magnetization 
 augmentation part       40.0000000 magnetization 

 Free energy of the ion-electron system (eV)
  ---------------------------------------------------
  alpha Z        PSCENC =        91.66130333
  Ewald energy   TEWEN  =     -1442.13543927
  -Hartree energ DENC   =      -121.59477533
  -exchange      EXHF   =         0.00000000
  -V(xc)+E(xc)   XCENC  =       -32.67365038
  PAW double counting   =      1193.78262552    -1080.73714043
  entropy T*S    EENTRO =        -0.00000000
  eigenvalues    EBANDS =       -90.17754243
  atomic energy  EATOM  =      1448.48460880
  Solvation  Ediel_sol  =         0.00000000
  ---------------------------------------------------
  free energy    TOTEN  =       -33.39001019 eV

  energy without entropy =      -33.39001019  energy(sigma->0) =      -33.39001019


--------------------------------------------------------------------------------------------------------




--------------------------------------- Iteration      1(   4)  ---------------------------------------


     EDDAV:  cpu time      0.4882: real time      0.4905
       DOS:  cpu time      0.0006: real time      0.0006
    --------------------------------------------
      LOOP:  cpu time      0.4888: real time      0.4911

 eigenvalue-minimisations  :  3344
 total energy-change (2. order) :-0.5523218E-01  (-0.5522085E-01)
 number of electron      40.0000000 magnetization 
 augmentation part       40.0000000 magnetization 

 Free energy of the ion-electron system (eV)
  ---------------------------------------------------
  alpha Z        PSCENC =        91.66130333
  Ewald energy   TEWEN  =     -1442.13543927
  -Hartree energ DENC   =      -121.59477533
  -exchange      EXHF   =         0.00000000
  -V(xc)+E(xc)   XCENC  =       -32.67365038
  PAW double counting   =      1193.78262552    -1080.73714043
  entropy T*S    EENTRO =        -0.00000000
  eigenvalues    EBANDS =       -90.23277461
  atomic energy  EATOM  =      1448.48460880
  Solvation  Ediel_sol  =         0.00000000
  ---------------------------------------------------
  free energy    TOTEN  =       -33.44524238 eV

  energy without entropy =      -33.44524238  energy(sigma->0) =      -33.44524238


--------------------------------------------------------------------------------------------------------




--------------------------------------- Iteration      1(   5)  ---------------------------------------


     EDDAV:  cpu time      0.3893: real time      0.3912
       DOS:  cpu time      0.0005: real time      0.0005
    CHARGE:  cpu time      0.0053: real time      0.0053
    MIXING:  cpu time      0.0004: real time      0.0004
    --------------------------------------------
      LOOP:  cpu time      0.3955: real time      0.3974

 eigenvalue-minimisations  :  3136
 total energy-change (2. order) :-0.3422423E-03  (-0.3421974E-03)
 number of electron      40.0000037 magnetization 
 augmentation part       -7.4538316 magnetization 

 Broyden mixing:
  rms(total) = 0.68834E+00    rms(broyden)= 0.68833E+00
  rms(prec ) = 0.76977E+00
  weight for this iteration     100.00

 Free energy of the ion-electron system (eV)
  ---------------------------------------------------
  alpha Z        PSCENC =        91.66130333
  Ewald energy   TEWEN  =     -1442.13543927
  -Hartree energ DENC   =      -121.59477533
  -exchange      EXHF   =         0.00000000
  -V(xc)+E(xc)   XCENC  =       -32.67365038
  PAW double counting   =      1193.78262552    -1080.73714043
  entropy T*S    EENTRO =        -0.00000000
  eigenvalues    EBANDS =       -90.23311686
  atomic energy  EATOM  =      1448.48460880
  Solvation  Ediel_sol  =         0.00000000
  ---------------------------------------------------
  free energy    TOTEN  =       -33.44558462 eV

  energy without entropy =      -33.44558462  energy(sigma->0) =      -33.44558462


--------------------------------------------------------------------------------------------------------




--------------------------------------- Iteration      1(   6)  ---------------------------------------


    POTLOK:  cpu time      0.0074: real time      0.0075
    SETDIJ:  cpu time      0.2181: real time      0.2184
     EDDAV:  cpu time      0.3662: real time      0.3679
       DOS:  cpu time      0.0009: real time      0.0009
    CHARGE:  cpu time      0.0051: real time      0.0051
    MIXING:  cpu time      0.0005: real time      0.0005
    --------------------------------------------
      LOOP:  cpu time      0.5981: real time      0.6002

 eigenvalue-minimisations  :  3152
 total energy-change (2. order) : 0.3687731E+00  (-0.7066505E-01)
 number of electron      40.0000037 magnetization 
 augmentation part       -7.3982689 magnetization 

 Broyden mixing:
  rms(total) = 0.43271E+00    rms(broyden)= 0.43271E+00
  rms(prec ) = 0.45409E+00
  weight for this iteration     100.00

 eigenvalues of (default mixing * dielectric matrix)
  average eigenvalue GAMMA=   2.2902
  2.2902

 Free energy of the ion-electron system (eV)
  ---------------------------------------------------
  alpha Z        PSCENC =        91.66130333
  Ewald energy   TEWEN  =     -1442.13543927
  -Hartree energ DENC   =      -127.35954548
  -exchange      EXHF   =         0.00000000
  -V(xc)+E(xc)   XCENC  =       -32.09043887
  PAW double counting   =      1478.97905643    -1366.27470099
  entropy T*S    EENTRO =        -0.00000044
  eigenvalues    EBANDS =       -84.34165502
  atomic energy  EATOM  =      1448.48460880
  Solvation  Ediel_sol  =         0.00000000
  ---------------------------------------------------
  free energy    TOTEN  =       -33.07681151 eV

  energy without entropy =      -33.07681107  energy(sigma->0) =      -33.07681129


--------------------------------------------------------------------------------------------------------




--------------------------------------- Iteration      1(   7)  ---------------------------------------


    POTLOK:  cpu time      0.0072: real time      0.0074
    SETDIJ:  cpu time      0.2177: real time      0.2183
     EDDAV:  cpu time      0.3839: real time      0.3857
       DOS:  cpu time      0.0008: real time      0.0008
    CHARGE:  cpu time      0.0051: real time      0.0053
    MIXING:  cpu time      0.0004: real time      0.0004
    --------------------------------------------
      LOOP:  cpu time      0.6153: real time      0.6180

 eigenvalue-minimisations  :  3376
 total energy-change (2. order) : 0.1375671E-01  (-0.2441548E-01)
 number of electron      40.0000036 magnetization 
 augmentation part       -7.3784690 magnetization 

 Broyden mixing:
  rms(total) = 0.12587E+00    rms(broyden)= 0.12587E+00
  rms(prec ) = 0.13489E+00
  weight for this iteration     100.00

 eigenvalues of (default mixing * dielectric matrix)
  average eigenvalue GAMMA=   1.8384
  1.2457  2.4311

 Free energy of the ion-electron system (eV)
  ---------------------------------------------------
  alpha Z        PSCENC =        91.66130333
  Ewald energy   TEWEN  =     -1442.13543927
  -Hartree energ DENC   =      -130.38089691
  -exchange      EXHF   =         0.00000000
  -V(xc)+E(xc)   XCENC  =       -31.60017572
  PAW double counting   =      1857.54355295    -1745.12438389
  entropy T*S    EENTRO =        -0.00001100
  eigenvalues    EBANDS =       -81.51161309
  atomic energy  EATOM  =      1448.48460880
  Solvation  Ediel_sol  =         0.00000000
  ---------------------------------------------------
  free energy    TOTEN  =       -33.06305480 eV

  energy without entropy =      -33.06304379  energy(sigma->0) =      -33.06304929


--------------------------------------------------------------------------------------------------------




--------------------------------------- Iteration      1(   8)  ---------------------------------------


    POTLOK:  cpu time      0.0074: real time      0.0075
    SETDIJ:  cpu time      0.2276: real time      0.2281
     EDDAV:  cpu time      0.3682: real time      0.3704
       DOS:  cpu time      0.0009: real time      0.0009
    CHARGE:  cpu time      0.0052: real time      0.0052
    MIXING:  cpu time      0.0005: real time      0.0005
    --------------------------------------------
      LOOP:  cpu time      0.6098: real time      0.6126

 eigenvalue-minimisations  :  3072
 total energy-change (2. order) : 0.2613026E-02  (-0.2843275E-02)
 number of electron      40.0000037 magnetization 
 augmentation part       -7.3887665 magnetization 

 Broyden mixing:
  rms(total) = 0.16920E-01    rms(broyden)= 0.16920E-01
  rms(prec ) = 0.21041E-01
  weight for this iteration     100.00

 eigenvalues of (default mixing * dielectric matrix)
  average eigenvalue GAMMA=   1.7182
  2.4881  1.3332  1.3332

 Free energy of the ion-electron system (eV)
  ---------------------------------------------------
  alpha Z        PSCENC =        91.66130333
  Ewald energy   TEWEN  =     -1442.13543927
  -Hartree energ DENC   =      -130.27846947
  -exchange      EXHF   =         0.00000000
  -V(xc)+E(xc)   XCENC  =       -31.49356903
  PAW double counting   =      1995.48699078    -1883.12494631
  entropy T*S    EENTRO =        -0.00000485
  eigenvalues    EBANDS =       -81.66091575
  atomic energy  EATOM  =      1448.48460880
  Solvation  Ediel_sol  =         0.00000000
  ---------------------------------------------------
  free energy    TOTEN  =       -33.06044177 eV

  energy without entropy =      -33.06043692  energy(sigma->0) =      -33.06043934


--------------------------------------------------------------------------------------------------------




--------------------------------------- Iteration      1(   9)  ---------------------------------------


    POTLOK:  cpu time      0.0073: real time      0.0075
    SETDIJ:  cpu time      0.2200: real time      0.2205
     EDDAV:  cpu time      0.3512: real time      0.3526
       DOS:  cpu time      0.0009: real time      0.0009
    CHARGE:  cpu time      0.0052: real time      0.0053
    MIXING:  cpu time      0.0004: real time      0.0004
    --------------------------------------------
      LOOP:  cpu time      0.5850: real time      0.5872

 eigenvalue-minimisations  :  3056
 total energy-change (2. order) :-0.2019545E-03  (-0.3508264E-03)
 number of electron      40.0000037 magnetization 
 augmentation part       -7.3865895 magnetization 

 Broyden mixing:
  rms(total) = 0.58953E-02    rms(broyden)= 0.58953E-02
  rms(prec ) = 0.68794E-02
  weight for this iteration     100.00

 eigenvalues of (default mixing * dielectric matrix)
  average eigenvalue GAMMA=   1.7014
  2.2159  2.2159  1.1868  1.1868

 Free energy of the ion-electron system (eV)
  ---------------------------------------------------
  alpha Z        PSCENC =        91.66130333
  Ewald energy   TEWEN  =     -1442.13543927
  -Hartree energ DENC   =      -130.63333573
  -exchange      EXHF   =         0.00000000
  -V(xc)+E(xc)   XCENC  =       -31.45940929
  PAW double counting   =      2004.81390846    -1892.46018116
  entropy T*S    EENTRO =        -0.00000532
  eigenvalues    EBANDS =       -81.33209353
  atomic energy  EATOM  =      1448.48460880
  Solvation  Ediel_sol  =         0.00000000
  ---------------------------------------------------
  free energy    TOTEN  =       -33.06064372 eV

  energy without entropy =      -33.06063841  energy(sigma->0) =      -33.06064107


--------------------------------------------------------------------------------------------------------




--------------------------------------- Iteration      1(  10)  ---------------------------------------


    POTLOK:  cpu time      0.0073: real time      0.0075
    SETDIJ:  cpu time      0.2175: real time      0.2180
     EDDAV:  cpu time      0.3788: real time      0.3807
       DOS:  cpu time      0.0009: real time      0.0009
    CHARGE:  cpu time      0.0051: real time      0.0051
    MIXING:  cpu time      0.0005: real time      0.0005
    --------------------------------------------
      LOOP:  cpu time      0.6101: real time      0.6127

 eigenvalue-minimisations  :  3280
 total energy-change (2. order) :-0.9123632E-04  (-0.2519664E-04)
 number of electron      40.0000037 magnetization 
 augmentation part       -7.3866157 magnetization 

 Broyden mixing:
  rms(total) = 0.22109E-02    rms(broyden)= 0.22109E-02
  rms(prec ) = 0.27585E-02
  weight for this iteration     100.00

 eigenvalues of (default mixing * dielectric matrix)
  average eigenvalue GAMMA=   1.7497
  2.5592  2.5592  1.1626  1.2338  1.2338

 Free energy of the ion-electron system (eV)
  ---------------------------------------------------
  alpha Z        PSCENC =        91.66130333
  Ewald energy   TEWEN  =     -1442.13543927
  -Hartree energ DENC   =      -130.66422652
  -exchange      EXHF   =         0.00000000
  -V(xc)+E(xc)   XCENC  =       -31.45493058
  PAW double counting   =      2000.71229472    -1888.35462134
  entropy T*S    EENTRO =        -0.00000480
  eigenvalues    EBANDS =       -81.30971930
  atomic energy  EATOM  =      1448.48460880
  Solvation  Ediel_sol  =         0.00000000
  ---------------------------------------------------
  free energy    TOTEN  =       -33.06073496 eV

  energy without entropy =      -33.06073016  energy(sigma->0) =      -33.06073256


--------------------------------------------------------------------------------------------------------




--------------------------------------- Iteration      1(  11)  ---------------------------------------


    POTLOK:  cpu time      0.0073: real time      0.0074
    SETDIJ:  cpu time      0.2156: real time      0.2160
     EDDAV:  cpu time      0.3431: real time      0.3449
       DOS:  cpu time      0.0007: real time      0.0007
    CHARGE:  cpu time      0.0053: real time      0.0053
    MIXING:  cpu time      0.0005: real time      0.0005
    --------------------------------------------
      LOOP:  cpu time      0.5724: real time      0.5748

 eigenvalue-minimisations  :  2960
 total energy-change (2. order) :-0.2844412E-04  (-0.3737236E-05)
 number of electron      40.0000037 magnetization 
 augmentation part       -7.3868110 magnetization 

 Broyden mixing:
  rms(total) = 0.10688E-02    rms(broyden)= 0.10688E-02
  rms(prec ) = 0.12579E-02
  weight for this iteration     100.00

 eigenvalues of (default mixing * dielectric matrix)
  average eigenvalue GAMMA=   1.7493
  2.4247  2.4247  2.3327  1.1918  1.1918  0.9300

 Free energy of the ion-electron system (eV)
  ---------------------------------------------------
  alpha Z        PSCENC =        91.66130333
  Ewald energy   TEWEN  =     -1442.13543927
  -Hartree energ DENC   =      -130.68807306
  -exchange      EXHF   =         0.00000000
  -V(xc)+E(xc)   XCENC  =       -31.44978692
  PAW double counting   =      2001.27943026    -1888.92138934
  entropy T*S    EENTRO =        -0.00000469
  eigenvalues    EBANDS =       -81.29141252
  atomic energy  EATOM  =      1448.48460880
  Solvation  Ediel_sol  =         0.00000000
  ---------------------------------------------------
  free energy    TOTEN  =       -33.06076340 eV

  energy without entropy =      -33.06075871  energy(sigma->0) =      -33.06076106


--------------------------------------------------------------------------------------------------------




--------------------------------------- Iteration      1(  12)  ---------------------------------------


    POTLOK:  cpu time      0.0072: real time      0.0074
    SETDIJ:  cpu time      0.2180: real time      0.2186
     EDDAV:  cpu time      0.4235: real time      0.4251
       DOS:  cpu time      0.0010: real time      0.0010
    CHARGE:  cpu time      0.0055: real time      0.0055
    MIXING:  cpu time      0.0005: real time      0.0005
    --------------------------------------------
      LOOP:  cpu time      0.6557: real time      0.6580

 eigenvalue-minimisations  :  3456
 total energy-change (2. order) :-0.1789337E-05  (-0.7417999E-06)
 number of electron      40.0000037 magnetization 
 augmentation part       -7.3867159 magnetization 

 Broyden mixing:
  rms(total) = 0.25822E-03    rms(broyden)= 0.25822E-03
  rms(prec ) = 0.32361E-03
  weight for this iteration     100.00

 eigenvalues of (default mixing * dielectric matrix)
  average eigenvalue GAMMA=   1.7086
  2.9176  2.4080  2.0165  1.3164  1.0282  1.1369  1.1369

 Free energy of the ion-electron system (eV)
  ---------------------------------------------------
  alpha Z        PSCENC =        91.66130333
  Ewald energy   TEWEN  =     -1442.13543927
  -Hartree energ DENC   =      -130.70459420
  -exchange      EXHF   =         0.00000000
  -V(xc)+E(xc)   XCENC  =       -31.44814294
  PAW double counting   =      2000.94921542    -1888.59116184
  entropy T*S    EENTRO =        -0.00000478
  eigenvalues    EBANDS =       -81.27654972
  atomic energy  EATOM  =      1448.48460880
  Solvation  Ediel_sol  =         0.00000000
  ---------------------------------------------------
  free energy    TOTEN  =       -33.06076519 eV

  energy without entropy =      -33.06076042  energy(sigma->0) =      -33.06076281


--------------------------------------------------------------------------------------------------------




--------------------------------------- Iteration      1(  13)  ---------------------------------------


    POTLOK:  cpu time      0.0073: real time      0.0074
    SETDIJ:  cpu time      0.2182: real time      0.2187
     EDDAV:  cpu time      0.2509: real time      0.2525
       DOS:  cpu time      0.0008: real time      0.0008
    --------------------------------------------
      LOOP:  cpu time      0.4772: real time      0.4794

 eigenvalue-minimisations  :  1632
 total energy-change (2. order) :-0.2162963E-06  (-0.1072653E-06)
 number of electron      40.0000037 magnetization 
 augmentation part       -7.3867159 magnetization 

 Free energy of the ion-electron system (eV)
  ---------------------------------------------------
  alpha Z        PSCENC =        91.66130333
  Ewald energy   TEWEN  =     -1442.13543927
  -Hartree energ DENC   =      -130.70707182
  -exchange      EXHF   =         0.00000000
  -V(xc)+E(xc)   XCENC  =       -31.44780479
  PAW double counting   =      2000.88834846    -1888.53014970
  entropy T*S    EENTRO =        -0.00000474
  eigenvalues    EBANDS =       -81.27455567
  atomic energy  EATOM  =      1448.48460880
  Solvation  Ediel_sol  =         0.00000000
  ---------------------------------------------------
  free energy    TOTEN  =       -33.06076541 eV

  energy without entropy =      -33.06076067  energy(sigma->0) =      -33.06076304


--------------------------------------------------------------------------------------------------------




 average (electrostatic) potential at core
  the test charge radii are     1.1631  1.0808
  (the norm of the test charge is              1.0000)
       1 -33.0134       2 -33.0134       3 -33.0134       4 -33.0134       5 -54.5965
       6 -54.5965       7 -54.5965       8 -54.5965
 
 
 
 E-fermi :   4.2966     XC(G=0):  -9.4865     alpha+bet : -9.1315

 Fermi energy:         4.2965765979

 k-point     1 :       0.0000    0.0000    0.0000
  band No.  band energies     occupation 
      1     -10.8349      2.00000
      2     -10.2493      2.00000
      3      -9.6193      2.00000
      4      -8.7642      2.00000
      5      -4.3809      2.00000
      6      -3.8582      2.00000
      7      -2.5339      2.00000
      8      -2.2942      2.00000
      9      -1.4184      2.00000
     10      -0.3135      2.00000
     11       0.4522      2.00000
     12       0.5403      2.00000
     13       0.6565      2.00000
     14       0.9619      2.00000
     15       1.2714      2.00000
     16       1.9102      2.00000
     17       1.9350      2.00000
     18       2.5872      2.00000
     19       3.2578      2.00000
     20       3.2680      2.00000
     21       4.7639      0.00000
     22       6.0122      0.00000
     23       6.1010      0.00000
     24       6.2226      0.00000
     25       6.6816      0.00000
     26       7.3373      0.00000
     27       7.4219      0.00000
     28       8.1400      0.00000
     29       8.3773      0.00000
     30       8.9561      0.00000
     31       9.0793      0.00000
     32       9.6914      0.00000

 k-point     2 :       0.1667    0.0000    0.0000
  band No.  band energies     occupation 
      1     -10.6405      2.00000
      2     -10.0760      2.00000
      3      -9.4887      2.00000
      4      -8.7279      2.00000
      5      -4.6903      2.00000
      6      -3.9907      2.00000
      7      -3.0836      2.00000
      8      -2.2408      2.00000
      9      -1.6995      2.00000
     10      -0.1188      2.00000
     11       0.0265      2.00000
     12       0.2630      2.00000
     13       0.9828      2.00000
     14       1.0216      2.00000
     15       1.4065      2.00000
     16       1.5539      2.00000
     17       2.0000      2.00000
     18       2.3751      2.00000
     19       3.3958      2.00000
     20       3.4398      2.00000
     21       4.7114      0.00000
     22       5.8790      0.00000
     23       6.1299      0.00000
     24       6.7345      0.00000
     25       6.7748      0.00000
     26       7.0151      0.00000
     27       7.1137      0.00000
     28       7.5849      0.00000
     29       8.1699      0.00000
     30       8.2677      0.00000
     31       8.7965      0.00000
     32       9.5037      0.00000

 k-point     3 :       0.3333    0.0000    0.0000
  band No.  band energies     occupation 
      1     -10.1069      2.00000
      2      -9.6193      2.00000
      3      -9.2524      2.00000
      4      -8.7814      2.00000
      5      -5.2773      2.00000
      6      -4.3041      2.00000
      7      -4.2297      2.00000
      8      -3.0422      2.00000
      9      -1.2998      2.00000
     10      -0.1579      2.00000
     11       0.2010      2.00000
     12       0.5483      2.00000
     13       1.0373      2.00000
     14       1.2385      2.00000
     15       1.5203      2.00000
     16       1.5895      2.00000
     17       2.0120      2.00000
     18       2.2758      2.00000
     19       3.2284      2.00000
     20       3.6389      2.00000
     21       4.6187      0.00000
     22       4.6985      0.00000
     23       5.0371      0.00000
     24       5.5894      0.00000
     25       5.9471      0.00000
     26       6.3523      0.00000
     27       6.4154      0.00000
     28       6.7862      0.00000
     29       7.4571      0.00000
     30       7.8692      0.00000
     31       9.2245      0.00000
     32      10.0069      0.00000

 k-point     4 :       0.5000    0.0000    0.0000
  band No.  band energies     occupation 
      1      -9.4521      2.00000
      2      -9.4521      2.00000
      3      -9.1105      2.00000
      4      -9.1105      2.00000
      5      -5.2531      2.00000
      6      -5.2531      2.00000
      7      -3.9540      2.00000
      8      -3.9540      2.00000
      9      -0.5173      2.00000
     10      -0.5173      2.00000
     11       0.7698      2.00000
     12       0.7698      2.00000
     13       1.1431      2.00000
     14       1.1431      2.00000
     15       1.4401      2.00000
     16       1.4401      2.00000
     17       2.2084      2.00000
     18       2.2084      2.00000
     19       3.3183      2.00000
     20       3.3183      2.00000
     21       4.5278      0.00000
     22       4.5278      0.00000
     23       4.9125      0.00000
     24       4.9125      0.00000
     25       5.5705      0.00000
     26       5.5705      0.00000
     27       6.0984      0.00000
     28       6.0984      0.00000
     29       6.9420      0.00000
     30       6.9420      0.00000
     31       9.8204      0.00000
     32       9.8204      0.00000

 k-point     5 :       0.0000    0.1667    0.0000
  band No.  band energies     occupation 
      1     -10.7228      2.00000
      2     -10.1406      2.00000
      3      -9.6296      2.00000
      4      -8.8358      2.00000
      5      -4.6792      2.00000
      6      -3.9554      2.00000
      7      -3.2224      2.00000
      8      -2.3094      2.00000
      9      -1.5917      2.00000
     10       0.1393      2.00000
     11       0.5608      2.00000
     12       0.6622      2.00000
     13       0.8763      2.00000
     14       1.3526      2.00000
     15       1.6509      2.00000
     16       1.9928      2.00000
     17       2.1336      2.00000
     18       2.1492      2.00000
     19       3.4969      2.00000
     20       3.7051      2.00000
     21       4.7215      0.00000
     22       5.5308      0.00000
     23       6.0825      0.00000
     24       6.1888      0.00000
     25       6.2619      0.00000
     26       6.9497      0.00000
     27       7.0615      0.00000
     28       8.0160      0.00000
     29       8.1709      0.00000
     30       8.3521      0.00000
     31       8.8933      0.00000
     32       9.7957      0.00000

 k-point     6 :       0.1667    0.1667    0.0000
  band No.  band energies     occupation 
      1     -10.5313      2.00000
      2      -9.9760      2.00000
      3      -9.5011      2.00000
      4      -8.7864      2.00000
      5      -4.8779      2.00000
      6      -3.9648      2.00000
      7      -3.4529      2.00000
      8      -2.5284      2.00000
      9      -1.4785      2.00000
     10      -0.5460      2.00000
     11      -0.0978      2.00000
     12       0.5789      2.00000
     13       0.8892      2.00000
     14       1.2216      2.00000
     15       1.2825      2.00000
     16       2.0048      2.00000
     17       2.2447      2.00000
     18       2.3777      2.00000
     19       3.3440      2.00000
     20       3.9616      2.00000
     21       4.5733      0.00000
     22       5.4386      0.00000
     23       5.8735      0.00000
     24       5.9874      0.00000
     25       6.8904      0.00000
     26       7.0578      0.00000
     27       7.3727      0.00000
     28       7.5572      0.00000
     29       8.1615      0.00000
     30       8.4267      0.00000
     31       8.7682      0.00000
     32       9.6517      0.00000

 k-point     7 :       0.1667   -0.1667    0.0000
  band No.  band energies     occupation 
      1     -10.5353      2.00000
      2      -9.9715      2.00000
      3      -9.4992      2.00000
      4      -8.7952      2.00000
      5      -4.7302      2.00000
      6      -4.1250      2.00000
      7      -3.4047      2.00000
      8      -2.5140      2.00000
      9      -1.6465      2.00000
     10      -0.6232      2.00000
     11      -0.1864      2.00000
     12       0.9101      2.00000
     13       1.0422      2.00000
     14       1.0693      2.00000
     15       1.5756      2.00000
     16       1.8533      2.00000
     17       2.2060      2.00000
     18       2.2672      2.00000
     19       3.4706      2.00000
     20       3.5701      2.00000
     21       4.8508      0.00000
     22       5.5072      0.00000
     23       5.9445      0.00000
     24       6.1379      0.00000
     25       6.6512      0.00000
     26       7.0263      0.00000
     27       7.5603      0.00000
     28       7.6460      0.00000
     29       7.6815      0.00000
     30       8.3906      0.00000
     31       8.6995      0.00000
     32       9.5570      0.00000

 k-point     8 :       0.3333    0.1667    0.0000
  band No.  band energies     occupation 
      1     -10.0125      2.00000
      2      -9.5483      2.00000
      3      -9.2664      2.00000
      4      -8.7903      2.00000
      5      -5.2670      2.00000
      6      -4.3036      2.00000
      7      -4.0899      2.00000
      8      -3.1831      2.00000
      9      -1.1322      2.00000
     10      -0.9204      2.00000
     11      -0.2670      2.00000
     12       0.3367      2.00000
     13       0.7038      2.00000
     14       1.0926      2.00000
     15       1.1815      2.00000
     16       1.5969      2.00000
     17       2.0735      2.00000
     18       2.2628      2.00000
     19       3.0360      2.00000
     20       3.9842      2.00000
     21       4.4862      0.00000
     22       5.0179      0.00000
     23       5.2895      0.00000
     24       5.7387      0.00000
     25       6.2696      0.00000
     26       6.8640      0.00000
     27       7.1355      0.00000
     28       7.6332      0.00000
     29       7.8913      0.00000
     30       8.2881      0.00000
     31       9.3223      0.00000
     32       9.5669      0.00000

 k-point     9 :       0.3333   -0.1667    0.0000
  band No.  band energies     occupation 
      1     -10.0243      2.00000
      2      -9.5331      2.00000
      3      -9.2486      2.00000
      4      -8.8230      2.00000
      5      -5.1020      2.00000
      6      -4.3095      2.00000
      7      -4.2745      2.00000
      8      -3.1643      2.00000
      9      -1.2168      2.00000
     10      -0.8549      2.00000
     11      -0.4801      2.00000
     12       0.4702      2.00000
     13       0.9974      2.00000
     14       1.0581      2.00000
     15       1.3649      2.00000
     16       1.5617      2.00000
     17       1.6742      2.00000
     18       2.3478      2.00000
     19       3.2176      2.00000
     20       3.5166      2.00000
     21       4.7912      0.00000
     22       5.2805      0.00000
     23       5.4405      0.00000
     24       5.8362      0.00000
     25       6.0480      0.00000
     26       6.5835      0.00000
     27       6.9313      0.00000
     28       7.7421      0.00000
     29       7.7983      0.00000
     30       8.7011      0.00000
     31       8.8630      0.00000
     32       9.6052      0.00000

 k-point    10 :       0.5000    0.1667    0.0000
  band No.  band energies     occupation 
      1      -9.4248      2.00000
      2      -9.3915      2.00000
      3      -9.1020      2.00000
      4      -9.0573      2.00000
      5      -5.1931      2.00000
      6      -5.1016      2.00000
      7      -3.9819      2.00000
      8      -3.8731      2.00000
      9      -0.6249      2.00000
     10      -0.5242      2.00000
     11      -0.1151      2.00000
     12      -0.0216      2.00000
     13       0.5221      2.00000
     14       0.6688      2.00000
     15       1.1846      2.00000
     16       1.4601      2.00000
     17       1.8100      2.00000
     18       1.9615      2.00000
     19       3.1568      2.00000
     20       3.7607      2.00000
     21       4.6650      0.00000
     22       4.8830      0.00000
     23       5.5155      0.00000
     24       6.0460      0.00000
     25       6.1046      0.00000
     26       6.2954      0.00000
     27       6.4113      0.00000
     28       6.7397      0.00000
     29       7.7604      0.00000
     30       8.0241      0.00000
     31       9.2196      0.00000
     32       9.6564      0.00000

 k-point    11 :       0.0000    0.3333    0.0000
  band No.  band energies     occupation 
      1     -10.4180      2.00000
      2      -9.8424      2.00000
      3      -9.7337      2.00000
      4      -9.0691      2.00000
      5      -5.0399      2.00000
      6      -4.2199      2.00000
      7      -4.0116      2.00000
      8      -3.0063      2.00000
      9      -1.2698      2.00000
     10       0.2131      2.00000
     11       0.9716      2.00000
     12       1.1135      2.00000
     13       1.3117      2.00000
     14       1.6516      2.00000
     15       1.7611      2.00000
     16       2.2995      2.00000
     17       2.3955      2.00000
     18       3.0462      2.00000
     19       3.6800      2.00000
     20       3.8980      2.00000
     21       4.4170      0.00066
     22       5.1176      0.00000
     23       5.4091      0.00000
     24       5.7234      0.00000
     25       6.1054      0.00000
     26       6.4619      0.00000
     27       6.6496      0.00000
     28       7.2959      0.00000
     29       7.4692      0.00000
     30       7.4889      0.00000
     31       9.2634      0.00000
     32       9.9161      0.00000

 k-point    12 :       0.1667    0.3333    0.0000
  band No.  band energies     occupation 
      1     -10.2395      2.00000
      2      -9.7006      2.00000
      3      -9.6037      2.00000
      4      -8.9882      2.00000
      5      -5.0264      2.00000
      6      -4.1929      2.00000
      7      -3.9594      2.00000
      8      -3.0943      2.00000
      9      -1.1257      2.00000
     10      -0.4753      2.00000
     11      -0.0846      2.00000
     12       0.2699      2.00000
     13       0.3718      2.00000
     14       1.0886      2.00000
     15       1.8788      2.00000
     16       2.1193      2.00000
     17       2.7637      2.00000
     18       2.7939      2.00000
     19       3.2054      2.00000
     20       3.9505      2.00000
     21       4.9373      0.00000
     22       5.2642      0.00000
     23       5.6958      0.00000
     24       6.0721      0.00000
     25       6.5244      0.00000
     26       6.9770      0.00000
     27       7.2530      0.00000
     28       7.4540      0.00000
     29       7.8096      0.00000
     30       8.4095      0.00000
     31       9.0320      0.00000
     32       9.5442      0.00000

 k-point    13 :       0.1667   -0.3333    0.0000
  band No.  band energies     occupation 
      1     -10.2473      2.00000
      2      -9.6906      2.00000
      3      -9.5969      2.00000
      4      -9.0040      2.00000
      5      -4.9148      2.00000
      6      -4.1653      2.00000
      7      -4.0635      2.00000
      8      -3.1453      2.00000
      9      -1.1451      2.00000
     10      -0.6902      2.00000
     11      -0.2243      2.00000
     12       0.4874      2.00000
     13       0.8703      2.00000
     14       1.0242      2.00000
     15       1.8056      2.00000
     16       2.0496      2.00000
     17       2.2320      2.00000
     18       2.9203      2.00000
     19       3.5943      2.00000
     20       3.7994      2.00000
     21       4.9651      0.00000
     22       5.6563      0.00000
     23       5.8191      0.00000
     24       6.0411      0.00000
     25       6.5088      0.00000
     26       6.6510      0.00000
     27       7.0160      0.00000
     28       7.6443      0.00000
     29       7.7550      0.00000
     30       8.4748      0.00000
     31       8.7665      0.00000
     32       9.4650      0.00000

 k-point    14 :       0.3333    0.3333    0.0000
  band No.  band energies     occupation 
      1      -9.7735      2.00000
      2      -9.3532      2.00000
      3      -9.3367      2.00000
      4      -8.8757      2.00000
      5      -5.0777      2.00000
      6      -4.3595      2.00000
      7      -3.9127      2.00000
      8      -3.5366      2.00000
      9      -1.3982      2.00000
     10      -0.9671      2.00000
     11      -0.7188      2.00000
     12      -0.3661      2.00000
     13       0.2746      2.00000
     14       0.2831      2.00000
     15       0.5704      2.00000
     16       1.3508      2.00000
     17       1.7481      2.00000
     18       2.1199      2.00000
     19       2.9681      2.00000
     20       4.1762      1.99934
     21       4.6703      0.00000
     22       5.9081      0.00000
     23       6.3726      0.00000
     24       6.5598      0.00000
     25       7.1542      0.00000
     26       7.5032      0.00000
     27       8.2287      0.00000
     28       8.2330      0.00000
     29       8.6434      0.00000
     30       8.8537      0.00000
     31       9.4569      0.00000
     32       9.5950      0.00000

 k-point    15 :       0.3333   -0.3333    0.0000
  band No.  band energies     occupation 
      1      -9.7986      2.00000
      2      -9.3195      2.00000
      3      -9.3020      2.00000
      4      -8.9312      2.00000
      5      -4.8013      2.00000
      6      -4.4251      2.00000
      7      -4.2166      2.00000
      8      -3.4797      2.00000
      9      -1.4356      2.00000
     10      -0.9092      2.00000
     11      -0.8386      2.00000
     12      -0.3293      2.00000
     13       0.2080      2.00000
     14       0.6242      2.00000
     15       0.6970      2.00000
     16       1.2874      2.00000
     17       1.2961      2.00000
     18       2.4210      2.00000
     19       2.9902      2.00000
     20       3.6847      2.00000
     21       5.2500      0.00000
     22       6.0498      0.00000
     23       6.4071      0.00000
     24       6.5043      0.00000
     25       7.1658      0.00000
     26       7.3921      0.00000
     27       7.8200      0.00000
     28       8.3998      0.00000
     29       8.6265      0.00000
     30       8.9627      0.00000
     31       9.2602      0.00000
     32       9.6599      0.00000

 k-point    16 :       0.5000    0.3333    0.0000
  band No.  band energies     occupation 
      1      -9.3483      2.00000
      2      -9.2787      2.00000
      3      -9.0644      2.00000
      4      -8.9734      2.00000
      5      -5.0019      2.00000
      6      -4.7660      2.00000
      7      -4.0570      2.00000
      8      -3.7813      2.00000
      9      -1.0810      2.00000
     10      -1.0614      2.00000
     11      -0.5337      2.00000
     12      -0.4877      2.00000
     13      -0.3110      2.00000
     14      -0.2445      2.00000
     15       0.6848      2.00000
     16       0.9111      2.00000
     17       1.0737      2.00000
     18       1.4466      2.00000
     19       2.8387      2.00000
     20       3.9784      2.00000
     21       5.0867      0.00000
     22       5.9105      0.00000
     23       6.8091      0.00000
     24       7.1716      0.00000
     25       7.3729      0.00000
     26       7.4628      0.00000
     27       8.3633      0.00000
     28       8.4816      0.00000
     29       8.5014      0.00000
     30       8.9618      0.00000
     31       9.1541      0.00000
     32       9.3104      0.00000

 k-point    17 :       0.0000    0.5000    0.0000
  band No.  band energies     occupation 
      1     -10.0281      2.00000
      2     -10.0281      2.00000
      3      -9.4414      2.00000
      4      -9.4414      2.00000
      5      -4.9087      2.00000
      6      -4.9087      2.00000
      7      -3.6946      2.00000
      8      -3.6946      2.00000
      9      -0.5711      2.00000
     10      -0.5711      2.00000
     11       1.4218      2.00000
     12       1.4218      2.00000
     13       1.5068      2.00000
     14       1.5068      2.00000
     15       2.3293      2.00000
     16       2.3293      2.00000
     17       3.2108      2.00000
     18       3.2108      2.00000
     19       3.3141      2.00000
     20       3.3141      2.00000
     21       4.8179      0.00000
     22       4.8179      0.00000
     23       5.4359      0.00000
     24       5.4359      0.00000
     25       6.0238      0.00000
     26       6.0238      0.00000
     27       6.8134      0.00000
     28       6.8134      0.00000
     29       6.9265      0.00000
     30       6.9265      0.00000
     31       9.7061      0.00000
     32       9.7061      0.00000

 k-point    18 :       0.1667    0.5000    0.0000
  band No.  band energies     occupation 
      1      -9.8811      2.00000
      2      -9.8712      2.00000
      3      -9.3365      2.00000
      4      -9.3209      2.00000
      5      -4.8099      2.00000
      6      -4.7729      2.00000
      7      -3.7016      2.00000
      8      -3.6878      2.00000
      9      -0.6501      2.00000
     10      -0.4404      2.00000
     11      -0.0718      2.00000
     12      -0.0063      2.00000
     13       0.3466      2.00000
     14       0.7615      2.00000
     15       1.8385      2.00000
     16       2.1530      2.00000
     17       2.6316      2.00000
     18       3.2058      2.00000
     19       3.3521      2.00000
     20       3.8885      2.00000
     21       5.1757      0.00000
     22       5.3108      0.00000
     23       5.9920      0.00000
     24       6.0461      0.00000
     25       6.5966      0.00000
     26       6.8518      0.00000
     27       7.1418      0.00000
     28       7.3260      0.00000
     29       7.8075      0.00000
     30       8.1610      0.00000
     31       9.0466      0.00000
     32       9.2166      0.00000

[...]
     32       8.6410      0.00000

 k-point    32 :       0.1667    0.3333    0.5000
  band No.  band energies     occupation 
      1     -10.0745      2.00000
      2     -10.0745      2.00000
      3      -9.1939      2.00000
      4      -9.1939      2.00000
      5      -4.6305      2.00000
      6      -4.6305      2.00000
      7      -3.6534      2.00000
      8      -3.6534      2.00000
      9      -0.6235      2.00000
     10      -0.6235      2.00000
     11       0.2906      2.00000
     12       0.2906      2.00000
     13       0.9881      2.00000
     14       0.9881      2.00000
     15       1.6428      2.00000
     16       1.6428      2.00000
     17       2.5300      2.00000
     18       2.5300      2.00000
     19       3.0356      2.00000
     20       3.0356      2.00000
     21       5.5506      0.00000
     22       5.5506      0.00000
     23       6.4731      0.00000
     24       6.4731      0.00000
     25       6.8810      0.00000
     26       6.8810      0.00000
     27       7.3149      0.00000
     28       7.3149      0.00000
     29       8.0809      0.00000
     30       8.0809      0.00000
     31       8.8939      0.00000
     32       8.8939      0.00000

 k-point    33 :       0.1667   -0.3333    0.5000
  band No.  band energies     occupation 
      1     -10.0767      2.00000
      2     -10.0767      2.00000
      3      -9.1925      2.00000
      4      -9.1925      2.00000
      5      -4.5841      2.00000
      6      -4.5841      2.00000
      7      -3.7043      2.00000
      8      -3.7043      2.00000
      9      -0.4979      2.00000
     10      -0.4979      2.00000
     11       0.1042      2.00000
     12       0.1042      2.00000
     13       0.7059      2.00000
     14       0.7059      2.00000
     15       2.0559      2.00000
     16       2.0559      2.00000
     17       2.4363      2.00000
     18       2.4363      2.00000
     19       3.2429      2.00000
     20       3.2429      2.00000
     21       5.5815      0.00000
     22       5.5815      0.00000
     23       6.1000      0.00000
     24       6.1000      0.00000
     25       6.9990      0.00000
     26       6.9990      0.00000
     27       7.3891      0.00000
     28       7.3891      0.00000
     29       8.1894      0.00000
     30       8.1894      0.00000
     31       8.3908      0.00000
     32       8.3908      0.00000

 k-point    34 :       0.3333    0.3333    0.5000
  band No.  band energies     occupation 
      1      -9.6477      2.00000
      2      -9.6477      2.00000
      3      -9.0260      2.00000
      4      -9.0260      2.00000
      5      -4.6811      2.00000
      6      -4.6811      2.00000
      7      -3.8398      2.00000
      8      -3.8398      2.00000
      9      -1.2506      2.00000
     10      -1.2506      2.00000
     11      -0.4283      2.00000
     12      -0.4283      2.00000
     13       0.4915      2.00000
     14       0.4915      2.00000
     15       1.2866      2.00000
     16       1.2866      2.00000
     17       1.5815      2.00000
     18       1.5815      2.00000
     19       2.8068      2.00000
     20       2.8068      2.00000
     21       6.0577      0.00000
     22       6.0577      0.00000
     23       6.4542      0.00000
     24       6.4542      0.00000
     25       7.5143      0.00000
     26       7.5143      0.00000
     27       8.2703      0.00000
     28       8.2703      0.00000
     29       8.6669      0.00000
     30       8.6669      0.00000
     31       9.3189      0.00000
     32       9.3189      0.00000

 k-point    35 :       0.3333   -0.3333    0.5000
  band No.  band energies     occupation 
      1      -9.6519      2.00000
      2      -9.6519      2.00000
      3      -9.0226      2.00000
      4      -9.0226      2.00000
      5      -4.6135      2.00000
      6      -4.6135      2.00000
      7      -3.9192      2.00000
      8      -3.9192      2.00000
      9      -1.1508      2.00000
     10      -1.1508      2.00000
     11      -0.5796      2.00000
     12      -0.5796      2.00000
     13       0.4319      2.00000
     14       0.4319      2.00000
     15       1.1934      2.00000
     16       1.1934      2.00000
     17       1.7981      2.00000
     18       1.7981      2.00000
     19       2.9226      2.00000
     20       2.9226      2.00000
     21       5.9810      0.00000
     22       5.9810      0.00000
     23       6.3825      0.00000
     24       6.3825      0.00000
     25       7.5385      0.00000
     26       7.5385      0.00000
     27       8.1037      0.00000
     28       8.1037      0.00000
     29       8.5893      0.00000
     30       8.5893      0.00000
     31       9.5400      0.00000
     32       9.5400      0.00000

 k-point    36 :       0.5000    0.3333    0.5000
  band No.  band energies     occupation 
      1      -9.3077      2.00000
      2      -9.3077      2.00000
      3      -9.0289      2.00000
      4      -9.0289      2.00000
      5      -4.7777      2.00000
      6      -4.7777      2.00000
      7      -4.0815      2.00000
      8      -4.0815      2.00000
      9      -1.0253      2.00000
     10      -1.0253      2.00000
     11      -0.4706      2.00000
     12      -0.4706      2.00000
     13      -0.2649      2.00000
     14      -0.2649      2.00000
     15       0.6091      2.00000
     16       0.6091      2.00000
     17       1.8476      2.00000
     18       1.8476      2.00000
     19       2.5993      2.00000
     20       2.5993      2.00000
     21       5.8994      0.00000
     22       5.8994      0.00000
     23       7.1199      0.00000
     24       7.1199      0.00000
     25       7.2813      0.00000
     26       7.2813      0.00000
     27       8.4827      0.00000
     28       8.4827      0.00000
     29       8.8012      0.00000
     30       8.8012      0.00000
     31       9.1679      0.00000
     32       9.1679      0.00000

 k-point    37 :       0.0000    0.5000    0.5000
  band No.  band energies     occupation 
      1     -10.0217      2.00000
      2     -10.0217      2.00000
      3      -9.4532      2.00000
      4      -9.4532      2.00000
      5      -4.5662      2.00000
      6      -4.5662      2.00000
      7      -4.2265      2.00000
      8      -4.2265      2.00000
      9       0.4027      2.00000
     10       0.4027      2.00000
     11       1.0403      2.00000
     12       1.0403      2.00000
     13       1.4849      2.00000
     14       1.4849      2.00000
     15       1.6439      2.00000
     16       1.6439      2.00000
     17       3.1081      2.00000
     18       3.1081      2.00000
     19       3.2390      2.00000
     20       3.2390      2.00000
     21       4.9999      0.00000
     22       4.9999      0.00000
     23       5.2695      0.00000
     24       5.2695      0.00000
     25       6.6671      0.00000
     26       6.6671      0.00000
     27       6.7043      0.00000
     28       6.7043      0.00000
     29       8.0827      0.00000
     30       8.0827      0.00000
     31       8.2794      0.00000
     32       8.2794      0.00000

 k-point    38 :       0.1667    0.5000    0.5000
  band No.  band energies     occupation 
      1      -9.8697      2.00000
      2      -9.8697      2.00000
      3      -9.3400      2.00000
      4      -9.3400      2.00000
      5      -4.4599      2.00000
      6      -4.4599      2.00000
      7      -4.1777      2.00000
      8      -4.1777      2.00000
      9      -0.3375      2.00000
     10      -0.3375      2.00000
     11       0.1570      2.00000
     12       0.1570      2.00000
     13       0.9902      2.00000
     14       0.9902      2.00000
     15       1.4689      2.00000
     16       1.4689      2.00000
     17       2.4680      2.00000
     18       2.4680      2.00000
     19       3.2730      2.00000
     20       3.2730      2.00000
     21       5.6843      0.00000
     22       5.6843      0.00000
     23       6.1769      0.00000
     24       6.1769      0.00000
     25       7.1926      0.00000
     26       7.1926      0.00000
     27       7.5839      0.00000
     28       7.5839      0.00000
     29       7.8584      0.00000
     30       7.8584      0.00000
     31       8.6188      0.00000
     32       8.6188      0.00000

 k-point    39 :       0.3333    0.5000    0.5000
  band No.  band energies     occupation 
      1      -9.5040      2.00000
      2      -9.5040      2.00000
      3      -9.1019      2.00000
      4      -9.1019      2.00000
      5      -4.4743      2.00000
      6      -4.4743      2.00000
      7      -4.0612      2.00000
      8      -4.0612      2.00000
      9      -1.1992      2.00000
     10      -1.1992      2.00000
     11      -0.9538      2.00000
     12      -0.9538      2.00000
     13       0.4650      2.00000
     14       0.4650      2.00000
     15       0.9396      2.00000
     16       0.9396      2.00000
     17       1.6770      2.00000
     18       1.6770      2.00000
     19       2.6606      2.00000
     20       2.6606      2.00000
     21       6.2183      0.00000
     22       6.2183      0.00000
     23       7.3447      0.00000
     24       7.3447      0.00000
     25       7.6633      0.00000
     26       7.6633      0.00000
     27       8.5919      0.00000
     28       8.5919      0.00000
     29       9.0203      0.00000
     30       9.0203      0.00000
     31       9.5163      0.00000
     32       9.5163      0.00000

 k-point    40 :       0.5000    0.5000    0.5000
  band No.  band energies     occupation 
      1      -9.2625      2.00000
      2      -9.2625      2.00000
      3      -8.9917      2.00000
      4      -8.9917      2.00000
      5      -4.6684      2.00000
      6      -4.6684      2.00000
      7      -4.0117      2.00000
      8      -4.0117      2.00000
      9      -1.3363      2.00000
     10      -1.3363      2.00000
     11      -0.6509      2.00000
     12      -0.6509      2.00000
     13      -0.6224      2.00000
     14      -0.6224      2.00000
     15       0.2286      2.00000
     16       0.2286      2.00000
     17       1.9149      2.00000
     18       1.9149      2.00000
     19       2.5855      2.00000
     20       2.5855      2.00000
     21       5.7048      0.00000
     22       5.7048      0.00000
     23       7.7486      0.00000
     24       7.7486      0.00000
     25       8.3040      0.00000
     26       8.3040      0.00000
     27       8.8517      0.00000
     28       8.8517      0.00000
     29       9.0681      0.00000
     30       9.0681      0.00000
     31      10.1305      0.00000
     32      10.1305      0.00000


--------------------------------------------------------------------------------------------------------


 soft charge-density along one line, spin component            1
         0         1         2         3         4         5         6         7         8         9
 total charge-density along one line
 
 pseudopotential strength for first ion, spin component:            1
 14.380  17.937   0.047   0.036   0.004   0.084   0.064   0.008
 17.937  22.387   0.059   0.045   0.006   0.106   0.081   0.010
  0.047   0.059   3.202  -0.002  -0.001   5.449  -0.004  -0.002
  0.036   0.045  -0.002   3.202  -0.000  -0.004   5.449  -0.001
  0.004   0.006  -0.001  -0.000   3.204  -0.002  -0.001   5.452
  0.084   0.106   5.449  -0.004  -0.002   9.330  -0.007  -0.003
  0.064   0.081  -0.004   5.449  -0.001  -0.007   9.330  -0.001
  0.008   0.010  -0.002  -0.001   5.452  -0.003  -0.001   9.334
 -0.002  -0.002   0.001   0.000   0.008   0.002   0.000   0.016
 -0.005  -0.006   0.009   0.014   0.000   0.016   0.025   0.000
 -0.001  -0.002  -0.005   0.010  -0.001  -0.009   0.018  -0.002
 -0.001  -0.001   0.000   0.000   0.009   0.000   0.001   0.016
  0.002   0.002  -0.014   0.000   0.001  -0.025   0.000   0.002
 total augmentation occupancy for first ion, spin component:            1
  2.856  -0.815   0.376   0.314   0.016  -0.070  -0.058  -0.001  -0.004  -0.015   0.016  -0.010   0.009
 -0.815   0.782  -0.476  -0.394  -0.038   0.077   0.061   0.005   0.005   0.009  -0.021   0.015  -0.006
  0.376  -0.476   1.269   0.029   0.017  -0.212   0.006  -0.002  -0.002   0.043  -0.092  -0.003   0.002
  0.314  -0.394   0.029   1.355  -0.003   0.005  -0.233   0.004   0.002  -0.007   0.076   0.012  -0.002
  0.016  -0.038   0.017  -0.003   1.269  -0.002   0.004  -0.224   0.149  -0.001   0.007   0.038   0.002
 -0.070   0.077  -0.212   0.005  -0.002   0.040  -0.003   0.000   0.000  -0.007   0.016   0.000   0.000
 -0.058   0.061   0.006  -0.233   0.004  -0.003   0.046  -0.001   0.000   0.001  -0.013  -0.002   0.000
 -0.001   0.005  -0.002   0.004  -0.224   0.000  -0.001   0.044  -0.027   0.000  -0.001  -0.006  -0.000
 -0.004   0.005  -0.002   0.002   0.149   0.000   0.000  -0.027   0.031   0.000  -0.001   0.004   0.000
 -0.015   0.009   0.043  -0.007  -0.001  -0.007   0.001   0.000   0.000   0.014  -0.009   0.001   0.001
  0.016  -0.021  -0.092   0.076   0.007   0.016  -0.013  -0.001  -0.001  -0.009   0.037  -0.004  -0.002
 -0.010   0.015  -0.003   0.012   0.038   0.000  -0.002  -0.006   0.004   0.001  -0.004   0.012  -0.000
  0.009  -0.006   0.002  -0.002   0.002   0.000   0.000  -0.000   0.000   0.001  -0.002  -0.000   0.009


------------------------ aborting loop because EDIFF is reached ----------------------------------------


    CHARGE:  cpu time      0.0053: real time      0.0054
    FORLOC:  cpu time      0.0002: real time      0.0002
    FORNL :  cpu time      0.0251: real time      0.0252
    STRESS:  cpu time      0.2546: real time      0.2556
    FORCOR:  cpu time      0.0066: real time      0.0066
    FORHAR:  cpu time      0.0016: real time      0.0016
    MIXING:  cpu time      0.0006: real time      0.0007
    OFIELD:  cpu time      0.0000: real time      0.0000

  FORCE on cell =-STRESS in cart. coord.  units (eV):
  Direction    XX          YY          ZZ          XY          YZ          ZX
  --------------------------------------------------------------------------------------
  Alpha Z    91.66130    91.66130    91.66130
  Ewald    -462.42590  -540.91452  -438.79696     8.03640     0.00008     0.00003
  Hartree    55.06928    19.98428    55.65743     3.58424     0.00002     0.00000
  E(xc)    -142.03667  -142.15138  -141.85677     0.01694     0.00000     0.00000
  Local    -162.69708   -57.22363  -192.60413   -12.43413    -0.00009    -0.00003
  n-local   242.09925   241.85112   243.36143     0.33465     0.00000     0.00000
  augment   -11.18224   -11.79439   -11.86212    -0.04552     0.00000     0.00000
  Kinetic   391.04584   400.81610   405.99908     0.00655    -0.00001    -0.00002
  Fock        0.00000     0.00000     0.00000     0.00000     0.00000     0.00000
  -------------------------------------------------------------------------------------
  Total       1.53378     2.22887    11.55926    -0.50087     0.00000    -0.00001
  in kB      13.29331    19.31760   100.18421    -4.34104     0.00002    -0.00006
  external pressure =       44.27 kB  Pullay stress =        0.00 kB


 VOLUME and BASIS-vectors are now :
 -----------------------------------------------------------------------------
  energy-cutoff  :      360.00
  volume of cell :      184.86
      direct lattice vectors                 reciprocal lattice vectors
     3.858100176  0.000000000  0.000000000     0.259194929  0.000000000  0.000000000
     0.000000000  4.526575088  0.000000000     0.000000000  0.220917577  0.000000000
     0.000000000  0.000000000 10.585176468     0.000000000  0.000000000  0.094471736

  length of vectors
     3.858100176  4.526575088 10.585176468     0.259194929  0.220917577  0.094471736


 FORCES acting on ions
    electron-ion (+dipol)            ewald-force                    non-local-force                 convergence-correction
 -----------------------------------------------------------------------------------------------
   0.139E+01 0.194E+02 0.166E+02   -.176E+01 -.224E+02 -.188E+02   0.425E+00 0.267E+01 0.224E+01   -.662E-04 -.317E-03 -.573E-03
   0.139E+01 0.194E+02 -.166E+02   -.176E+01 -.224E+02 0.188E+02   0.425E+00 0.267E+01 -.224E+01   -.660E-04 -.316E-03 0.573E-03
   -.139E+01 -.194E+02 -.166E+02   0.176E+01 0.224E+02 0.188E+02   -.425E+00 -.267E+01 -.224E+01   0.661E-04 0.317E-03 0.574E-03
   -.139E+01 -.194E+02 0.166E+02   0.176E+01 0.224E+02 -.188E+02   -.425E+00 -.267E+01 0.224E+01   0.660E-04 0.316E-03 -.573E-03
   0.116E+01 -.187E+02 -.115E+02   -.130E+01 0.203E+02 0.127E+02   -.919E-01 -.150E+01 -.109E+01   0.131E-03 0.246E-03 0.839E-03
   0.116E+01 -.187E+02 0.115E+02   -.130E+01 0.203E+02 -.127E+02   -.919E-01 -.150E+01 0.109E+01   0.131E-03 0.248E-03 -.840E-03
   -.116E+01 0.187E+02 0.115E+02   0.130E+01 -.203E+02 -.127E+02   0.919E-01 0.150E+01 0.109E+01   -.130E-03 -.247E-03 -.840E-03
   -.116E+01 0.187E+02 -.115E+02   0.130E+01 -.203E+02 0.127E+02   0.919E-01 0.150E+01 -.109E+01   -.131E-03 -.246E-03 0.840E-03
 -----------------------------------------------------------------------------------------------
   0.107E-04 0.176E-05 0.184E-05   0.400E-14 0.711E-14 0.249E-13   -.129E-03 0.115E-03 -.152E-05   0.106E-05 0.709E-06 -.979E-06
 
 
 POSITION                                       TOTAL-FORCE (eV/Angst)
 -----------------------------------------------------------------------------------
      0.01398      1.85160      1.23098         0.052805     -0.359068      0.123776
      1.94303      4.11489      4.06160         0.052806     -0.359071     -0.123771
      2.89357      3.98702      9.35419        -0.052921      0.359076     -0.123778
      0.96452      1.72374      6.52357        -0.052916      0.359072      0.123774
      0.01398      1.28915      3.75268        -0.239010      0.139230      0.130386
      1.94303      3.55244      1.53991        -0.239009      0.139226     -0.130392
      2.89357      0.02290      6.83250         0.239121     -0.139231     -0.130424
      0.96452      2.28618      9.04526         0.239123     -0.139233      0.130430
 -----------------------------------------------------------------------------------
    total drift:                               -0.000117      0.000118     -0.000001


--------------------------------------------------------------------------------------------------------



  FREE ENERGIE OF THE ION-ELECTRON SYSTEM (eV)
  ---------------------------------------------------
  free  energy   TOTEN  =       -33.06076541 eV

  energy  without entropy=      -33.06076067  energy(sigma->0) =      -33.06076304
 


--------------------------------------------------------------------------------------------------------


    POTLOK:  cpu time      0.2280: real time      0.2285


--------------------------------------------------------------------------------------------------------


     LOOP+:  cpu time      7.7390: real time      7.7737
    4ORBIT:  cpu time      0.0000: real time      0.0000

 total amount of memory used by VASP MPI-rank0    36587. kBytes
=======================================================================

   base      :      30000. kBytes
   nonl-proj :       5001. kBytes
   fftplans  :        306. kBytes
   grid      :        466. kBytes
   one-center:         16. kBytes
   wavefun   :        798. kBytes
 
  
  
 General timing and accounting informations for this job:
 ========================================================
  
                  Total CPU time used (sec):        9.348
                            User time (sec):        9.094
                          System time (sec):        0.254
                         Elapsed time (sec):        9.649
  
                   Maximum memory used (kb):      174864.
                   Average memory used (kb):          N/A
  
                          Minor page faults:        16650
                          Major page faults:           60
                 Voluntary context switches:         1833
