 running  128 mpi-ranks, with    1 threads/rank, on    2 nodes
 distrk:  each k-point on   64 cores,    2 groups
 distr:  one band on    4 cores,   16 groups
 vasp.6.4.2 20Jul23 (build Oct 12 2023 10:31:02) complex                         
 POSCAR found type information on POSCAR GeSe
 POSCAR found :  2 types and       8 ions
 Reading from existing POTCAR
 scaLAPACK will be used
 Reading from existing POTCAR
 LDA part: xc-table for Pade appr. of Perdew
 POSCAR, INCAR and KPOINTS ok, starting setup
 FFT: planning ... GRIDC
 FFT: planning ... GRID_SOFT
 FFT: planning ... GRID
 WAVECAR not read
 entering main loop
       N       E                     dE             d eps       ncg     rms          rms(c)
DAV:   1     0.132325549898E+03    0.13233E+03   -0.12547E+04  2560   0.762E+02
DAV:   2    -0.246843082357E+02   -0.15701E+03   -0.15245E+03  3760   0.136E+02
DAV:   3    -0.340223410456E+02   -0.93380E+01   -0.93181E+01  3248   0.389E+01
DAV:   4    -0.340918600736E+02   -0.69519E-01   -0.69513E-01  3152   0.385E+00
DAV:   5    -0.340923314742E+02   -0.47140E-03   -0.47140E-03  3296   0.310E-01    0.614E+00
DAV:   6    -0.335893440297E+02    0.50299E+00   -0.11246E+00  2960   0.345E+00    0.383E+00
DAV:   7    -0.335792782881E+02    0.10066E-01   -0.25575E-01  2880   0.178E+00    0.154E+00
DAV:   8    -0.335791855177E+02    0.92770E-04   -0.25258E-02  2960   0.622E-01    0.182E-01
DAV:   9    -0.335792874403E+02   -0.10192E-03   -0.47078E-03  3136   0.284E-01    0.727E-02
DAV:  10    -0.335794809484E+02   -0.19351E-03   -0.53527E-04  2912   0.997E-02    0.236E-02
DAV:  11    -0.335795098288E+02   -0.28880E-04   -0.51164E-05  2832   0.316E-02    0.136E-02
DAV:  12    -0.335795109283E+02   -0.10994E-05   -0.11302E-05  3216   0.140E-02    0.312E-03
DAV:  13    -0.335795117086E+02   -0.78032E-06   -0.13012E-06  1968   0.450E-03
   1 F= -.33579512E+02 E0= -.33579512E+02  d E =-.179567E-12
