 running  128 mpi-ranks, with    1 threads/rank, on    2 nodes
 distrk:  each k-point on   64 cores,    2 groups
 distr:  one band on    4 cores,   16 groups
 vasp.6.4.2 20Jul23 (build Oct 12 2023 10:31:02) complex                         
 POSCAR found type information on POSCAR GeSe
 POSCAR found :  2 types and       8 ions
 Reading from existing POTCAR
 scaLAPACK will be used
 Reading from existing POTCAR
 LDA part: xc-table for Pade appr. of Perdew
 POSCAR, INCAR and KPOINTS ok, starting setup
 FFT: planning ... GRIDC
 FFT: planning ... GRID_SOFT
 FFT: planning ... GRID
 WAVECAR not read
 entering main loop
       N       E                     dE             d eps       ncg     rms          rms(c)
DAV:   1     0.127062308049E+03    0.12706E+03   -0.13272E+04  2560   0.791E+02
DAV:   2    -0.256825206803E+02   -0.15274E+03   -0.14804E+03  3728   0.143E+02
DAV:   3    -0.329031476989E+02   -0.72206E+01   -0.71977E+01  3296   0.355E+01
DAV:   4    -0.329412519840E+02   -0.38104E-01   -0.38097E-01  3264   0.292E+00
DAV:   5    -0.329414698412E+02   -0.21786E-03   -0.21785E-03  3248   0.211E-01    0.736E+00
DAV:   6    -0.326741693060E+02    0.26730E+00   -0.50928E-01  3280   0.244E+00    0.458E+00
DAV:   7    -0.326671757500E+02    0.69936E-02   -0.20561E-01  3264   0.162E+00    0.950E-01
DAV:   8    -0.326623964271E+02    0.47793E-02   -0.29386E-02  3088   0.635E-01    0.159E-01
DAV:   9    -0.326626095957E+02   -0.21317E-03   -0.25886E-03  3072   0.226E-01    0.524E-02
DAV:  10    -0.326626365866E+02   -0.26991E-04   -0.10576E-04  3360   0.443E-02    0.223E-02
DAV:  11    -0.326626519435E+02   -0.15357E-04   -0.25488E-05  2912   0.227E-02    0.654E-03
DAV:  12    -0.326626521946E+02   -0.25110E-06   -0.32846E-06  2880   0.811E-03
   1 F= -.32662652E+02 E0= -.32660678E+02  d E =-.394795E-02
