 vasp.6.4.2 20Jul23 (build Oct 12 2023 10:31:02) complex                         
 executed on              LinuxNV date 2025.05.28  09:54:22
 running  128 mpi-ranks, with    1 threads/rank, on    2 nodes
 distrk:  each k-point on   64 cores,    2 groups
 distr:  one band on NCORE=   4 cores,   16 groups


--------------------------------------------------------------------------------------------------------


 INCAR:
   ENCUT = 360.000000
   SIGMA = 0.050000
   EDIFF = 1.00e-06
   ALGO = Normal
   GGA = PE
   PREC = Normal
   SYSTEM = ./
   ICHARG = 2
   ISMEAR = 0
   ISPIN = 1
   ISTART = 0
   ISYM = 0
   KPAR = 2
   LMAXMIX = 4
   NELM = 100
   NPAR = 16
   LASPH = .TRUE.
   LCHARG = .FALSE.
   LWAVE = .FALSE.

 POTCAR:    PAW_PBE Ge 05Jan2001                  
 POTCAR:    PAW_PBE Se 06Sep2000                  
 POTCAR:    PAW_PBE Ge 05Jan2001                  
   VRHFIN =Ge: s2p2                                                                                 
   LEXCH  = PE                                                                                      
   EATOM  =   104.9960 eV,    7.7170 Ry                                                             
                                                                                                    
   TITEL  = PAW_PBE Ge 05Jan2001                                                                    
   LULTRA =        F    use ultrasoft PP ?                                                          
   IUNSCR =        1    unscreen: 0-lin 1-nonlin 2-no                                               
   RPACOR =    2.170    partial core radius                                                         
   POMASS =   72.610; ZVAL   =    4.000    mass and valenz                                          
   RCORE  =    2.300    outmost cutoff radius                                                       
   RWIGS  =    2.300; RWIGS  =    1.217    wigner-seitz radius (au A)                               
   ENMAX  =  173.807; ENMIN  =  130.355 eV                                                          
   ICORE  =        3    local potential                                                             
   LCOR   =        T    correct aug charges                                                         
   LPAW   =        T    paw PP                                                                      
   EAUG   =  385.843                                                                                
   DEXC   =    0.000                                                                                
   RMAX   =    2.342    core radius for proj-oper                                                   
   RAUG   =    1.300    factor for augmentation sphere                                              
   RDEP   =    2.318    radius for radial grids                                                     
   RDEPT  =    2.103    core radius for aug-charge                                                  
                                                                                                    
   Atomic configuration                                                                             
   10 entries                                                                                       
     n  l   j            E        occ.                                                              
     1  0  0.50    -10959.8463   2.0000                                                             
     2  0  0.50     -1371.6056   2.0000                                                             
     2  1  1.50     -1198.4791   6.0000                                                             
     3  0  0.50      -168.4733   2.0000                                                             
     3  1  1.50      -115.6019   6.0000                                                             
     3  2  2.50       -29.3106  10.0000                                                             
     4  0  0.50       -11.7309   2.0000                                                             
     4  1  0.50        -3.8952   2.0000                                                             
     4  2  1.50        -4.0817   0.0000                                                             
     4  3  2.50        -4.0817   0.0000                                                             
   Description                                                                                      
     l       E           TYP  RCUT    TYP  RCUT                                                     
     0    -11.7309493     23  2.300                                                                 
     0     -7.4578696     23  2.300                                                                 
     1     -3.8952261     23  2.300                                                                 
     1      6.1178114     23  2.300                                                                 
     2     -4.0817478     23  2.300                                                                 
     3     -1.3605826      7  2.300                                                                 
  local pseudopotential read in
  partial core-charges read in
  partial kinetic energy density read in
  atomic valenz-charges read in
  non local Contribution for L=            0  read in
    real space projection operators read in
  non local Contribution for L=            0  read in
    real space projection operators read in
  non local Contribution for L=            1  read in
    real space projection operators read in
  non local Contribution for L=            1  read in
    real space projection operators read in
  non local Contribution for L=            2  read in
    real space projection operators read in
    PAW grid and wavefunctions read in
 
   number of l-projection  operators is LMAX  =            5
   number of lm-projection operators is LMMAX =           13
 
 POTCAR:    PAW_PBE Se 06Sep2000                  
   VRHFIN =Se: s2p4                                                                                 
   LEXCH  = PE                                                                                      
   EATOM  =   257.1286 eV,   18.8984 Ry                                                             
                                                                                                    
   TITEL  = PAW_PBE Se 06Sep2000                                                                    
   LULTRA =        F    use ultrasoft PP ?                                                          
   IUNSCR =        1    unscreen: 0-lin 1-nonlin 2-no                                               
   RPACOR =    1.900    partial core radius                                                         
   POMASS =   78.960; ZVAL   =    6.000    mass and valenz                                          
   RCORE  =    2.100    outmost cutoff radius                                                       
   RWIGS  =    2.200; RWIGS  =    1.164    wigner-seitz radius (au A)                               
   ENMAX  =  211.555; ENMIN  =  158.666 eV                                                          
   ICORE  =        3    local potential                                                             
   LCOR   =        T    correct aug charges                                                         
   LPAW   =        T    paw PP                                                                      
   EAUG   =  446.842                                                                                
   DEXC   =    0.000                                                                                
   RMAX   =    2.147    core radius for proj-oper                                                   
   RAUG   =    1.300    factor for augmentation sphere                                              
   RDEP   =    2.177    radius for radial grids                                                     
   RDEPT  =    1.928    core radius for aug-charge                                                  
                                                                                                    
   Atomic configuration                                                                             
   10 entries                                                                                       
     n  l   j            E        occ.                                                              
     1  0  0.50    -12503.4787   2.0000                                                             
     2  0  0.50     -1606.9547   2.0000                                                             
     2  1  1.50     -1413.3140   6.0000                                                             
     3  0  0.50      -213.4885   2.0000                                                             
     3  1  1.50      -152.9538   6.0000                                                             
     3  2  2.50       -53.1221  10.0000                                                             
     4  0  0.50       -17.2865   2.0000                                                             
     4  1  0.50        -6.5110   4.0000                                                             
     4  2  2.50        -6.8029   0.0000                                                             
     4  3  2.50        -6.8029   0.0000                                                             
   Description                                                                                      
     l       E           TYP  RCUT    TYP  RCUT                                                     
     0    -17.2865377     23  2.100                                                                 
     0    -15.3094411     23  2.100                                                                 
     1     -6.5110275     23  2.100                                                                 
     1     -0.0695192     23  2.100                                                                 
     2     -6.8029130     23  2.100                                                                 
     3     -1.3605826      7  2.100                                                                 
  local pseudopotential read in
  partial core-charges read in
  partial kinetic energy density read in
  atomic valenz-charges read in
  non local Contribution for L=            0  read in
    real space projection operators read in
  non local Contribution for L=            0  read in
    real space projection operators read in
  non local Contribution for L=            1  read in
    real space projection operators read in
  non local Contribution for L=            1  read in
    real space projection operators read in
  non local Contribution for L=            2  read in
    real space projection operators read in
    PAW grid and wavefunctions read in
 
   number of l-projection  operators is LMAX  =            5
   number of lm-projection operators is LMMAX =           13
 
  PAW_PBE Ge 05Jan2001                  :
 energy of atom  1       EATOM= -104.9960
 kinetic energy error for atom=    0.0005 (will be added to EATOM!!)
  PAW_PBE Se 06Sep2000                  :
 energy of atom  2       EATOM= -257.1286
 kinetic energy error for atom=    0.0030 (will be added to EATOM!!)
 
 
 POSCAR: Ge Se
  positions in cartesian coordinates
  No initial velocities read in
 exchange correlation table for  LEXCH =        8
   RHO(1)=    0.500       N(1)  =     2000
   RHO(2)=  100.500       N(2)  =     4000
 


--------------------------------------------------------------------------------------------------------


 ion  position               nearest neighbor table
   1  0.250  0.114  0.129-   5 2.57   6 2.68   6 2.68
   2  0.750  0.614  0.371-   6 2.57   5 2.68   5 2.68
   3  0.750  0.886  0.871-   7 2.57   8 2.68   8 2.68
   4  0.250  0.386  0.629-   8 2.57   7 2.68   7 2.68
   5  0.250  0.965  0.351-   1 2.57   2 2.68   2 2.68
   6  0.750  0.465  0.149-   2 2.57   1 2.68   1 2.68
   7  0.750  0.035  0.649-   3 2.57   4 2.68   4 2.68
   8  0.250  0.535  0.851-   4 2.57   3 2.68   3 2.68
 

IMPORTANT INFORMATION: All symmetrisations will be switched off!
NOSYMM: (Re-)initialisation of all symmetry stuff for point group C_1.


----------------------------------------------------------------------------------------

                                     Primitive cell                                     

  volume of cell :     219.9474

  direct lattice vectors                    reciprocal lattice vectors
     4.200000000  0.000000000  0.000000000     0.238095238  0.000000000  0.000000000
     0.000000000  4.700000000  0.000000000     0.000000000  0.212765957  0.000000000
     0.000000000  0.000000000 11.142221000     0.000000000  0.000000000  0.089748713

  length of vectors
     4.200000000  4.700000000 11.142221000     0.238095238  0.212765957  0.089748713

  position of ions in fractional coordinates (direct lattice)
     0.250000000  0.113858174  0.129288841
     0.750000000  0.613858174  0.370711159
     0.750000000  0.886141826  0.870711159
     0.250000000  0.386141826  0.629288841
     0.250000000  0.964602144  0.350873326
     0.750000000  0.464602144  0.149126674
     0.750000000  0.035397856  0.649126674
     0.250000000  0.535397856  0.850873326

  ion indices of the primitive-cell ions
   primitive index   ion index
                 1           1
                 2           2
                 3           3
                 4           4
                 5           5
                 6           6
                 7           7
                 8           8

----------------------------------------------------------------------------------------

 
 
 KPOINTS: KPOINTS created by Atomic Simulation Env

Automatic generation of k-mesh.
 Grid dimensions read from file:
 generate k-points for:    6    6    2

 Generating k-lattice:

  Cartesian coordinates                     Fractional coordinates (reciprocal lattice)
     0.039682540  0.000000000  0.000000000     0.166666667  0.000000000  0.000000000
     0.000000000  0.035460993  0.000000000     0.000000000  0.166666667  0.000000000
     0.000000000  0.000000000  0.044874357     0.000000000  0.000000000  0.500000000

  Length of vectors
     0.039682540  0.035460993  0.044874357

  Shift w.r.t. Gamma in fractional coordinates (k-lattice)
     0.000000000  0.000000000  0.000000000

 
 Subroutine IBZKPT returns following result:
 ===========================================
 
 Found     40 irreducible k-points:
 
 Following reciprocal coordinates:
            Coordinates               Weight
  0.000000  0.000000  0.000000      1.000000
  0.166667  0.000000  0.000000      2.000000
  0.333333  0.000000  0.000000      2.000000
  0.500000  0.000000  0.000000      1.000000
  0.000000  0.166667  0.000000      2.000000
  0.166667  0.166667  0.000000      2.000000
  0.166667 -0.166667  0.000000      2.000000
  0.333333  0.166667  0.000000      2.000000
  0.333333 -0.166667  0.000000      2.000000
  0.500000  0.166667  0.000000      2.000000
  0.000000  0.333333  0.000000      2.000000
  0.166667  0.333333  0.000000      2.000000
  0.166667 -0.333333  0.000000      2.000000
  0.333333  0.333333  0.000000      2.000000
  0.333333 -0.333333  0.000000      2.000000
  0.500000  0.333333  0.000000      2.000000
  0.000000  0.500000  0.000000      1.000000
  0.166667  0.500000  0.000000      2.000000
  0.333333  0.500000  0.000000      2.000000
  0.500000  0.500000  0.000000      1.000000
  0.000000  0.000000  0.500000      1.000000
  0.166667  0.000000  0.500000      2.000000
  0.333333  0.000000  0.500000      2.000000
  0.500000  0.000000  0.500000      1.000000
  0.000000  0.166667  0.500000      2.000000
  0.166667  0.166667  0.500000      2.000000
  0.166667 -0.166667  0.500000      2.000000
  0.333333  0.166667  0.500000      2.000000
  0.333333 -0.166667  0.500000      2.000000
  0.500000  0.166667  0.500000      2.000000
  0.000000  0.333333  0.500000      2.000000
  0.166667  0.333333  0.500000      2.000000
  0.166667 -0.333333  0.500000      2.000000
  0.333333  0.333333  0.500000      2.000000
  0.333333 -0.333333  0.500000      2.000000
  0.500000  0.333333  0.500000      2.000000
  0.000000  0.500000  0.500000      1.000000
  0.166667  0.500000  0.500000      2.000000
  0.333333  0.500000  0.500000      2.000000
  0.500000  0.500000  0.500000      1.000000
 
 Following cartesian coordinates:
            Coordinates               Weight
  0.000000  0.000000  0.000000      1.000000
  0.039683  0.000000  0.000000      2.000000
  0.079365  0.000000  0.000000      2.000000
  0.119048  0.000000  0.000000      1.000000
  0.000000  0.035461  0.000000      2.000000
  0.039683  0.035461  0.000000      2.000000
  0.039683 -0.035461  0.000000      2.000000
  0.079365  0.035461  0.000000      2.000000
  0.079365 -0.035461  0.000000      2.000000
  0.119048  0.035461  0.000000      2.000000
  0.000000  0.070922  0.000000      2.000000
  0.039683  0.070922  0.000000      2.000000
  0.039683 -0.070922  0.000000      2.000000
  0.079365  0.070922  0.000000      2.000000
  0.079365 -0.070922  0.000000      2.000000
  0.119048  0.070922  0.000000      2.000000
  0.000000  0.106383  0.000000      1.000000
  0.039683  0.106383  0.000000      2.000000
  0.079365  0.106383  0.000000      2.000000
  0.119048  0.106383  0.000000      1.000000
  0.000000  0.000000  0.044874      1.000000
  0.039683  0.000000  0.044874      2.000000
  0.079365  0.000000  0.044874      2.000000
  0.119048  0.000000  0.044874      1.000000
  0.000000  0.035461  0.044874      2.000000
  0.039683  0.035461  0.044874      2.000000
  0.039683 -0.035461  0.044874      2.000000
  0.079365  0.035461  0.044874      2.000000
  0.079365 -0.035461  0.044874      2.000000
  0.119048  0.035461  0.044874      2.000000
  0.000000  0.070922  0.044874      2.000000
  0.039683  0.070922  0.044874      2.000000
  0.039683 -0.070922  0.044874      2.000000
  0.079365  0.070922  0.044874      2.000000
  0.079365 -0.070922  0.044874      2.000000
  0.119048  0.070922  0.044874      2.000000
  0.000000  0.106383  0.044874      1.000000
  0.039683  0.106383  0.044874      2.000000
  0.079365  0.106383  0.044874      2.000000
  0.119048  0.106383  0.044874      1.000000
 


--------------------------------------------------------------------------------------------------------




 Dimension of arrays:
   k-points           NKPTS =     40   k-points in BZ     NKDIM =     40   number of bands    NBANDS=     32
   number of dos      NEDOS =    301   number of ions     NIONS =      8
   non local maximal  LDIM  =      5   non local SUM 2l+1 LMDIM =     13
   total plane-waves  NPLWV =  25920
   max r-space proj   IRMAX =      1   max aug-charges    IRDMAX=   6604
   dimension x,y,z NGX =    20 NGY =   24 NGZ =   54
   dimension x,y,z NGXF=    40 NGYF=   48 NGZF=  108
   support grid    NGXF=    40 NGYF=   48 NGZF=  108
   ions per type =               4   4
   NGX,Y,Z   is equivalent  to a cutoff of   7.92,  8.49,  8.06 a.u.
   NGXF,Y,Z  is equivalent  to a cutoff of  15.83, 16.98, 16.11 a.u.

 SYSTEM =  ./                                      
 POSCAR =  Ge Se                                   

 Startparameter for this run:
   NWRITE =      2    write-flag & timer
   PREC   = normal    normal or accurate (medium, high low for compatibility)
   ISTART =      0    job   : 0-new  1-cont  2-samecut
   ICHARG =      2    charge: 1-file 2-atom 10-const
   ISPIN  =      1    spin polarized calculation?
   LNONCOLLINEAR =      F non collinear calculations
   LSORBIT =      F    spin-orbit coupling
   INIWAV =      1    electr: 0-lowe 1-rand  2-diag
   LASPH  =      T    aspherical Exc in radial PAW
 Electronic Relaxation 1
   ENCUT  =  360.0 eV  26.46 Ry    5.14 a.u.   6.50  7.27 17.24*2*pi/ulx,y,z
   ENINI  =  360.0     initial cutoff
   ENAUG  =  446.8 eV  augmentation charge cutoff
   NELM   =    100;   NELMIN=  2; NELMDL= -5     # of ELM steps 
   EDIFF  = 0.1E-05   stopping-criterion for ELM
   LREAL  =      F    real-space projection
   NLSPLINE    = F    spline interpolate recip. space projectors
   LCOMPAT=      F    compatible to vasp.4.4
   GGA_COMPAT  = T    GGA compatible to vasp.4.4-vasp.4.6
   LMAXPAW     = -100 max onsite density
   LMAXMIX     =    4 max onsite mixed and CHGCAR
   VOSKOWN=      0    Vosko Wilk Nusair interpolation
   ROPT   =    0.00000   0.00000
 Ionic relaxation
   EDIFFG = 0.1E-04   stopping-criterion for IOM
   NSW    =      0    number of steps for IOM
   NBLOCK =      1;   KBLOCK =      1    inner block; outer block 
   IBRION =     -1    ionic relax: 0-MD 1-quasi-New 2-CG
   NFREE  =      0    steps in history (QN), initial steepest desc. (CG)
   ISIF   =      2    stress and relaxation
   IWAVPR =     10    prediction:  0-non 1-charg 2-wave 3-comb
   ISYM   =      0    0-nonsym 1-usesym 2-fastsym
   LCORR  =      T    Harris-Foulkes like correction to forces

   POTIM  = 0.5000    time-step for ionic-motion
   TEIN   =    0.0    initial temperature
   TEBEG  =    0.0;   TEEND  =   0.0 temperature during run
   SMASS  =  -3.00    Nose mass-parameter (am)
   estimated Nose-frequenzy (Omega)   =  0.10E-29 period in steps = 0.13E+47 mass=  -0.403E-27a.u.
   SCALEE = 1.0000    scale energy and forces
   NPACO  =    256;   APACO  = 10.0  distance and # of slots for P.C.
   PSTRESS=    0.0 pullay stress

  Mass of Ions in am
   POMASS =  72.61 78.96
  Ionic Valenz
   ZVAL   =   4.00  6.00
  Atomic Wigner-Seitz radii
   RWIGS  =  -1.00 -1.00
  virtual crystal weights 
   VCA    =   1.00  1.00
   NELECT =      40.0000    total number of electrons
   NUPDOWN=      -1.0000    fix difference up-down

 DOS related values:
   EMIN   =  10.00;   EMAX   =-10.00  energy-range for DOS
   EFERMI =   0.00;   METHOD = LEGACY      
   ISMEAR =     0;   SIGMA  =   0.05  broadening in eV -4-tet -1-fermi 0-gaus

 Electronic relaxation 2 (details)
   IALGO  =     38    algorithm
   LDIAG  =      T    sub-space diagonalisation (order eigenvalues)
   LSUBROT=      F    optimize rotation matrix (better conditioning)
   TURBO    =      0    0=normal 1=particle mesh
   IRESTART =      0    0=no restart 2=restart with 2 vectors
   NREBOOT  =      0    no. of reboots
   NMIN     =      0    reboot dimension
   EREF     =   0.00    reference energy to select bands
   IMIX   =      4    mixing-type and parameters
     AMIX     =   0.40;   BMIX     =  1.00
     AMIX_MAG =   1.60;   BMIX_MAG =  1.00
     AMIN     =   0.10
     WC   =   100.;   INIMIX=   1;  MIXPRE=   1;  MAXMIX= -45

 Intra band minimization:
   WEIMIN = 0.0000     energy-eigenvalue tresh-hold
   EBREAK =  0.78E-08  absolut break condition
   DEPER  =   0.30     relativ break condition  

   TIME   =   0.40     timestep for ELM

  volume/ion in A,a.u.               =      27.49       185.53
  Fermi-wavevector in a.u.,A,eV,Ry     =   0.927517  1.752753 11.704925  0.860288
  Thomas-Fermi vector in A             =   2.053595
 
 Write flags
   LWAVE        =      F    write WAVECAR
   LDOWNSAMPLE  =      F    k-point downsampling of WAVECAR
   LCHARG       =      F    write CHGCAR
   LVTOT        =      F    write LOCPOT, total local potential
   LVHAR        =      F    write LOCPOT, Hartree potential only
   LELF         =      F    write electronic localiz. function (ELF)
   LORBIT       =      0    0 simple, 1 ext, 2 COOP (PROOUT), +10 PAW based schemes


 Dipole corrections
   LMONO  =      F    monopole corrections only (constant potential shift)
   LDIPOL =      F    correct potential (dipole corrections)
   IDIPOL =      0    1-x, 2-y, 3-z, 4-all directions 
   EPSILON=  1.0000000 bulk dielectric constant

 Exchange correlation treatment:
   GGA     =    PE    GGA type
   LEXCH   =     8    internal setting for exchange type
   LIBXC   =     F    Libxc                    
   VOSKOWN =     0    Vosko Wilk Nusair interpolation
   LHFCALC =     F    Hartree Fock is set to
   LHFONE  =     F    Hartree Fock one center treatment
   AEXX    =    0.0000 exact exchange contribution

 Linear response parameters
   LEPSILON=     F    determine dielectric tensor
   LRPA    =     F    only Hartree local field effects (RPA)
   LNABLA  =     F    use nabla operator in PAW spheres
   LVEL    =     F    velocity operator in full k-point grid
   CSHIFT  =0.1000    complex shift for real part using Kramers Kronig
   OMEGAMAX=  -1.0    maximum frequency
   DEG_THRESHOLD= 0.2000000E-02 threshold for treating states as degnerate
   RTIME   =   -0.100 relaxation time in fs
  (WPLASMAI=    0.000 imaginary part of plasma frequency in eV, 0.658/RTIME)
   DFIELD  = 0.0000000 0.0000000 0.0000000 field for delta impulse in time
 
  Optional k-point grid parameters
   LKPOINTS_OPT  =     F    use optional k-point grid
   KPOINTS_OPT_MODE=     1    mode for optional k-point grid
 
 Orbital magnetization related:
   ORBITALMAG=     F  switch on orbital magnetization
   LCHIMAG   =     F  perturbation theory with respect to B field
   DQ        =  0.001000  dq finite difference perturbation B field
   LLRAUG    =     F  two centre corrections for induced B field
   LBONE     =     F  B-component reconstruction in AE one-centre
   LVGVCALC  =     T  calculate vGv susceptibility
   LVGVAPPL  =     F  apply vGv susceptibility instead of pGv for G=0

 Random number generation:
   RANDOM_GENERATOR = DEFAULT
   PCG_SEED         = not used


--------------------------------------------------------------------------------------------------------


 Static calculation
 charge density and potential will be updated during run
 non-spin polarized calculation
 Variant of blocked Davidson
 Davidson routine will perform the subspace rotation
 perform sub-space diagonalisation
    after iterative eigenvector-optimisation
 modified Broyden-mixing scheme, WC =      100.0
 initial mixing is a Kerker type mixing with AMIX =  0.4000 and BMIX =      1.0000
 Hartree-type preconditioning will be used
 using additional bands            12
 reciprocal scheme for non local part
 use partial core corrections
 calculate Harris-corrections to forces 
   (improved forces if not selfconsistent)
 use gradient corrections 
 use of overlap-Matrix (Vanderbilt PP)
 Gauss-broadening in eV      SIGMA  =   0.05


--------------------------------------------------------------------------------------------------------


  energy-cutoff  :      360.00
  volume of cell :      219.95
      direct lattice vectors                 reciprocal lattice vectors
     4.200000000  0.000000000  0.000000000     0.238095238  0.000000000  0.000000000
     0.000000000  4.700000000  0.000000000     0.000000000  0.212765957  0.000000000
     0.000000000  0.000000000 11.142221000     0.000000000  0.000000000  0.089748713

  length of vectors
     4.200000000  4.700000000 11.142221000     0.238095238  0.212765957  0.089748713


 
 k-points in units of 2pi/SCALE and weight: KPOINTS created by Atomic Simulation Env
   0.00000000  0.00000000  0.00000000       0.014
   0.03968254  0.00000000  0.00000000       0.028
   0.07936508  0.00000000  0.00000000       0.028
   0.11904762  0.00000000  0.00000000       0.014
   0.00000000  0.03546099  0.00000000       0.028
   0.03968254  0.03546099  0.00000000       0.028
   0.03968254 -0.03546099  0.00000000       0.028
   0.07936508  0.03546099  0.00000000       0.028
   0.07936508 -0.03546099  0.00000000       0.028
   0.11904762  0.03546099  0.00000000       0.028
   0.00000000  0.07092199  0.00000000       0.028
   0.03968254  0.07092199  0.00000000       0.028
   0.03968254 -0.07092199  0.00000000       0.028
   0.07936508  0.07092199  0.00000000       0.028
   0.07936508 -0.07092199  0.00000000       0.028
   0.11904762  0.07092199  0.00000000       0.028
   0.00000000  0.10638298  0.00000000       0.014
   0.03968254  0.10638298  0.00000000       0.028
   0.07936508  0.10638298  0.00000000       0.028
   0.11904762  0.10638298  0.00000000       0.014
   0.00000000  0.00000000  0.04487436       0.014
   0.03968254  0.00000000  0.04487436       0.028
   0.07936508  0.00000000  0.04487436       0.028
   0.11904762  0.00000000  0.04487436       0.014
   0.00000000  0.03546099  0.04487436       0.028
   0.03968254  0.03546099  0.04487436       0.028
   0.03968254 -0.03546099  0.04487436       0.028
   0.07936508  0.03546099  0.04487436       0.028
   0.07936508 -0.03546099  0.04487436       0.028
   0.11904762  0.03546099  0.04487436       0.028
   0.00000000  0.07092199  0.04487436       0.028
   0.03968254  0.07092199  0.04487436       0.028
   0.03968254 -0.07092199  0.04487436       0.028
   0.07936508  0.07092199  0.04487436       0.028
   0.07936508 -0.07092199  0.04487436       0.028
   0.11904762  0.07092199  0.04487436       0.028
   0.00000000  0.10638298  0.04487436       0.014
   0.03968254  0.10638298  0.04487436       0.028
   0.07936508  0.10638298  0.04487436       0.028
   0.11904762  0.10638298  0.04487436       0.014
 
 k-points in reciprocal lattice and weights: KPOINTS created by Atomic Simulation Env
   0.00000000  0.00000000  0.00000000       0.014
   0.16666667  0.00000000  0.00000000       0.028
   0.33333333  0.00000000  0.00000000       0.028
   0.50000000  0.00000000  0.00000000       0.014
   0.00000000  0.16666667  0.00000000       0.028
   0.16666667  0.16666667  0.00000000       0.028
   0.16666667 -0.16666667  0.00000000       0.028
   0.33333333  0.16666667  0.00000000       0.028
   0.33333333 -0.16666667  0.00000000       0.028
   0.50000000  0.16666667  0.00000000       0.028
   0.00000000  0.33333333  0.00000000       0.028
   0.16666667  0.33333333  0.00000000       0.028
   0.16666667 -0.33333333  0.00000000       0.028
   0.33333333  0.33333333  0.00000000       0.028
   0.33333333 -0.33333333  0.00000000       0.028
   0.50000000  0.33333333  0.00000000       0.028
   0.00000000  0.50000000  0.00000000       0.014
   0.16666667  0.50000000  0.00000000       0.028
   0.33333333  0.50000000  0.00000000       0.028
   0.50000000  0.50000000  0.00000000       0.014
   0.00000000  0.00000000  0.50000000       0.014
   0.16666667  0.00000000  0.50000000       0.028
   0.33333333  0.00000000  0.50000000       0.028
   0.50000000  0.00000000  0.50000000       0.014
   0.00000000  0.16666667  0.50000000       0.028
   0.16666667  0.16666667  0.50000000       0.028
   0.16666667 -0.16666667  0.50000000       0.028
   0.33333333  0.16666667  0.50000000       0.028
   0.33333333 -0.16666667  0.50000000       0.028
   0.50000000  0.16666667  0.50000000       0.028
   0.00000000  0.33333333  0.50000000       0.028
   0.16666667  0.33333333  0.50000000       0.028
   0.16666667 -0.33333333  0.50000000       0.028
   0.33333333  0.33333333  0.50000000       0.028
   0.33333333 -0.33333333  0.50000000       0.028
   0.50000000  0.33333333  0.50000000       0.028
   0.00000000  0.50000000  0.50000000       0.014
   0.16666667  0.50000000  0.50000000       0.028
   0.33333333  0.50000000  0.50000000       0.028
   0.50000000  0.50000000  0.50000000       0.014
 
 position of ions in fractional coordinates (direct lattice) 
   0.25000000  0.11385817  0.12928884
   0.75000000  0.61385817  0.37071116
   0.75000000  0.88614183  0.87071116
   0.25000000  0.38614183  0.62928884
   0.25000000  0.96460214  0.35087333
   0.75000000  0.46460214  0.14912667
   0.75000000  0.03539786  0.64912667
   0.25000000  0.53539786  0.85087333
 
 position of ions in cartesian coordinates  (Angst):
   1.05000000  0.53513342  1.44056484
   3.15000000  2.88513342  4.13054566
   3.15000000  4.16486658  9.70165616
   1.05000000  1.81486658  7.01167534
   1.05000000  4.53363008  3.90950814
   3.15000000  2.18363008  1.66160236
   3.15000000  0.16636992  7.23271286
   1.05000000  2.51636992  9.48061864
 


--------------------------------------------------------------------------------------------------------


 k-point   1 :   0.0000 0.0000 0.0000  plane waves:    3417
 k-point   2 :   0.1667 0.0000 0.0000  plane waves:    3435
 k-point   3 :   0.3333 0.0000 0.0000  plane waves:    3405
 k-point   4 :   0.5000 0.0000 0.0000  plane waves:    3400
 k-point   5 :   0.0000 0.1667 0.0000  plane waves:    3423
 k-point   6 :   0.1667 0.1667 0.0000  plane waves:    3422
 k-point   7 :   0.1667-0.1667 0.0000  plane waves:    3422
 k-point   8 :   0.3333 0.1667 0.0000  plane waves:    3402
 k-point   9 :   0.3333-0.1667 0.0000  plane waves:    3402
 k-point  10 :   0.5000 0.1667 0.0000  plane waves:    3398
 k-point  11 :   0.0000 0.3333 0.0000  plane waves:    3418
 k-point  12 :   0.1667 0.3333 0.0000  plane waves:    3412
 k-point  13 :   0.1667-0.3333 0.0000  plane waves:    3412
 k-point  14 :   0.3333 0.3333 0.0000  plane waves:    3400
 k-point  15 :   0.3333-0.3333 0.0000  plane waves:    3400
 k-point  16 :   0.5000 0.3333 0.0000  plane waves:    3392
 k-point  17 :   0.0000 0.5000 0.0000  plane waves:    3410
 k-point  18 :   0.1667 0.5000 0.0000  plane waves:    3420
 k-point  19 :   0.3333 0.5000 0.0000  plane waves:    3412
 k-point  20 :   0.5000 0.5000 0.0000  plane waves:    3392
 k-point  21 :   0.0000 0.0000 0.5000  plane waves:    3434
 k-point  22 :   0.1667 0.0000 0.5000  plane waves:    3414
 k-point  23 :   0.3333 0.0000 0.5000  plane waves:    3428
 k-point  24 :   0.5000 0.0000 0.5000  plane waves:    3400
 k-point  25 :   0.0000 0.1667 0.5000  plane waves:    3420
 k-point  26 :   0.1667 0.1667 0.5000  plane waves:    3428
 k-point  27 :   0.1667-0.1667 0.5000  plane waves:    3428
 k-point  28 :   0.3333 0.1667 0.5000  plane waves:    3406
 k-point  29 :   0.3333-0.1667 0.5000  plane waves:    3406
 k-point  30 :   0.5000 0.1667 0.5000  plane waves:    3376
 k-point  31 :   0.0000 0.3333 0.5000  plane waves:    3418
 k-point  32 :   0.1667 0.3333 0.5000  plane waves:    3414
 k-point  33 :   0.1667-0.3333 0.5000  plane waves:    3414
 k-point  34 :   0.3333 0.3333 0.5000  plane waves:    3414
 k-point  35 :   0.3333-0.3333 0.5000  plane waves:    3414
 k-point  36 :   0.5000 0.3333 0.5000  plane waves:    3396
 k-point  37 :   0.0000 0.5000 0.5000  plane waves:    3424
 k-point  38 :   0.1667 0.5000 0.5000  plane waves:    3408
 k-point  39 :   0.3333 0.5000 0.5000  plane waves:    3412
 k-point  40 :   0.5000 0.5000 0.5000  plane waves:    3400

 maximum and minimum number of plane-waves per node :       879      838

 maximum number of plane-waves:      3435
 maximum index in each direction: 
   IXMAX=    6   IYMAX=    7   IZMAX=   17
   IXMIN=   -6   IYMIN=   -7   IZMIN=  -17


 parallel 3D FFT for wavefunctions:
    minimum data exchange during FFTs selected (reduces bandwidth)
 parallel 3D FFT for charge:
    minimum data exchange during FFTs selected (reduces bandwidth)


 total amount of memory used by VASP MPI-rank0    39546. kBytes
=======================================================================

   base      :      30000. kBytes
   nonl-proj :       7434. kBytes
   fftplans  :        374. kBytes
   grid      :        555. kBytes
   one-center:         16. kBytes
   wavefun   :       1167. kBytes
 
     INWAV:  cpu time      0.0000: real time      0.0001
 Broyden mixing: mesh for mixing (old mesh)
   NGX = 13   NGY = 15   NGZ = 35
  (NGX  = 40   NGY  = 48   NGZ  =108)
  gives a total of   6825 points

 initial charge density was supplied:
 charge density of overlapping atoms calculated
 number of electron      40.0000000 magnetization 
 keeping initial charge density in first step


--------------------------------------------------------------------------------------------------------


 Maximum index for augmentation-charges            78 (set IRDMAX)


--------------------------------------------------------------------------------------------------------


 First call to EWALD:  gamma=   0.294
 Maximum number of real-space cells 4x 3x 2
 Maximum number of reciprocal cells 2x 2x 5

    FEWALD:  cpu time      0.0012: real time      0.0012


--------------------------------------- Ionic step        1  -------------------------------------------




--------------------------------------- Iteration      1(   1)  ---------------------------------------


    POTLOK:  cpu time      0.0070: real time      0.0073
    SETDIJ:  cpu time      0.1384: real time      0.1392
     EDDAV:  cpu time      0.2633: real time      0.2661
       DOS:  cpu time      0.0013: real time      0.0014
    --------------------------------------------
      LOOP:  cpu time      0.4100: real time      0.4140

 eigenvalue-minimisations  :  2560
 total energy-change (2. order) : 0.1336027E+03  (-0.1264191E+04)
 number of electron      40.0000000 magnetization 
 augmentation part       40.0000000 magnetization 

 Free energy of the ion-electron system (eV)
  ---------------------------------------------------
  alpha Z        PSCENC =        77.03861088
  Ewald energy   TEWEN  =     -1346.82680039
  -Hartree energ DENC   =      -154.85403890
  -exchange      EXHF   =         0.00000000
  -V(xc)+E(xc)   XCENC  =       -34.83531633
  PAW double counting   =      1193.78262552    -1080.73714043
  entropy T*S    EENTRO =        -0.00327770
  eigenvalues    EBANDS =        31.55341725
  atomic energy  EATOM  =      1448.48460880
  Solvation  Ediel_sol  =         0.00000000
  ---------------------------------------------------
  free energy    TOTEN  =       133.60268870 eV

  energy without entropy =      133.60596640  energy(sigma->0) =      133.60432755


--------------------------------------------------------------------------------------------------------




--------------------------------------- Iteration      1(   2)  ---------------------------------------


     EDDAV:  cpu time      0.3393: real time      0.3427
       DOS:  cpu time      0.0005: real time      0.0005
    --------------------------------------------
      LOOP:  cpu time      0.3399: real time      0.3432

 eigenvalue-minimisations  :  3744
 total energy-change (2. order) :-0.1580185E+03  (-0.1533270E+03)
 number of electron      40.0000000 magnetization 
 augmentation part       40.0000000 magnetization 

 Free energy of the ion-electron system (eV)
  ---------------------------------------------------
  alpha Z        PSCENC =        77.03861088
  Ewald energy   TEWEN  =     -1346.82680039
  -Hartree energ DENC   =      -154.85403890
  -exchange      EXHF   =         0.00000000
  -V(xc)+E(xc)   XCENC  =       -34.83531633
  PAW double counting   =      1193.78262552    -1080.73714043
  entropy T*S    EENTRO =        -0.00000000
  eigenvalues    EBANDS =      -126.46838687
  atomic energy  EATOM  =      1448.48460880
  Solvation  Ediel_sol  =         0.00000000
  ---------------------------------------------------
  free energy    TOTEN  =       -24.41583772 eV

  energy without entropy =      -24.41583772  energy(sigma->0) =      -24.41583772


--------------------------------------------------------------------------------------------------------




--------------------------------------- Iteration      1(   3)  ---------------------------------------


     EDDAV:  cpu time      0.3148: real time      0.3185
       DOS:  cpu time      0.0006: real time      0.0006
    --------------------------------------------
      LOOP:  cpu time      0.3153: real time      0.3190

 eigenvalue-minimisations  :  3216
 total energy-change (2. order) :-0.9546184E+01  (-0.9522317E+01)
 number of electron      40.0000000 magnetization 
 augmentation part       40.0000000 magnetization 

 Free energy of the ion-electron system (eV)
  ---------------------------------------------------
  alpha Z        PSCENC =        77.03861088
  Ewald energy   TEWEN  =     -1346.82680039
  -Hartree energ DENC   =      -154.85403890
  -exchange      EXHF   =         0.00000000
  -V(xc)+E(xc)   XCENC  =       -34.83531633
  PAW double counting   =      1193.78262552    -1080.73714043
  entropy T*S    EENTRO =        -0.00000000
  eigenvalues    EBANDS =      -136.01457105
  atomic energy  EATOM  =      1448.48460880
  Solvation  Ediel_sol  =         0.00000000
  ---------------------------------------------------
  free energy    TOTEN  =       -33.96202190 eV

  energy without entropy =      -33.96202190  energy(sigma->0) =      -33.96202190


--------------------------------------------------------------------------------------------------------




--------------------------------------- Iteration      1(   4)  ---------------------------------------


     EDDAV:  cpu time      0.3004: real time      0.3036
       DOS:  cpu time      0.0006: real time      0.0006
    --------------------------------------------
      LOOP:  cpu time      0.3010: real time      0.3042

 eigenvalue-minimisations  :  3088
 total energy-change (2. order) :-0.7218716E-01  (-0.7218060E-01)
 number of electron      40.0000000 magnetization 
 augmentation part       40.0000000 magnetization 

 Free energy of the ion-electron system (eV)
  ---------------------------------------------------
  alpha Z        PSCENC =        77.03861088
  Ewald energy   TEWEN  =     -1346.82680039
  -Hartree energ DENC   =      -154.85403890
  -exchange      EXHF   =         0.00000000
  -V(xc)+E(xc)   XCENC  =       -34.83531633
  PAW double counting   =      1193.78262552    -1080.73714043
  entropy T*S    EENTRO =        -0.00000000
  eigenvalues    EBANDS =      -136.08675821
  atomic energy  EATOM  =      1448.48460880
  Solvation  Ediel_sol  =         0.00000000
  ---------------------------------------------------
  free energy    TOTEN  =       -34.03420906 eV

  energy without entropy =      -34.03420906  energy(sigma->0) =      -34.03420906


--------------------------------------------------------------------------------------------------------




--------------------------------------- Iteration      1(   5)  ---------------------------------------


     EDDAV:  cpu time      0.3095: real time      0.3128
       DOS:  cpu time      0.0005: real time      0.0005
    CHARGE:  cpu time      0.0048: real time      0.0048
    MIXING:  cpu time      0.0007: real time      0.0007
    --------------------------------------------
      LOOP:  cpu time      0.3155: real time      0.3189

 eigenvalue-minimisations  :  3248
 total energy-change (2. order) :-0.4727171E-03  (-0.4727151E-03)
 number of electron      39.9999963 magnetization 
 augmentation part       -7.4116101 magnetization 

 Broyden mixing:
  rms(total) = 0.60878E+00    rms(broyden)= 0.60876E+00
  rms(prec ) = 0.72447E+00
  weight for this iteration     100.00

 Free energy of the ion-electron system (eV)
  ---------------------------------------------------
  alpha Z        PSCENC =        77.03861088
  Ewald energy   TEWEN  =     -1346.82680039
  -Hartree energ DENC   =      -154.85403890
  -exchange      EXHF   =         0.00000000
  -V(xc)+E(xc)   XCENC  =       -34.83531633
  PAW double counting   =      1193.78262552    -1080.73714043
  entropy T*S    EENTRO =        -0.00000000
  eigenvalues    EBANDS =      -136.08723093
  atomic energy  EATOM  =      1448.48460880
  Solvation  Ediel_sol  =         0.00000000
  ---------------------------------------------------
  free energy    TOTEN  =       -34.03468178 eV

  energy without entropy =      -34.03468178  energy(sigma->0) =      -34.03468178


--------------------------------------------------------------------------------------------------------




--------------------------------------- Iteration      1(   6)  ---------------------------------------


    POTLOK:  cpu time      0.0058: real time      0.0060
    SETDIJ:  cpu time      0.1371: real time      0.1378
     EDDAV:  cpu time      0.3129: real time      0.3163
       DOS:  cpu time      0.0006: real time      0.0006
    CHARGE:  cpu time      0.0049: real time      0.0049
    MIXING:  cpu time      0.0006: real time      0.0006
    --------------------------------------------
      LOOP:  cpu time      0.4618: real time      0.4662

 eigenvalue-minimisations  :  2944
 total energy-change (2. order) : 0.5359244E+00  (-0.1199688E+00)
 number of electron      39.9999963 magnetization 
 augmentation part       -7.3398464 magnetization 

 Broyden mixing:
  rms(total) = 0.37714E+00    rms(broyden)= 0.37713E+00
  rms(prec ) = 0.40261E+00
  weight for this iteration     100.00

 eigenvalues of (default mixing * dielectric matrix)
  average eigenvalue GAMMA=   1.9054
  1.9054

 Free energy of the ion-electron system (eV)
  ---------------------------------------------------
  alpha Z        PSCENC =        77.03861088
  Ewald energy   TEWEN  =     -1346.82680039
  -Hartree energ DENC   =      -161.96765968
  -exchange      EXHF   =         0.00000000
  -V(xc)+E(xc)   XCENC  =       -34.17131713
  PAW double counting   =      1426.11444462    -1313.35464731
  entropy T*S    EENTRO =        -0.00000000
  eigenvalues    EBANDS =      -128.81599712
  atomic energy  EATOM  =      1448.48460880
  Solvation  Ediel_sol  =         0.00000000
  ---------------------------------------------------
  free energy    TOTEN  =       -33.49875734 eV

  energy without entropy =      -33.49875734  energy(sigma->0) =      -33.49875734


--------------------------------------------------------------------------------------------------------




--------------------------------------- Iteration      1(   7)  ---------------------------------------


    POTLOK:  cpu time      0.0056: real time      0.0058
    SETDIJ:  cpu time      0.1372: real time      0.1380
     EDDAV:  cpu time      0.2859: real time      0.2888
       DOS:  cpu time      0.0006: real time      0.0006
    CHARGE:  cpu time      0.0046: real time      0.0046
    MIXING:  cpu time      0.0005: real time      0.0005
    --------------------------------------------
      LOOP:  cpu time      0.4344: real time      0.4384

 eigenvalue-minimisations  :  2960
 total energy-change (2. order) : 0.9145186E-02  (-0.2641370E-01)
 number of electron      39.9999963 magnetization 
 augmentation part       -7.3332495 magnetization 

 Broyden mixing:
  rms(total) = 0.15709E+00    rms(broyden)= 0.15709E+00
  rms(prec ) = 0.16775E+00
  weight for this iteration     100.00

 eigenvalues of (default mixing * dielectric matrix)
  average eigenvalue GAMMA=   1.7728
  1.1632  2.3823

 Free energy of the ion-electron system (eV)
  ---------------------------------------------------
  alpha Z        PSCENC =        77.03861088
  Ewald energy   TEWEN  =     -1346.82680039
  -Hartree energ DENC   =      -164.16743386
  -exchange      EXHF   =         0.00000000
  -V(xc)+E(xc)   XCENC  =       -33.77629624
  PAW double counting   =      1667.15099022    -1554.54187907
  entropy T*S    EENTRO =        -0.00000000
  eigenvalues    EBANDS =      -126.85141250
  atomic energy  EATOM  =      1448.48460880
  Solvation  Ediel_sol  =         0.00000000
  ---------------------------------------------------
  free energy    TOTEN  =       -33.48961215 eV

  energy without entropy =      -33.48961215  energy(sigma->0) =      -33.48961215


--------------------------------------------------------------------------------------------------------




--------------------------------------- Iteration      1(   8)  ---------------------------------------


    POTLOK:  cpu time      0.0056: real time      0.0058
    SETDIJ:  cpu time      0.1370: real time      0.1377
     EDDAV:  cpu time      0.2866: real time      0.2895
       DOS:  cpu time      0.0006: real time      0.0006
    CHARGE:  cpu time      0.0049: real time      0.0052
    MIXING:  cpu time      0.0005: real time      0.0006
    --------------------------------------------
      LOOP:  cpu time      0.4352: real time      0.4394

 eigenvalue-minimisations  :  2928
 total energy-change (2. order) : 0.1121020E-03  (-0.2643062E-02)
 number of electron      39.9999963 magnetization 
 augmentation part       -7.3439741 magnetization 

 Broyden mixing:
  rms(total) = 0.18063E-01    rms(broyden)= 0.18063E-01
  rms(prec ) = 0.24205E-01
  weight for this iteration     100.00

 eigenvalues of (default mixing * dielectric matrix)
  average eigenvalue GAMMA=   1.6165
  2.4380  1.2057  1.2057

 Free energy of the ion-electron system (eV)
  ---------------------------------------------------
  alpha Z        PSCENC =        77.03861088
  Ewald energy   TEWEN  =     -1346.82680039
  -Hartree energ DENC   =      -164.51299102
  -exchange      EXHF   =         0.00000000
  -V(xc)+E(xc)   XCENC  =       -33.58525736
  PAW double counting   =      1826.01221107    -1713.46153777
  entropy T*S    EENTRO =        -0.00000000
  eigenvalues    EBANDS =      -126.63834426
  atomic energy  EATOM  =      1448.48460880
  Solvation  Ediel_sol  =         0.00000000
  ---------------------------------------------------
  free energy    TOTEN  =       -33.48950005 eV

  energy without entropy =      -33.48950005  energy(sigma->0) =      -33.48950005


--------------------------------------------------------------------------------------------------------




--------------------------------------- Iteration      1(   9)  ---------------------------------------


    POTLOK:  cpu time      0.0056: real time      0.0058
    SETDIJ:  cpu time      0.1368: real time      0.1376
     EDDAV:  cpu time      0.2926: real time      0.2953
       DOS:  cpu time      0.0004: real time      0.0004
    CHARGE:  cpu time      0.0039: real time      0.0039
    MIXING:  cpu time      0.0003: real time      0.0003
    --------------------------------------------
      LOOP:  cpu time      0.4396: real time      0.4434

 eigenvalue-minimisations  :  3184
 total energy-change (2. order) :-0.1518561E-05  (-0.4881291E-03)
 number of electron      39.9999963 magnetization 
 augmentation part       -7.3404853 magnetization 

 Broyden mixing:
  rms(total) = 0.73310E-02    rms(broyden)= 0.73310E-02
  rms(prec ) = 0.87234E-02
  weight for this iteration     100.00

 eigenvalues of (default mixing * dielectric matrix)
  average eigenvalue GAMMA=   1.7508
  2.3705  2.3705  1.1312  1.1312

 Free energy of the ion-electron system (eV)
  ---------------------------------------------------
  alpha Z        PSCENC =        77.03861088
  Ewald energy   TEWEN  =     -1346.82680039
  -Hartree energ DENC   =      -164.98782541
  -exchange      EXHF   =         0.00000000
  -V(xc)+E(xc)   XCENC  =       -33.54423988
  PAW double counting   =      1834.56974657    -1722.02699560
  entropy T*S    EENTRO =        -0.00000000
  eigenvalues    EBANDS =      -126.19660654
  atomic energy  EATOM  =      1448.48460880
  Solvation  Ediel_sol  =         0.00000000
  ---------------------------------------------------
  free energy    TOTEN  =       -33.48950157 eV

  energy without entropy =      -33.48950157  energy(sigma->0) =      -33.48950157


--------------------------------------------------------------------------------------------------------




--------------------------------------- Iteration      1(  10)  ---------------------------------------


    POTLOK:  cpu time      0.0040: real time      0.0041
    SETDIJ:  cpu time      0.1369: real time      0.1373
     EDDAV:  cpu time      0.1864: real time      0.1873
       DOS:  cpu time      0.0003: real time      0.0003
    CHARGE:  cpu time      0.0037: real time      0.0037
    MIXING:  cpu time      0.0003: real time      0.0003
    --------------------------------------------
      LOOP:  cpu time      0.3316: real time      0.3331

 eigenvalue-minimisations  :  2848
 total energy-change (2. order) :-0.1811185E-03  (-0.5501529E-04)
 number of electron      39.9999963 magnetization 
 augmentation part       -7.3401650 magnetization 

 Broyden mixing:
  rms(total) = 0.24170E-02    rms(broyden)= 0.24169E-02
  rms(prec ) = 0.30024E-02
  weight for this iteration     100.00

 eigenvalues of (default mixing * dielectric matrix)
  average eigenvalue GAMMA=   1.7292
  2.7363  2.5872  0.9978  1.1623  1.1623

 Free energy of the ion-electron system (eV)
  ---------------------------------------------------
  alpha Z        PSCENC =        77.03861088
  Ewald energy   TEWEN  =     -1346.82680039
  -Hartree energ DENC   =      -165.06630296
  -exchange      EXHF   =         0.00000000
  -V(xc)+E(xc)   XCENC  =       -33.53656827
  PAW double counting   =      1829.59679964    -1717.05000706
  entropy T*S    EENTRO =        -0.00000000
  eigenvalues    EBANDS =      -126.13002333
  atomic energy  EATOM  =      1448.48460880
  Solvation  Ediel_sol  =         0.00000000
  ---------------------------------------------------
  free energy    TOTEN  =       -33.48968269 eV

  energy without entropy =      -33.48968269  energy(sigma->0) =      -33.48968269


--------------------------------------------------------------------------------------------------------




--------------------------------------- Iteration      1(  11)  ---------------------------------------


    POTLOK:  cpu time      0.0039: real time      0.0040
    SETDIJ:  cpu time      0.1368: real time      0.1373
     EDDAV:  cpu time      0.2031: real time      0.2044
       DOS:  cpu time      0.0003: real time      0.0003
    CHARGE:  cpu time      0.0040: real time      0.0040
    MIXING:  cpu time      0.0004: real time      0.0004
    --------------------------------------------
      LOOP:  cpu time      0.3485: real time      0.3503

 eigenvalue-minimisations  :  2896
 total energy-change (2. order) :-0.2783014E-04  (-0.4952356E-05)
 number of electron      39.9999963 magnetization 
 augmentation part       -7.3404893 magnetization 

 Broyden mixing:
  rms(total) = 0.13988E-02    rms(broyden)= 0.13988E-02
  rms(prec ) = 0.16644E-02
  weight for this iteration     100.00

 eigenvalues of (default mixing * dielectric matrix)
  average eigenvalue GAMMA=   1.7491
  2.7069  2.7069  1.7971  1.1051  1.1051  1.0736

 Free energy of the ion-electron system (eV)
  ---------------------------------------------------
  alpha Z        PSCENC =        77.03861088
  Ewald energy   TEWEN  =     -1346.82680039
  -Hartree energ DENC   =      -165.08685160
  -exchange      EXHF   =         0.00000000
  -V(xc)+E(xc)   XCENC  =       -33.53171469
  PAW double counting   =      1830.02179237    -1717.47468826
  entropy T*S    EENTRO =        -0.00000000
  eigenvalues    EBANDS =      -126.11466763
  atomic energy  EATOM  =      1448.48460880
  Solvation  Ediel_sol  =         0.00000000
  ---------------------------------------------------
  free energy    TOTEN  =       -33.48971052 eV

  energy without entropy =      -33.48971052  energy(sigma->0) =      -33.48971052


--------------------------------------------------------------------------------------------------------




--------------------------------------- Iteration      1(  12)  ---------------------------------------


    POTLOK:  cpu time      0.0039: real time      0.0041
    SETDIJ:  cpu time      0.1127: real time      0.1130
     EDDAV:  cpu time      0.1947: real time      0.1956
       DOS:  cpu time      0.0003: real time      0.0003
    CHARGE:  cpu time      0.0033: real time      0.0033
    MIXING:  cpu time      0.0003: real time      0.0003
    --------------------------------------------
      LOOP:  cpu time      0.3152: real time      0.3167

 eigenvalue-minimisations  :  3152
 total energy-change (2. order) :-0.6528636E-06  (-0.1165239E-05)
 number of electron      39.9999963 magnetization 
 augmentation part       -7.3404503 magnetization 

 Broyden mixing:
  rms(total) = 0.33275E-03    rms(broyden)= 0.33274E-03
  rms(prec ) = 0.36616E-03
  weight for this iteration     100.00

 eigenvalues of (default mixing * dielectric matrix)
  average eigenvalue GAMMA=   1.6678
  2.8964  2.3999  1.9290  0.9928  1.2377  1.1094  1.1094

 Free energy of the ion-electron system (eV)
  ---------------------------------------------------
  alpha Z        PSCENC =        77.03861088
  Ewald energy   TEWEN  =     -1346.82680039
  -Hartree energ DENC   =      -165.10293119
  -exchange      EXHF   =         0.00000000
  -V(xc)+E(xc)   XCENC  =       -33.52985307
  PAW double counting   =      1829.27273162    -1716.72530879
  entropy T*S    EENTRO =        -0.00000000
  eigenvalues    EBANDS =      -126.10076904
  atomic energy  EATOM  =      1448.48460880
  Solvation  Ediel_sol  =         0.00000000
  ---------------------------------------------------
  free energy    TOTEN  =       -33.48971117 eV

  energy without entropy =      -33.48971117  energy(sigma->0) =      -33.48971117


--------------------------------------------------------------------------------------------------------




--------------------------------------- Iteration      1(  13)  ---------------------------------------


    POTLOK:  cpu time      0.0036: real time      0.0037
    SETDIJ:  cpu time      0.1098: real time      0.1102
     EDDAV:  cpu time      0.1514: real time      0.1521
       DOS:  cpu time      0.0004: real time      0.0004
    --------------------------------------------
      LOOP:  cpu time      0.2652: real time      0.2664

 eigenvalue-minimisations  :  2016
 total energy-change (2. order) :-0.8088034E-06  (-0.1345495E-06)
 number of electron      39.9999963 magnetization 
 augmentation part       -7.3404503 magnetization 

 Free energy of the ion-electron system (eV)
  ---------------------------------------------------
  alpha Z        PSCENC =        77.03861088
  Ewald energy   TEWEN  =     -1346.82680039
  -Hartree energ DENC   =      -165.10580083
  -exchange      EXHF   =         0.00000000
  -V(xc)+E(xc)   XCENC  =       -33.52937428
  PAW double counting   =      1829.60804708    -1717.06072841
  entropy T*S    EENTRO =        -0.00000000
  eigenvalues    EBANDS =      -126.09827483
  atomic energy  EATOM  =      1448.48460880
  Solvation  Ediel_sol  =         0.00000000
  ---------------------------------------------------
  free energy    TOTEN  =       -33.48971198 eV

  energy without entropy =      -33.48971198  energy(sigma->0) =      -33.48971198


--------------------------------------------------------------------------------------------------------




 average (electrostatic) potential at core
  the test charge radii are     1.1631  1.0808
  (the norm of the test charge is              1.0000)
       1 -34.5617       2 -34.5617       3 -34.5617       4 -34.5617       5 -55.8445
       6 -55.8445       7 -55.8445       8 -55.8445
 
 
 
 E-fermi :   2.1091     XC(G=0):  -8.7182     alpha+bet : -7.6748

 Fermi energy:         2.1090744602

 k-point     1 :       0.0000    0.0000    0.0000
  band No.  band energies     occupation 
      1     -11.4284      2.00000
      2     -11.1910      2.00000
      3     -10.2552      2.00000
      4      -9.9398      2.00000
      5      -5.7510      2.00000
      6      -5.2802      2.00000
      7      -3.6858      2.00000
      8      -3.4886      2.00000
      9      -2.2248      2.00000
     10      -1.0982      2.00000
     11      -0.8509      2.00000
     12      -0.7969      2.00000
     13      -0.7695      2.00000
     14      -0.4288      2.00000
     15       0.1705      2.00000
     16       0.6644      2.00000
     17       1.0677      2.00000
     18       1.6201      2.00000
     19       1.7429      2.00000
     20       1.8840      2.00000
     21       3.6687      0.00000
     22       4.0491      0.00000
     23       4.0966      0.00000
     24       4.4367      0.00000
     25       4.6208      0.00000
     26       5.1495      0.00000
     27       5.3925      0.00000
     28       5.6739      0.00000
     29       6.7118      0.00000
     30       6.8863      0.00000
     31       7.5136      0.00000
     32       7.6699      0.00000

 k-point     2 :       0.1667    0.0000    0.0000
  band No.  band energies     occupation 
      1     -11.2856      2.00000
      2     -11.0617      2.00000
      3     -10.2040      2.00000
      4      -9.9382      2.00000
      5      -5.8907      2.00000
      6      -5.4579      2.00000
      7      -4.0402      2.00000
      8      -4.0032      2.00000
      9      -2.0584      2.00000
     10      -1.2016      2.00000
     11      -0.9442      2.00000
     12      -0.7254      2.00000
     13      -0.5830      2.00000
     14      -0.2811      2.00000
     15       0.3470      2.00000
     16       0.3772      2.00000
     17       1.1114      2.00000
     18       1.5748      2.00000
     19       1.7533      2.00000
     20       1.7734      2.00000
     21       3.8011      0.00000
     22       4.2294      0.00000
     23       4.4474      0.00000
     24       4.7081      0.00000
     25       4.7748      0.00000
     26       4.9518      0.00000
     27       5.1452      0.00000
     28       5.5083      0.00000
     29       5.9536      0.00000
     30       6.7243      0.00000
     31       6.8923      0.00000
     32       7.4962      0.00000

 k-point     3 :       0.3333    0.0000    0.0000
  band No.  band energies     occupation 
      1     -10.8965      2.00000
      2     -10.7218      2.00000
      3     -10.1579      2.00000
      4     -10.0409      2.00000
      5      -6.1004      2.00000
      6      -5.6929      2.00000
      7      -5.0860      2.00000
      8      -4.7672      2.00000
      9      -1.6012      2.00000
     10      -1.1182      2.00000
     11      -0.8909      2.00000
     12      -0.4556      2.00000
     13      -0.0932      2.00000
     14      -0.0826      2.00000
     15       0.2070      2.00000
     16       0.6023      2.00000
     17       0.9600      2.00000
     18       1.2201      2.00000
     19       1.3660      2.00000
     20       1.4435      2.00000
     21       3.4404      0.00000
     22       3.8255      0.00000
     23       4.1115      0.00000
     24       4.5276      0.00000
     25       4.6121      0.00000
     26       4.9444      0.00000
     27       5.0263      0.00000
     28       5.5933      0.00000
     29       6.0051      0.00000
     30       6.1556      0.00000
     31       6.5409      0.00000
     32       7.1741      0.00000

 k-point     4 :       0.5000    0.0000    0.0000
  band No.  band energies     occupation 
      1     -10.4007      2.00000
      2     -10.4007      2.00000
      3     -10.3381      2.00000
      4     -10.3381      2.00000
      5      -5.8883      2.00000
      6      -5.8883      2.00000
      7      -5.4724      2.00000
      8      -5.4724      2.00000
      9      -1.0996      2.00000
     10      -1.0996      2.00000
     11      -0.5096      2.00000
     12      -0.5096      2.00000
     13       0.0287      2.00000
     14       0.0287      2.00000
     15       0.4829      2.00000
     16       0.4829      2.00000
     17       0.8680      2.00000
     18       0.8680      2.00000
     19       1.1082      2.00000
     20       1.1082      2.00000
     21       3.4426      0.00000
     22       3.4426      0.00000
     23       4.0864      0.00000
     24       4.0864      0.00000
     25       4.6813      0.00000
     26       4.6813      0.00000
     27       4.9823      0.00000
     28       4.9823      0.00000
     29       6.0655      0.00000
     30       6.0655      0.00000
     31       6.5981      0.00000
     32       6.5981      0.00000

 k-point     5 :       0.0000    0.1667    0.0000
  band No.  band energies     occupation 
      1     -11.3354      2.00000
      2     -11.1048      2.00000
      3     -10.2968      2.00000
      4     -10.0120      2.00000
      5      -5.8526      2.00000
      6      -5.2539      2.00000
      7      -4.1546      2.00000
      8      -3.7460      2.00000
      9      -2.0292      2.00000
     10      -0.9752      2.00000
     11      -0.6600      2.00000
     12      -0.6463      2.00000
     13      -0.4322      2.00000
     14      -0.1931      2.00000
     15       0.1764      2.00000
     16       0.6055      2.00000
     17       1.2038      2.00000
     18       1.2475      2.00000
     19       1.8000      2.00000
     20       1.8666      2.00000
     21       3.6050      0.00000
     22       3.7643      0.00000
     23       4.0902      0.00000
     24       4.2070      0.00000
     25       4.6194      0.00000
     26       4.8287      0.00000
     27       5.4587      0.00000
     28       5.7645      0.00000
     29       6.1712      0.00000
     30       6.8630      0.00000
     31       7.0543      0.00000
     32       7.4098      0.00000

 k-point     6 :       0.1667    0.1667    0.0000
  band No.  band energies     occupation 
      1     -11.1979      2.00000
      2     -10.9813      2.00000
      3     -10.2423      2.00000
      4      -9.9996      2.00000
      5      -5.9306      2.00000
      6      -5.3903      2.00000
      7      -4.3572      2.00000
      8      -4.1414      2.00000
      9      -1.9018      2.00000
     10      -1.5217      2.00000
     11      -1.1995      2.00000
     12      -0.6363      2.00000
     13       0.0019      2.00000
     14       0.0346      2.00000
     15       0.1753      2.00000
     16       0.3245      2.00000
     17       1.2217      2.00000
     18       1.2836      2.00000
     19       1.7070      2.00000
     20       1.7694      2.00000
     21       3.8323      0.00000
     22       3.9706      0.00000
     23       4.2918      0.00000
     24       4.3545      0.00000
     25       4.8448      0.00000
     26       4.8994      0.00000
     27       5.5120      0.00000
     28       5.6911      0.00000
     29       6.1062      0.00000
     30       6.6191      0.00000
     31       6.6246      0.00000
     32       7.4370      0.00000

 k-point     7 :       0.1667   -0.1667    0.0000
  band No.  band energies     occupation 
      1     -11.1979      2.00000
      2     -10.9813      2.00000
      3     -10.2423      2.00000
      4      -9.9996      2.00000
      5      -5.9306      2.00000
      6      -5.3903      2.00000
      7      -4.3572      2.00000
      8      -4.1414      2.00000
      9      -1.9018      2.00000
     10      -1.5217      2.00000
     11      -1.1995      2.00000
     12      -0.6363      2.00000
     13       0.0019      2.00000
     14       0.0346      2.00000
     15       0.1753      2.00000
     16       0.3245      2.00000
     17       1.2217      2.00000
     18       1.2836      2.00000
     19       1.7070      2.00000
     20       1.7694      2.00000
     21       3.8323      0.00000
     22       3.9706      0.00000
     23       4.2918      0.00000
     24       4.3545      0.00000
     25       4.8448      0.00000
     26       4.8994      0.00000
     27       5.5120      0.00000
     28       5.6911      0.00000
     29       6.1062      0.00000
     30       6.6191      0.00000
     31       6.6246      0.00000
     32       7.4370      0.00000

 k-point     8 :       0.3333    0.1667    0.0000
  band No.  band energies     occupation 
      1     -10.8276      2.00000
      2     -10.6616      2.00000
      3     -10.1783      2.00000
      4     -10.0649      2.00000
      5      -6.0444      2.00000
      6      -5.6142      2.00000
      7      -5.0932      2.00000
      8      -4.8655      2.00000
      9      -1.6436      2.00000
     10      -1.5199      2.00000
     11      -1.3242      2.00000
     12      -0.7307      2.00000
     13      -0.1305      2.00000
     14       0.0742      2.00000
     15       0.1338      2.00000
     16       0.3856      2.00000
     17       0.6832      2.00000
     18       1.2730      2.00000
     19       1.4053      2.00000
     20       1.4275      2.00000
     21       3.4666      0.00000
     22       4.0967      0.00000
     23       4.1806      0.00000
     24       4.5766      0.00000
     25       5.2432      0.00000
     26       5.3094      0.00000
     27       5.4314      0.00000
     28       6.0255      0.00000
     29       6.1553      0.00000
     30       6.3897      0.00000
     31       6.9313      0.00000
     32       7.0286      0.00000

 k-point     9 :       0.3333   -0.1667    0.0000
  band No.  band energies     occupation 
      1     -10.8276      2.00000
      2     -10.6616      2.00000
      3     -10.1783      2.00000
      4     -10.0649      2.00000
      5      -6.0444      2.00000
      6      -5.6142      2.00000
      7      -5.0932      2.00000
      8      -4.8655      2.00000
      9      -1.6436      2.00000
     10      -1.5199      2.00000
     11      -1.3242      2.00000
     12      -0.7307      2.00000
     13      -0.1305      2.00000
     14       0.0742      2.00000
     15       0.1338      2.00000
     16       0.3856      2.00000
     17       0.6832      2.00000
     18       1.2730      2.00000
     19       1.4053      2.00000
     20       1.4275      2.00000
     21       3.4666      0.00000
     22       4.0967      0.00000
     23       4.1806      0.00000
     24       4.5766      0.00000
     25       5.2432      0.00000
     26       5.3094      0.00000
     27       5.4314      0.00000
     28       6.0255      0.00000
     29       6.1553      0.00000
     30       6.3897      0.00000
     31       6.9313      0.00000
     32       7.0286      0.00000

 k-point    10 :       0.5000    0.1667    0.0000
  band No.  band energies     occupation 
      1     -10.3713      2.00000
      2     -10.3713      2.00000
      3     -10.3166      2.00000
      4     -10.3166      2.00000
      5      -5.8193      2.00000
      6      -5.8193      2.00000
      7      -5.4626      2.00000
      8      -5.4626      2.00000
      9      -1.3106      2.00000
     10      -1.3106      2.00000
     11      -0.8641      2.00000
     12      -0.8641      2.00000
     13      -0.4164      2.00000
     14      -0.4164      2.00000
     15       0.0890      2.00000
     16       0.0890      2.00000
     17       0.8858      2.00000
     18       0.8858      2.00000
     19       1.4288      2.00000
     20       1.4288      2.00000
     21       3.4500      0.00000
     22       3.4500      0.00000
     23       4.5437      0.00000
     24       4.5437      0.00000
     25       5.3886      0.00000
     26       5.3886      0.00000
     27       5.7391      0.00000
     28       5.7391      0.00000
     29       6.3756      0.00000
     30       6.3756      0.00000
     31       6.4204      0.00000
     32       6.4204      0.00000

 k-point    11 :       0.0000    0.3333    0.0000
  band No.  band energies     occupation 
      1     -11.0806      2.00000
      2     -10.8681      2.00000
      3     -10.4529      2.00000
      4     -10.2280      2.00000
      5      -5.8993      2.00000
      6      -5.1473      2.00000
      7      -4.9653      2.00000
      8      -4.3077      2.00000
      9      -1.5477      2.00000
     10      -0.6356      2.00000
     11      -0.3894      2.00000
     12      -0.3644      2.00000
     13       0.1089      2.00000
     14       0.2789      2.00000
     15       0.2874      2.00000
     16       0.3831      2.00000
     17       0.7676      2.00000
     18       1.3902      2.00000
     19       1.5127      2.00000
     20       1.8936      2.00000
     21       2.9789      0.00000
     22       3.6565      0.00000
     23       3.7262      0.00000
     24       4.2705      0.00000
     25       4.4359      0.00000
     26       4.5744      0.00000
     27       5.2153      0.00000
     28       5.2255      0.00000
     29       6.0606      0.00000
     30       6.1627      0.00000
     31       6.6212      0.00000
     32       7.6192      0.00000

 k-point    12 :       0.1667    0.3333    0.0000
  band No.  band energies     occupation 
      1     -10.9595      2.00000
      2     -10.7621      2.00000
      3     -10.3844      2.00000
      4     -10.1864      2.00000
      5      -5.8937      2.00000
      6      -5.2152      2.00000
      7      -5.0070      2.00000
      8      -4.5008      2.00000
      9      -1.6099      2.00000
     10      -1.4759      2.00000
     11      -1.2300      2.00000
     12      -0.7359      2.00000
     13      -0.4188      2.00000
     14       0.0603      2.00000
     15       0.3874      2.00000
     16       0.7233      2.00000
     17       1.1645      2.00000
     18       1.2278      2.00000
     19       1.5601      2.00000
     20       1.7369      2.00000
     21       3.5608      0.00000
     22       3.9863      0.00000
     23       4.0387      0.00000
     24       4.1082      0.00000
     25       4.7950      0.00000
     26       5.2599      0.00000
     27       5.3869      0.00000
     28       5.9213      0.00000
     29       6.1661      0.00000
     30       6.5473      0.00000
     31       6.5873      0.00000
     32       7.3891      0.00000

 k-point    13 :       0.1667   -0.3333    0.0000
  band No.  band energies     occupation 
      1     -10.9595      2.00000
      2     -10.7621      2.00000
      3     -10.3844      2.00000
      4     -10.1864      2.00000
      5      -5.8937      2.00000
      6      -5.2152      2.00000
      7      -5.0070      2.00000
      8      -4.5008      2.00000
      9      -1.6099      2.00000
     10      -1.4759      2.00000
     11      -1.2300      2.00000
     12      -0.7359      2.00000
     13      -0.4188      2.00000
     14       0.0603      2.00000
     15       0.3874      2.00000
     16       0.7233      2.00000
     17       1.1645      2.00000
     18       1.2278      2.00000
     19       1.5601      2.00000
     20       1.7369      2.00000
     21       3.5608      0.00000
     22       3.9863      0.00000
     23       4.0387      0.00000
     24       4.1082      0.00000
     25       4.7950      0.00000
     26       5.2599      0.00000
     27       5.3869      0.00000
     28       5.9213      0.00000
     29       6.1661      0.00000
     30       6.5473      0.00000
     31       6.5873      0.00000
     32       7.3891      0.00000

 k-point    14 :       0.3333    0.3333    0.0000
  band No.  band energies     occupation 
      1     -10.6470      2.00000
      2     -10.5041      2.00000
      3     -10.2599      2.00000
      4     -10.1516      2.00000
      5      -5.8735      2.00000
      6      -5.4172      2.00000
      7      -5.2425      2.00000
      8      -5.0457      2.00000
      9      -2.0955      2.00000
     10      -1.6430      2.00000
     11      -1.5135      2.00000
     12      -1.2132      2.00000
     13      -0.7372      2.00000
     14      -0.2801      2.00000
     15      -0.2750      2.00000
     16       0.3908      2.00000
     17       0.4303      2.00000
     18       1.1257      2.00000
     19       1.4291      2.00000
     20       1.4849      2.00000
     21       3.5246      0.00000
     22       4.6709      0.00000
     23       5.1550      0.00000
     24       5.4741      0.00000
     25       5.6306      0.00000
     26       5.7779      0.00000
     27       6.0464      0.00000
     28       6.2484      0.00000
     29       6.5091      0.00000
     30       6.9729      0.00000
     31       6.9872      0.00000
     32       7.5477      0.00000

 k-point    15 :       0.3333   -0.3333    0.0000
  band No.  band energies     occupation 
      1     -10.6470      2.00000
      2     -10.5041      2.00000
      3     -10.2599      2.00000
      4     -10.1516      2.00000
      5      -5.8735      2.00000
      6      -5.4172      2.00000
      7      -5.2425      2.00000
      8      -5.0457      2.00000
      9      -2.0955      2.00000
     10      -1.6430      2.00000
     11      -1.5135      2.00000
     12      -1.2132      2.00000
     13      -0.7372      2.00000
     14      -0.2801      2.00000
     15      -0.2750      2.00000
     16       0.3908      2.00000
     17       0.4303      2.00000
     18       1.1257      2.00000
     19       1.4291      2.00000
     20       1.4849      2.00000
     21       3.5246      0.00000
     22       4.6709      0.00000
     23       5.1550      0.00000
     24       5.4741      0.00000
     25       5.6306      0.00000
     26       5.7779      0.00000
     27       6.0464      0.00000
     28       6.2484      0.00000
     29       6.5091      0.00000
     30       6.9729      0.00000
     31       6.9872      0.00000
     32       7.5477      0.00000

 k-point    16 :       0.5000    0.3333    0.0000
  band No.  band energies     occupation 
      1     -10.3080      2.00000
      2     -10.3080      2.00000
      3     -10.2751      2.00000
      4     -10.2751      2.00000
      5      -5.6610      2.00000
      6      -5.6610      2.00000
      7      -5.4586      2.00000
      8      -5.4586      2.00000
      9      -1.7546      2.00000
     10      -1.7546      2.00000
     11      -1.4319      2.00000
     12      -1.4319      2.00000
     13      -0.8320      2.00000
     14      -0.8320      2.00000
     15      -0.3438      2.00000
     16      -0.3438      2.00000
     17       0.6871      2.00000
     18       0.6871      2.00000
     19       1.3040      2.00000
     20       1.3040      2.00000
     21       4.3264      0.00000
     22       4.3264      0.00000
     23       5.5595      0.00000
     24       5.5595      0.00000
     25       5.9782      0.00000
     26       5.9782      0.00000
     27       6.4136      0.00000
     28       6.4136      0.00000
     29       6.8020      0.00000
     30       6.8020      0.00000
     31       7.5605      0.00000
     32       7.5605      0.00000

 k-point    17 :       0.0000    0.5000    0.0000
  band No.  band energies     occupation 
      1     -10.7436      2.00000
      2     -10.7436      2.00000
      3     -10.5447      2.00000
      4     -10.5447      2.00000
      5      -5.6100      2.00000
      6      -5.6100      2.00000
      7      -4.8341      2.00000
      8      -4.8341      2.00000
      9      -0.8808      2.00000
     10      -0.8808      2.00000
     11      -0.1930      2.00000
     12      -0.1930      2.00000
     13       0.0194      2.00000
     14       0.0194      2.00000
     15       0.8138      2.00000
     16       0.8138      2.00000
     17       0.9348      2.00000
     18       0.9348      2.00000
     19       1.4366      2.00000
     20       1.4366      2.00000
     21       3.1388      0.00000
     22       3.1388      0.00000
     23       3.9924      0.00000
     24       3.9924      0.00000
     25       4.5506      0.00000
     26       4.5506      0.00000
     27       5.0722      0.00000
     28       5.0722      0.00000
     29       5.4475      0.00000
     30       5.4475      0.00000
     31       7.4426      0.00000
     32       7.4426      0.00000

 k-point    18 :       0.1667    0.5000    0.0000
  band No.  band energies     occupation 
      1     -10.6487      2.00000
      2     -10.6487      2.00000
      3     -10.4676      2.00000
      4     -10.4676      2.00000
      5      -5.5871      2.00000
      6      -5.5871      2.00000
      7      -4.9100      2.00000
      8      -4.9100      2.00000
      9      -1.3334      2.00000
     10      -1.3334      2.00000
     11      -0.9067      2.00000
     12      -0.9067      2.00000
     13      -0.6445      2.00000
     14      -0.6445      2.00000
     15       0.6803      2.00000
     16       0.6803      2.00000
     17       1.2766      2.00000
     18       1.2766      2.00000
     19       1.6705      2.00000
     20       1.6705      2.00000
     21       3.5794      0.00000
     22       3.5794      0.00000
     23       4.0049      0.00000
     24       4.0049      0.00000
     25       5.2406      0.00000
     26       5.2406      0.00000
     27       5.6470      0.00000
     28       5.6470      0.00000
     29       6.1031      0.00000
     30       6.1031      0.00000
     31       7.1752      0.00000
     32       7.1752      0.00000

[...]
     32       6.8801      0.00000

 k-point    32 :       0.1667    0.3333    0.5000
  band No.  band energies     occupation 
      1     -10.8773      2.00000
      2     -10.8773      2.00000
      3     -10.2693      2.00000
      4     -10.2693      2.00000
      5      -5.6322      2.00000
      6      -5.6322      2.00000
      7      -4.7024      2.00000
      8      -4.7024      2.00000
      9      -1.4884      2.00000
     10      -1.4884      2.00000
     11      -0.8832      2.00000
     12      -0.8832      2.00000
     13      -0.2901      2.00000
     14      -0.2901      2.00000
     15       0.5224      2.00000
     16       0.5224      2.00000
     17       1.1735      2.00000
     18       1.1735      2.00000
     19       1.5370      2.00000
     20       1.5370      2.00000
     21       3.9114      0.00000
     22       3.9114      0.00000
     23       4.1902      0.00000
     24       4.1902      0.00000
     25       5.1889      0.00000
     26       5.1889      0.00000
     27       5.4998      0.00000
     28       5.4998      0.00000
     29       6.2761      0.00000
     30       6.2761      0.00000
     31       6.7492      0.00000
     32       6.7492      0.00000

 k-point    33 :       0.1667   -0.3333    0.5000
  band No.  band energies     occupation 
      1     -10.8773      2.00000
      2     -10.8773      2.00000
      3     -10.2693      2.00000
      4     -10.2693      2.00000
      5      -5.6322      2.00000
      6      -5.6322      2.00000
      7      -4.7024      2.00000
      8      -4.7024      2.00000
      9      -1.4884      2.00000
     10      -1.4884      2.00000
     11      -0.8832      2.00000
     12      -0.8832      2.00000
     13      -0.2901      2.00000
     14      -0.2901      2.00000
     15       0.5224      2.00000
     16       0.5224      2.00000
     17       1.1735      2.00000
     18       1.1735      2.00000
     19       1.5370      2.00000
     20       1.5370      2.00000
     21       3.9114      0.00000
     22       3.9114      0.00000
     23       4.1902      0.00000
     24       4.1902      0.00000
     25       5.1889      0.00000
     26       5.1889      0.00000
     27       5.4998      0.00000
     28       5.4998      0.00000
     29       6.2761      0.00000
     30       6.2761      0.00000
     31       6.7492      0.00000
     32       6.7492      0.00000

 k-point    34 :       0.3333    0.3333    0.5000
  band No.  band energies     occupation 
      1     -10.5863      2.00000
      2     -10.5863      2.00000
      3     -10.1952      2.00000
      4     -10.1952      2.00000
      5      -5.6837      2.00000
      6      -5.6837      2.00000
      7      -5.1161      2.00000
      8      -5.1161      2.00000
      9      -1.9035      2.00000
     10      -1.9035      2.00000
     11      -1.2147      2.00000
     12      -1.2147      2.00000
     13      -0.6825      2.00000
     14      -0.6825      2.00000
     15      -0.0415      2.00000
     16      -0.0415      2.00000
     17       0.8668      2.00000
     18       0.8668      2.00000
     19       1.4958      2.00000
     20       1.4958      2.00000
     21       4.4603      0.00000
     22       4.4603      0.00000
     23       5.1443      0.00000
     24       5.1443      0.00000
     25       5.4176      0.00000
     26       5.4176      0.00000
     27       6.0901      0.00000
     28       6.0901      0.00000
     29       6.4470      0.00000
     30       6.4470      0.00000
     31       7.4125      0.00000
     32       7.4125      0.00000

 k-point    35 :       0.3333   -0.3333    0.5000
  band No.  band energies     occupation 
      1     -10.5863      2.00000
      2     -10.5863      2.00000
      3     -10.1952      2.00000
      4     -10.1952      2.00000
      5      -5.6837      2.00000
      6      -5.6837      2.00000
      7      -5.1161      2.00000
      8      -5.1161      2.00000
      9      -1.9035      2.00000
     10      -1.9035      2.00000
     11      -1.2147      2.00000
     12      -1.2147      2.00000
     13      -0.6825      2.00000
     14      -0.6825      2.00000
     15      -0.0415      2.00000
     16      -0.0415      2.00000
     17       0.8668      2.00000
     18       0.8668      2.00000
     19       1.4958      2.00000
     20       1.4958      2.00000
     21       4.4603      0.00000
     22       4.4603      0.00000
     23       5.1443      0.00000
     24       5.1443      0.00000
     25       5.4176      0.00000
     26       5.4176      0.00000
     27       6.0901      0.00000
     28       6.0901      0.00000
     29       6.4470      0.00000
     30       6.4470      0.00000
     31       7.4125      0.00000
     32       7.4125      0.00000

 k-point    36 :       0.5000    0.3333    0.5000
  band No.  band energies     occupation 
      1     -10.2917      2.00000
      2     -10.2917      2.00000
      3     -10.2917      2.00000
      4     -10.2917      2.00000
      5      -5.5634      2.00000
      6      -5.5634      2.00000
      7      -5.5634      2.00000
      8      -5.5634      2.00000
      9      -1.5180      2.00000
     10      -1.5180      2.00000
     11      -1.5180      2.00000
     12      -1.5180      2.00000
     13      -0.7813      2.00000
     14      -0.7813      2.00000
     15      -0.7813      2.00000
     16      -0.7813      2.00000
     17       1.1485      2.00000
     18       1.1485      2.00000
     19       1.1485      2.00000
     20       1.1485      2.00000
     21       4.9341      0.00000
     22       4.9341      0.00000
     23       4.9341      0.00000
     24       4.9341      0.00000
     25       5.8468      0.00000
     26       5.8468      0.00000
     27       5.8468      0.00000
     28       5.8468      0.00000
     29       7.2795      0.00000
     30       7.2795      0.00000
     31       7.2795      0.00000
     32       7.2795      0.00000

 k-point    37 :       0.0000    0.5000    0.5000
  band No.  band energies     occupation 
      1     -10.7393      2.00000
      2     -10.7393      2.00000
      3     -10.5499      2.00000
      4     -10.5499      2.00000
      5      -5.5211      2.00000
      6      -5.5211      2.00000
      7      -4.9676      2.00000
      8      -4.9676      2.00000
      9      -0.3148      2.00000
     10      -0.3148      2.00000
     11      -0.1853      2.00000
     12      -0.1853      2.00000
     13      -0.0063      2.00000
     14      -0.0063      2.00000
     15       0.0098      2.00000
     16       0.0098      2.00000
     17       1.2524      2.00000
     18       1.2524      2.00000
     19       1.2566      2.00000
     20       1.2566      2.00000
     21       3.2788      0.00000
     22       3.2788      0.00000
     23       3.8082      0.00000
     24       3.8082      0.00000
     25       4.6205      0.00000
     26       4.6205      0.00000
     27       5.3470      0.00000
     28       5.3470      0.00000
     29       5.8383      0.00000
     30       5.8383      0.00000
     31       6.7206      0.00000
     32       6.7206      0.00000

 k-point    38 :       0.1667    0.5000    0.5000
  band No.  band energies     occupation 
      1     -10.6448      2.00000
      2     -10.6448      2.00000
      3     -10.4724      2.00000
      4     -10.4724      2.00000
      5      -5.5155      2.00000
      6      -5.5155      2.00000
      7      -5.0107      2.00000
      8      -5.0107      2.00000
      9      -1.2087      2.00000
     10      -1.2087      2.00000
     11      -1.1240      2.00000
     12      -1.1240      2.00000
     13       0.0012      2.00000
     14       0.0012      2.00000
     15       0.1000      2.00000
     16       0.1000      2.00000
     17       1.3073      2.00000
     18       1.3073      2.00000
     19       1.4845      2.00000
     20       1.4845      2.00000
     21       3.9136      0.00000
     22       3.9136      0.00000
     23       4.0253      0.00000
     24       4.0253      0.00000
     25       5.4115      0.00000
     26       5.4115      0.00000
     27       5.5616      0.00000
     28       5.5616      0.00000
     29       6.1533      0.00000
     30       6.1533      0.00000
     31       6.5779      0.00000
     32       6.5779      0.00000

 k-point    39 :       0.3333    0.5000    0.5000
  band No.  band energies     occupation 
      1     -10.4254      2.00000
      2     -10.4254      2.00000
      3     -10.3137      2.00000
      4     -10.3137      2.00000
      5      -5.5519      2.00000
      6      -5.5519      2.00000
      7      -5.2408      2.00000
      8      -5.2408      2.00000
      9      -1.7687      2.00000
     10      -1.7687      2.00000
     11      -1.7621      2.00000
     12      -1.7621      2.00000
     13      -0.5077      2.00000
     14      -0.5077      2.00000
     15      -0.4717      2.00000
     16      -0.4717      2.00000
     17       1.0662      2.00000
     18       1.0662      2.00000
     19       1.2724      2.00000
     20       1.2724      2.00000
     21       4.9287      0.00000
     22       4.9287      0.00000
     23       5.2386      0.00000
     24       5.2386      0.00000
     25       5.7873      0.00000
     26       5.7873      0.00000
     27       5.7922      0.00000
     28       5.7922      0.00000
     29       7.0914      0.00000
     30       7.0914      0.00000
     31       7.3453      0.00000
     32       7.3453      0.00000

 k-point    40 :       0.5000    0.5000    0.5000
  band No.  band energies     occupation 
      1     -10.2646      2.00000
      2     -10.2646      2.00000
      3     -10.2646      2.00000
      4     -10.2646      2.00000
      5      -5.5203      2.00000
      6      -5.5203      2.00000
      7      -5.5203      2.00000
      8      -5.5203      2.00000
      9      -1.6408      2.00000
     10      -1.6408      2.00000
     11      -1.6408      2.00000
     12      -1.6408      2.00000
     13      -1.1246      2.00000
     14      -1.1246      2.00000
     15      -1.1246      2.00000
     16      -1.1246      2.00000
     17       1.2044      2.00000
     18       1.2044      2.00000
     19       1.2044      2.00000
     20       1.2044      2.00000
     21       4.9615      0.00000
     22       4.9615      0.00000
     23       4.9615      0.00000
     24       4.9615      0.00000
     25       6.3591      0.00000
     26       6.3591      0.00000
     27       6.3591      0.00000
     28       6.3591      0.00000
     29       7.9848      0.00000
     30       7.9848      0.00000
     31       7.9848      0.00000
     32       7.9848      0.00000


--------------------------------------------------------------------------------------------------------


 soft charge-density along one line, spin component            1
         0         1         2         3         4         5         6         7         8         9
 total charge-density along one line
 
 pseudopotential strength for first ion, spin component:            1
 14.829  18.511   0.036   0.050  -0.000   0.065   0.091  -0.000
 18.511  23.122   0.046   0.064  -0.000   0.082   0.115  -0.000
  0.036   0.046   3.276  -0.002   0.000   5.581  -0.003   0.000
  0.050   0.064  -0.002   3.270  -0.000  -0.003   5.571  -0.000
 -0.000  -0.000   0.000  -0.000   3.276   0.000  -0.000   5.580
  0.065   0.082   5.581  -0.003   0.000   9.566  -0.005   0.000
  0.091   0.115  -0.003   5.571  -0.000  -0.005   9.550  -0.000
 -0.000  -0.000   0.000  -0.000   5.580   0.000  -0.000   9.565
  0.000   0.000  -0.000  -0.000   0.005  -0.000  -0.000   0.010
 -0.003  -0.004   0.013   0.012  -0.000   0.023   0.021  -0.000
 -0.007  -0.008  -0.002   0.013   0.000  -0.005   0.024   0.000
 -0.000  -0.000  -0.000  -0.000   0.013  -0.000  -0.000   0.023
 -0.001  -0.001  -0.011   0.000  -0.000  -0.020   0.000  -0.000
 total augmentation occupancy for first ion, spin component:            1
  2.543  -0.569   0.233   0.402   0.000  -0.033  -0.070  -0.000   0.000  -0.020   0.007   0.000   0.015
 -0.569   0.579  -0.342  -0.525  -0.000   0.049   0.080   0.000  -0.000   0.017  -0.006  -0.000  -0.014
  0.233  -0.342   1.042  -0.007   0.000  -0.159   0.015  -0.000   0.000   0.047  -0.090   0.000   0.019
  0.402  -0.525  -0.007   1.327   0.000   0.014  -0.204  -0.000   0.000  -0.041   0.110   0.000  -0.003
  0.000  -0.000   0.000   0.000   1.123  -0.000  -0.000  -0.186   0.121  -0.000   0.000   0.036   0.000
 -0.033   0.049  -0.159   0.014  -0.000   0.027  -0.005   0.000  -0.000  -0.008   0.015  -0.000  -0.003
 -0.070   0.080   0.015  -0.204  -0.000  -0.005   0.036   0.000  -0.000   0.006  -0.019  -0.000   0.001
 -0.000   0.000  -0.000  -0.000  -0.186   0.000   0.000   0.034  -0.020   0.000  -0.000  -0.006  -0.000
  0.000  -0.000   0.000   0.000   0.121  -0.000  -0.000  -0.020   0.022   0.000   0.000   0.002   0.000
 -0.020   0.017   0.047  -0.041  -0.000  -0.008   0.006   0.000   0.000   0.012  -0.008  -0.000   0.002
  0.007  -0.006  -0.090   0.110   0.000   0.015  -0.019  -0.000   0.000  -0.008   0.027   0.000  -0.004
  0.000  -0.000   0.000   0.000   0.036  -0.000  -0.000  -0.006   0.002  -0.000   0.000   0.009  -0.000
  0.015  -0.014   0.019  -0.003   0.000  -0.003   0.001  -0.000   0.000   0.002  -0.004  -0.000   0.007


------------------------ aborting loop because EDIFF is reached ----------------------------------------


    CHARGE:  cpu time      0.0038: real time      0.0039
    FORLOC:  cpu time      0.0002: real time      0.0002
    FORNL :  cpu time      0.0206: real time      0.0207
    STRESS:  cpu time      0.2066: real time      0.2076
    FORCOR:  cpu time      0.0035: real time      0.0035
    FORHAR:  cpu time      0.0008: real time      0.0009
    MIXING:  cpu time      0.0005: real time      0.0005
    OFIELD:  cpu time      0.0000: real time      0.0000

  FORCE on cell =-STRESS in cart. coord.  units (eV):
  Direction    XX          YY          ZZ          XY          YZ          ZX
  --------------------------------------------------------------------------------------
  Alpha Z    77.03861    77.03861    77.03861
  Ewald    -398.07753  -481.81909  -466.93184     0.00000     0.00000    -0.00000
  Hartree    78.95075    48.34256    37.81556    -0.00000    -0.00000     0.00000
  E(xc)    -139.59340  -139.91033  -140.32046    -0.00000    -0.00000     0.00000
  Local    -232.33592  -126.00524  -133.60992     0.00000    -0.00000    -0.00000
  n-local   237.45693   236.58923   241.30375     0.00000     0.00000     0.00000
  augment   -11.26470   -11.91152   -12.31499    -0.00000    -0.00000    -0.00000
  Kinetic   381.14866   395.10832   396.37740     0.00000     0.00000    -0.00000
  Fock        0.00000     0.00000     0.00000     0.00000     0.00000     0.00000
  -------------------------------------------------------------------------------------
  Total      -6.67659    -2.56746    -0.64188     0.00000    -0.00000    -0.00000
  in kB     -48.63473   -18.70230    -4.67572     0.00002    -0.00000    -0.00000
  external pressure =      -24.00 kB  Pullay stress =        0.00 kB


 VOLUME and BASIS-vectors are now :
 -----------------------------------------------------------------------------
  energy-cutoff  :      360.00
  volume of cell :      219.95
      direct lattice vectors                 reciprocal lattice vectors
     4.200000000  0.000000000  0.000000000     0.238095238  0.000000000  0.000000000
     0.000000000  4.700000000  0.000000000     0.000000000  0.212765957  0.000000000
     0.000000000  0.000000000 11.142221000     0.000000000  0.000000000  0.089748713

  length of vectors
     4.200000000  4.700000000 11.142221000     0.238095238  0.212765957  0.089748713


 FORCES acting on ions
    electron-ion (+dipol)            ewald-force                    non-local-force                 convergence-correction
 -----------------------------------------------------------------------------------------------
   -.664E-06 0.125E+02 0.287E+02   0.518E-14 -.151E+02 -.320E+02   0.367E-06 0.262E+01 0.324E+01   0.346E-06 -.599E-04 -.215E-03
   -.648E-06 0.125E+02 -.287E+02   0.112E-13 -.151E+02 0.320E+02   0.375E-06 0.262E+01 -.324E+01   0.311E-06 -.599E-04 0.215E-03
   0.529E-06 -.125E+02 -.287E+02   -.116E-13 0.151E+02 0.320E+02   -.322E-06 -.262E+01 -.324E+01   -.260E-06 0.600E-04 0.215E-03
   0.669E-06 -.125E+02 0.287E+02   -.239E-14 0.151E+02 -.320E+02   -.353E-06 -.262E+01 0.324E+01   -.353E-06 0.600E-04 -.215E-03
   0.228E-06 -.112E+02 -.287E+02   -.113E-13 0.127E+02 0.306E+02   -.325E-06 -.148E+01 -.191E+01   -.357E-06 0.315E-04 0.431E-03
   0.105E-06 -.112E+02 0.287E+02   -.555E-14 0.127E+02 -.306E+02   -.206E-06 -.148E+01 0.191E+01   -.426E-06 0.312E-04 -.432E-03
   -.533E-06 0.112E+02 0.287E+02   0.384E-14 -.127E+02 -.306E+02   0.403E-06 0.148E+01 0.191E+01   0.595E-06 -.312E-04 -.431E-03
   0.188E-06 0.112E+02 -.287E+02   0.115E-13 -.127E+02 0.306E+02   0.103E-06 0.148E+01 -.191E+01   0.244E-06 -.319E-04 0.431E-03
 -----------------------------------------------------------------------------------------------
   -.126E-06 0.694E-06 0.544E-06   0.821E-15 0.000E+00 0.284E-13   0.427E-07 -.355E-06 -.415E-06   0.101E-06 -.306E-06 -.302E-06
 
 
 POSITION                                       TOTAL-FORCE (eV/Angst)
 -----------------------------------------------------------------------------------
      1.05000      0.53513      1.44056         0.000000     -0.004863      0.018265
      3.15000      2.88513      4.13055         0.000000     -0.004863     -0.018266
      3.15000      4.16487      9.70166        -0.000000      0.004863     -0.018265
      1.05000      1.81487      7.01168        -0.000000      0.004863      0.018266
      1.05000      4.53363      3.90951        -0.000000      0.027429     -0.013917
      3.15000      2.18363      1.66160        -0.000001      0.027429      0.013918
      3.15000      0.16637      7.23271         0.000000     -0.027429      0.013917
      1.05000      2.51637      9.48062         0.000001     -0.027429     -0.013918
 -----------------------------------------------------------------------------------
    total drift:                                0.000000      0.000000     -0.000000


--------------------------------------------------------------------------------------------------------



  FREE ENERGIE OF THE ION-ELECTRON SYSTEM (eV)
  ---------------------------------------------------
  free  energy   TOTEN  =       -33.48971198 eV

  energy  without entropy=      -33.48971198  energy(sigma->0) =      -33.48971198
 


--------------------------------------------------------------------------------------------------------


    POTLOK:  cpu time      0.1132: real time      0.1136


--------------------------------------------------------------------------------------------------------


     LOOP+:  cpu time      5.1742: real time      5.2170
    4ORBIT:  cpu time      0.0000: real time      0.0000

 total amount of memory used by VASP MPI-rank0    39546. kBytes
=======================================================================

   base      :      30000. kBytes
   nonl-proj :       7434. kBytes
   fftplans  :        374. kBytes
   grid      :        555. kBytes
   one-center:         16. kBytes
   wavefun   :       1167. kBytes
 
  
  
 General timing and accounting informations for this job:
 ========================================================
  
                  Total CPU time used (sec):        6.011
                            User time (sec):        5.781
                          System time (sec):        0.230
                         Elapsed time (sec):        7.624
  
                   Maximum memory used (kb):      191644.
                   Average memory used (kb):          N/A
  
                          Minor page faults:        21378
                          Major page faults:           29
                 Voluntary context switches:         9076
