 running   32 mpi-ranks, with    1 threads/rank, on    2 nodes
 distrk:  each k-point on   16 cores,    2 groups
 distr:  one band on    1 cores,   16 groups
 vasp.6.4.2 20Jul23 (build Oct 12 2023 10:31:02) complex                         
 POSCAR found type information on POSCAR GeSe
 POSCAR found :  2 types and       8 ions
 Reading from existing POTCAR
 -----------------------------------------------------------------------------
|                                                                             |
|           W    W    AA    RRRRR   N    N  II  N    N   GGGG   !!!           |
|           W    W   A  A   R    R  NN   N  II  NN   N  G    G  !!!           |
|           W    W  A    A  R    R  N N  N  II  N N  N  G       !!!           |
|           W WW W  AAAAAA  RRRRR   N  N N  II  N  N N  G  GGG   !            |
|           WW  WW  A    A  R   R   N   NN  II  N   NN  G    G                |
|           W    W  A    A  R    R  N    N  II  N    N   GGGG   !!!           |
|                                                                             |
|     You use a magnetic or noncollinear calculation, but did not specify     |
|     the initial magnetic moment with the MAGMOM tag. Note that a            |
|     default of 1 will be used for all atoms. This ferromagnetic setup       |
|     may break the symmetry of the crystal, in particular it may rule        |
|     out finding an antiferromagnetic solution. Thence, we recommend         |
|     setting the initial magnetic moment manually or verifying carefully     |
|     that this magnetic setup is desired.                                    |
|                                                                             |
 -----------------------------------------------------------------------------

 scaLAPACK will be used
 Reading from existing POTCAR
 LDA part: xc-table for Pade appr. of Perdew
 -----------------------------------------------------------------------------
|                                                                             |
|           W    W    AA    RRRRR   N    N  II  N    N   GGGG   !!!           |
|           W    W   A  A   R    R  NN   N  II  NN   N  G    G  !!!           |
|           W    W  A    A  R    R  N N  N  II  N N  N  G       !!!           |
|           W WW W  AAAAAA  RRRRR   N  N N  II  N  N N  G  GGG   !            |
|           WW  WW  A    A  R   R   N   NN  II  N   NN  G    G                |
|           W    W  A    A  R    R  N    N  II  N    N   GGGG   !!!           |
|                                                                             |
|     The number of bands has been changed from the values supplied in        |
|     the INCAR file. This is a result of running the parallel version.       |
|     The orbitals not found in the WAVECAR file will be initialized with     |
|     random numbers, which is usually adequate. For correlated               |
|     calculations, however, you should redo the groundstate calculation.     |
|     I found NBANDS = 220. Now, NBANDS = 224.                                |
|                                                                             |
 -----------------------------------------------------------------------------

 POSCAR, INCAR and KPOINTS ok, starting setup
 FFT: planning ... GRIDC
 FFT: planning ... GRID_SOFT
 FFT: planning ... GRID
 WAVECAR not read
 WARNING: random wavefunctions but no delay for mixing, default for NELMDL
 entering main loop
       N       E                     dE             d eps       ncg     rms          rms(c)
DAV:   1     0.180394252887E+03    0.18039E+03   -0.91172E+03 28672   0.131E+02
DAV:   2    -0.202915445350E+02   -0.20069E+03   -0.17955E+03 34720   0.398E+01
DAV:   3    -0.323855600783E+02   -0.12094E+02   -0.11895E+02 34608   0.978E+00
DAV:   4    -0.324759612003E+02   -0.90401E-01   -0.90376E-01 33776   0.770E-01
DAV:   5    -0.324764797553E+02   -0.51855E-03   -0.51854E-03 33408   0.619E-02    0.967E+00
DAV:   6    -0.245380888877E+02    0.79384E+01   -0.43466E+00 31168   0.201E+00    0.627E+00
DAV:   7    -0.236323699106E+02    0.90572E+00   -0.80324E-01 32464   0.759E-01    0.422E+00
DAV:   8    -0.250364759800E+02   -0.14041E+01   -0.22087E-01 33584   0.451E-01    0.268E+00
DAV:   9    -0.268223770597E+02   -0.17859E+01   -0.18955E-01 32592   0.386E-01    0.226E+00
DAV:  10    -0.294675350841E+02   -0.26452E+01   -0.52920E-01 31568   0.611E-01    0.174E+00
DAV:  11    -0.317967545885E+02   -0.23292E+01   -0.45304E-01 31568   0.554E-01    0.115E+00
DAV:  12    -0.326289998615E+02   -0.83225E+00   -0.11755E-01 32528   0.305E-01    0.717E-01
DAV:  13    -0.326816571277E+02   -0.52657E-01   -0.59117E-02 31648   0.223E-01    0.358E-01
DAV:  14    -0.331854592198E+02   -0.50380E+00   -0.83515E-03 31296   0.100E-01    0.189E-01
DAV:  15    -0.334784692986E+02   -0.29301E+00   -0.25865E-03 31264   0.582E-02    0.914E-02
DAV:  16    -0.335159846143E+02   -0.37515E-01   -0.16719E-03 32368   0.352E-02    0.518E-02
DAV:  17    -0.335184815427E+02   -0.24969E-02   -0.38662E-04 32784   0.193E-02    0.347E-02
DAV:  18    -0.335193266068E+02   -0.84506E-03   -0.21150E-04 31808   0.149E-02    0.219E-02
DAV:  19    -0.335193644591E+02   -0.37852E-04   -0.65731E-05 32352   0.816E-03    0.151E-02
DAV:  20    -0.335193894589E+02   -0.25000E-04   -0.28395E-05 31984   0.594E-03    0.902E-03
DAV:  21    -0.335194118731E+02   -0.22414E-04   -0.12563E-05 32144   0.407E-03    0.444E-03
DAV:  22    -0.335194616112E+02   -0.49738E-04   -0.34386E-06 32016   0.202E-03    0.247E-03
DAV:  23    -0.335195120252E+02   -0.50414E-04   -0.17410E-06 32592   0.137E-03    0.113E-03
DAV:  24    -0.335195317698E+02   -0.19745E-04   -0.95035E-07 31920   0.104E-03    0.556E-04
DAV:  25    -0.335195461663E+02   -0.14396E-04   -0.37441E-07 32208   0.677E-04    0.261E-04
DAV:  26    -0.335195518374E+02   -0.56712E-05   -0.11331E-07 31856   0.355E-04    0.123E-04
DAV:  27    -0.335195522716E+02   -0.43412E-06   -0.16747E-08 32192   0.149E-04
   1 F= -.33519552E+02 E0= -.33519552E+02  d E =-.634176E-19  mag=     0.0000
 writing wavefunctions
