 vasp.6.4.2 20Jul23 (build Oct 12 2023 10:31:02) complex                         
 executed on              LinuxNV date 2025.05.17  20:32:50
 running  160 mpi-ranks, with    1 threads/rank, on   10 nodes
 distrk:  each k-point on   80 cores,    2 groups
 distr:  one band on NCORE=   5 cores,   16 groups


--------------------------------------------------------------------------------------------------------


 INCAR:
   ENCUT = 360.000000
   SIGMA = 0.050000
   EDIFF = 1.00e-06
   ALGO = Normal
   GGA = PE
   PREC = Normal
   SYSTEM = ./
   ICHARG = 2
   ISMEAR = 0
   ISPIN = 1
   ISTART = 0
   ISYM = 0
   KPAR = 2
   LMAXMIX = 4
   NELM = 100
   NPAR = 16
   LASPH = .TRUE.
   LCHARG = .FALSE.
   LWAVE = .FALSE.

 POTCAR:    PAW_PBE Ge 05Jan2001                  
 POTCAR:    PAW_PBE Se 06Sep2000                  
 POTCAR:    PAW_PBE Ge 05Jan2001                  
   VRHFIN =Ge: s2p2                                                                                 
   LEXCH  = PE                                                                                      
   EATOM  =   104.9960 eV,    7.7170 Ry                                                             
                                                                                                    
   TITEL  = PAW_PBE Ge 05Jan2001                                                                    
   LULTRA =        F    use ultrasoft PP ?                                                          
   IUNSCR =        1    unscreen: 0-lin 1-nonlin 2-no                                               
   RPACOR =    2.170    partial core radius                                                         
   POMASS =   72.610; ZVAL   =    4.000    mass and valenz                                          
   RCORE  =    2.300    outmost cutoff radius                                                       
   RWIGS  =    2.300; RWIGS  =    1.217    wigner-seitz radius (au A)                               
   ENMAX  =  173.807; ENMIN  =  130.355 eV                                                          
   ICORE  =        3    local potential                                                             
   LCOR   =        T    correct aug charges                                                         
   LPAW   =        T    paw PP                                                                      
   EAUG   =  385.843                                                                                
   DEXC   =    0.000                                                                                
   RMAX   =    2.342    core radius for proj-oper                                                   
   RAUG   =    1.300    factor for augmentation sphere                                              
   RDEP   =    2.318    radius for radial grids                                                     
   RDEPT  =    2.103    core radius for aug-charge                                                  
                                                                                                    
   Atomic configuration                                                                             
   10 entries                                                                                       
     n  l   j            E        occ.                                                              
     1  0  0.50    -10959.8463   2.0000                                                             
     2  0  0.50     -1371.6056   2.0000                                                             
     2  1  1.50     -1198.4791   6.0000                                                             
     3  0  0.50      -168.4733   2.0000                                                             
     3  1  1.50      -115.6019   6.0000                                                             
     3  2  2.50       -29.3106  10.0000                                                             
     4  0  0.50       -11.7309   2.0000                                                             
     4  1  0.50        -3.8952   2.0000                                                             
     4  2  1.50        -4.0817   0.0000                                                             
     4  3  2.50        -4.0817   0.0000                                                             
   Description                                                                                      
     l       E           TYP  RCUT    TYP  RCUT                                                     
     0    -11.7309493     23  2.300                                                                 
     0     -7.4578696     23  2.300                                                                 
     1     -3.8952261     23  2.300                                                                 
     1      6.1178114     23  2.300                                                                 
     2     -4.0817478     23  2.300                                                                 
     3     -1.3605826      7  2.300                                                                 
  local pseudopotential read in
  partial core-charges read in
  partial kinetic energy density read in
  atomic valenz-charges read in
  non local Contribution for L=            0  read in
    real space projection operators read in
  non local Contribution for L=            0  read in
    real space projection operators read in
  non local Contribution for L=            1  read in
    real space projection operators read in
  non local Contribution for L=            1  read in
    real space projection operators read in
  non local Contribution for L=            2  read in
    real space projection operators read in
    PAW grid and wavefunctions read in
 
   number of l-projection  operators is LMAX  =            5
   number of lm-projection operators is LMMAX =           13
 
 POTCAR:    PAW_PBE Se 06Sep2000                  
   VRHFIN =Se: s2p4                                                                                 
   LEXCH  = PE                                                                                      
   EATOM  =   257.1286 eV,   18.8984 Ry                                                             
                                                                                                    
   TITEL  = PAW_PBE Se 06Sep2000                                                                    
   LULTRA =        F    use ultrasoft PP ?                                                          
   IUNSCR =        1    unscreen: 0-lin 1-nonlin 2-no                                               
   RPACOR =    1.900    partial core radius                                                         
   POMASS =   78.960; ZVAL   =    6.000    mass and valenz                                          
   RCORE  =    2.100    outmost cutoff radius                                                       
   RWIGS  =    2.200; RWIGS  =    1.164    wigner-seitz radius (au A)                               
   ENMAX  =  211.555; ENMIN  =  158.666 eV                                                          
   ICORE  =        3    local potential                                                             
   LCOR   =        T    correct aug charges                                                         
   LPAW   =        T    paw PP                                                                      
   EAUG   =  446.842                                                                                
   DEXC   =    0.000                                                                                
   RMAX   =    2.147    core radius for proj-oper                                                   
   RAUG   =    1.300    factor for augmentation sphere                                              
   RDEP   =    2.177    radius for radial grids                                                     
   RDEPT  =    1.928    core radius for aug-charge                                                  
                                                                                                    
   Atomic configuration                                                                             
   10 entries                                                                                       
     n  l   j            E        occ.                                                              
     1  0  0.50    -12503.4787   2.0000                                                             
     2  0  0.50     -1606.9547   2.0000                                                             
     2  1  1.50     -1413.3140   6.0000                                                             
     3  0  0.50      -213.4885   2.0000                                                             
     3  1  1.50      -152.9538   6.0000                                                             
     3  2  2.50       -53.1221  10.0000                                                             
     4  0  0.50       -17.2865   2.0000                                                             
     4  1  0.50        -6.5110   4.0000                                                             
     4  2  2.50        -6.8029   0.0000                                                             
     4  3  2.50        -6.8029   0.0000                                                             
   Description                                                                                      
     l       E           TYP  RCUT    TYP  RCUT                                                     
     0    -17.2865377     23  2.100                                                                 
     0    -15.3094411     23  2.100                                                                 
     1     -6.5110275     23  2.100                                                                 
     1     -0.0695192     23  2.100                                                                 
     2     -6.8029130     23  2.100                                                                 
     3     -1.3605826      7  2.100                                                                 
  local pseudopotential read in
  partial core-charges read in
  partial kinetic energy density read in
  atomic valenz-charges read in
  non local Contribution for L=            0  read in
    real space projection operators read in
  non local Contribution for L=            0  read in
    real space projection operators read in
  non local Contribution for L=            1  read in
    real space projection operators read in
  non local Contribution for L=            1  read in
    real space projection operators read in
  non local Contribution for L=            2  read in
    real space projection operators read in
    PAW grid and wavefunctions read in
 
   number of l-projection  operators is LMAX  =            5
   number of lm-projection operators is LMMAX =           13
 
  PAW_PBE Ge 05Jan2001                  :
 energy of atom  1       EATOM= -104.9960
 kinetic energy error for atom=    0.0005 (will be added to EATOM!!)
  PAW_PBE Se 06Sep2000                  :
 energy of atom  2       EATOM= -257.1286
 kinetic energy error for atom=    0.0030 (will be added to EATOM!!)
 
 
 POSCAR: Ge Se
  positions in cartesian coordinates
  No initial velocities read in
 exchange correlation table for  LEXCH =        8
   RHO(1)=    0.500       N(1)  =     2000
   RHO(2)=  100.500       N(2)  =     4000
 


--------------------------------------------------------------------------------------------------------


 ion  position               nearest neighbor table
   1  0.134  0.163  0.116-   5 2.58   6 2.59   6 2.59
   2  0.634  0.663  0.384-   6 2.58   5 2.59   5 2.59
   3  0.750  0.881  0.884-   7 2.58   8 2.59   8 2.59
   4  0.250  0.381  0.616-   8 2.58   7 2.59   7 2.59
   5  0.134  0.038  0.355-   1 2.58   2 2.59   2 2.59
   6  0.634  0.538  0.145-   2 2.58   1 2.59   1 2.59
   7  0.750  0.005  0.645-   3 2.58   4 2.59   4 2.59
   8  0.250  0.505  0.855-   4 2.58   3 2.59   3 2.59
 

IMPORTANT INFORMATION: All symmetrisations will be switched off!
NOSYMM: (Re-)initialisation of all symmetry stuff for point group C_1.


----------------------------------------------------------------------------------------

                                     Primitive cell                                     

  volume of cell :     184.8593

  direct lattice vectors                    reciprocal lattice vectors
     3.858100176  0.000000000  0.000000000     0.259194929  0.000000000  0.000000000
     0.000000000  4.526575088  0.000000000     0.000000000  0.220917577  0.000000000
     0.000000000  0.000000000 10.585176468     0.000000000  0.000000000  0.094471736

  length of vectors
     3.858100176  4.526575088 10.585176468     0.259194929  0.220917577  0.094471736

  position of ions in fractional coordinates (direct lattice)
     0.134057680  0.162674384  0.116293234
     0.634057728  0.662674409  0.383706663
     0.749999529  0.880803548  0.883706698
     0.249998913  0.380803590  0.616293301
     0.134057752  0.038419471  0.354521754
     0.634057631  0.538419572  0.145478256
     0.749999119  0.005058363  0.645478205
     0.249999423  0.505058446  0.854521738

  ion indices of the primitive-cell ions
   primitive index   ion index
                 1           1
                 2           2
                 3           3
                 4           4
                 5           5
                 6           6
                 7           7
                 8           8

----------------------------------------------------------------------------------------

 
 
 KPOINTS: KPOINTS created by Atomic Simulation Env

Automatic generation of k-mesh.
 Grid dimensions read from file:
 generate k-points for:    6    6    2

 Generating k-lattice:

  Cartesian coordinates                     Fractional coordinates (reciprocal lattice)
     0.043199155  0.000000000  0.000000000     0.166666667  0.000000000  0.000000000
     0.000000000  0.036819596  0.000000000     0.000000000  0.166666667  0.000000000
     0.000000000  0.000000000  0.047235868     0.000000000  0.000000000  0.500000000

  Length of vectors
     0.043199155  0.036819596  0.047235868

  Shift w.r.t. Gamma in fractional coordinates (k-lattice)
     0.000000000  0.000000000  0.000000000

 
 Subroutine IBZKPT returns following result:
 ===========================================
 
 Found     40 irreducible k-points:
 
 Following reciprocal coordinates:
            Coordinates               Weight
  0.000000  0.000000  0.000000      1.000000
  0.166667  0.000000  0.000000      2.000000
  0.333333  0.000000  0.000000      2.000000
  0.500000  0.000000  0.000000      1.000000
  0.000000  0.166667  0.000000      2.000000
  0.166667  0.166667  0.000000      2.000000
  0.166667 -0.166667  0.000000      2.000000
  0.333333  0.166667  0.000000      2.000000
  0.333333 -0.166667  0.000000      2.000000
  0.500000  0.166667  0.000000      2.000000
  0.000000  0.333333  0.000000      2.000000
  0.166667  0.333333  0.000000      2.000000
  0.166667 -0.333333  0.000000      2.000000
  0.333333  0.333333  0.000000      2.000000
  0.333333 -0.333333  0.000000      2.000000
  0.500000  0.333333  0.000000      2.000000
  0.000000  0.500000  0.000000      1.000000
  0.166667  0.500000  0.000000      2.000000
  0.333333  0.500000  0.000000      2.000000
  0.500000  0.500000  0.000000      1.000000
  0.000000  0.000000  0.500000      1.000000
  0.166667  0.000000  0.500000      2.000000
  0.333333  0.000000  0.500000      2.000000
  0.500000  0.000000  0.500000      1.000000
  0.000000  0.166667  0.500000      2.000000
  0.166667  0.166667  0.500000      2.000000
  0.166667 -0.166667  0.500000      2.000000
  0.333333  0.166667  0.500000      2.000000
  0.333333 -0.166667  0.500000      2.000000
  0.500000  0.166667  0.500000      2.000000
  0.000000  0.333333  0.500000      2.000000
  0.166667  0.333333  0.500000      2.000000
  0.166667 -0.333333  0.500000      2.000000
  0.333333  0.333333  0.500000      2.000000
  0.333333 -0.333333  0.500000      2.000000
  0.500000  0.333333  0.500000      2.000000
  0.000000  0.500000  0.500000      1.000000
  0.166667  0.500000  0.500000      2.000000
  0.333333  0.500000  0.500000      2.000000
  0.500000  0.500000  0.500000      1.000000
 
 Following cartesian coordinates:
            Coordinates               Weight
  0.000000  0.000000  0.000000      1.000000
  0.043199  0.000000  0.000000      2.000000
  0.086398  0.000000  0.000000      2.000000
  0.129597  0.000000  0.000000      1.000000
  0.000000  0.036820  0.000000      2.000000
  0.043199  0.036820  0.000000      2.000000
  0.043199 -0.036820  0.000000      2.000000
  0.086398  0.036820  0.000000      2.000000
  0.086398 -0.036820  0.000000      2.000000
  0.129597  0.036820  0.000000      2.000000
  0.000000  0.073639  0.000000      2.000000
  0.043199  0.073639  0.000000      2.000000
  0.043199 -0.073639  0.000000      2.000000
  0.086398  0.073639  0.000000      2.000000
  0.086398 -0.073639  0.000000      2.000000
  0.129597  0.073639  0.000000      2.000000
  0.000000  0.110459  0.000000      1.000000
  0.043199  0.110459  0.000000      2.000000
  0.086398  0.110459  0.000000      2.000000
  0.129597  0.110459  0.000000      1.000000
  0.000000  0.000000  0.047236      1.000000
  0.043199  0.000000  0.047236      2.000000
  0.086398  0.000000  0.047236      2.000000
  0.129597  0.000000  0.047236      1.000000
  0.000000  0.036820  0.047236      2.000000
  0.043199  0.036820  0.047236      2.000000
  0.043199 -0.036820  0.047236      2.000000
  0.086398  0.036820  0.047236      2.000000
  0.086398 -0.036820  0.047236      2.000000
  0.129597  0.036820  0.047236      2.000000
  0.000000  0.073639  0.047236      2.000000
  0.043199  0.073639  0.047236      2.000000
  0.043199 -0.073639  0.047236      2.000000
  0.086398  0.073639  0.047236      2.000000
  0.086398 -0.073639  0.047236      2.000000
  0.129597  0.073639  0.047236      2.000000
  0.000000  0.110459  0.047236      1.000000
  0.043199  0.110459  0.047236      2.000000
  0.086398  0.110459  0.047236      2.000000
  0.129597  0.110459  0.047236      1.000000
 


--------------------------------------------------------------------------------------------------------




 Dimension of arrays:
   k-points           NKPTS =     40   k-points in BZ     NKDIM =     40   number of bands    NBANDS=     32
   number of dos      NEDOS =    301   number of ions     NIONS =      8
   non local maximal  LDIM  =      5   non local SUM 2l+1 LMDIM =     13
   total plane-waves  NPLWV =  21600
   max r-space proj   IRMAX =      1   max aug-charges    IRDMAX=   6549
   dimension x,y,z NGX =    18 NGY =   24 NGZ =   50
   dimension x,y,z NGXF=    36 NGYF=   48 NGZF=  100
   support grid    NGXF=    36 NGYF=   48 NGZF=  100
   ions per type =               4   4
   NGX,Y,Z   is equivalent  to a cutoff of   7.76,  8.81,  7.85 a.u.
   NGXF,Y,Z  is equivalent  to a cutoff of  15.51, 17.63, 15.71 a.u.

 SYSTEM =  ./                                      
 POSCAR =  Ge Se                                   

 Startparameter for this run:
   NWRITE =      2    write-flag & timer
   PREC   = normal    normal or accurate (medium, high low for compatibility)
   ISTART =      0    job   : 0-new  1-cont  2-samecut
   ICHARG =      2    charge: 1-file 2-atom 10-const
   ISPIN  =      1    spin polarized calculation?
   LNONCOLLINEAR =      F non collinear calculations
   LSORBIT =      F    spin-orbit coupling
   INIWAV =      1    electr: 0-lowe 1-rand  2-diag
   LASPH  =      T    aspherical Exc in radial PAW
 Electronic Relaxation 1
   ENCUT  =  360.0 eV  26.46 Ry    5.14 a.u.   5.97  7.00 16.38*2*pi/ulx,y,z
   ENINI  =  360.0     initial cutoff
   ENAUG  =  446.8 eV  augmentation charge cutoff
   NELM   =    100;   NELMIN=  2; NELMDL= -5     # of ELM steps 
   EDIFF  = 0.1E-05   stopping-criterion for ELM
   LREAL  =      F    real-space projection
   NLSPLINE    = F    spline interpolate recip. space projectors
   LCOMPAT=      F    compatible to vasp.4.4
   GGA_COMPAT  = T    GGA compatible to vasp.4.4-vasp.4.6
   LMAXPAW     = -100 max onsite density
   LMAXMIX     =    4 max onsite mixed and CHGCAR
   VOSKOWN=      0    Vosko Wilk Nusair interpolation
   ROPT   =    0.00000   0.00000
 Ionic relaxation
   EDIFFG = 0.1E-04   stopping-criterion for IOM
   NSW    =      0    number of steps for IOM
   NBLOCK =      1;   KBLOCK =      1    inner block; outer block 
   IBRION =     -1    ionic relax: 0-MD 1-quasi-New 2-CG
   NFREE  =      0    steps in history (QN), initial steepest desc. (CG)
   ISIF   =      2    stress and relaxation
   IWAVPR =     10    prediction:  0-non 1-charg 2-wave 3-comb
   ISYM   =      0    0-nonsym 1-usesym 2-fastsym
   LCORR  =      T    Harris-Foulkes like correction to forces

   POTIM  = 0.5000    time-step for ionic-motion
   TEIN   =    0.0    initial temperature
   TEBEG  =    0.0;   TEEND  =   0.0 temperature during run
   SMASS  =  -3.00    Nose mass-parameter (am)
   estimated Nose-frequenzy (Omega)   =  0.10E-29 period in steps = 0.13E+47 mass=  -0.340E-27a.u.
   SCALEE = 1.0000    scale energy and forces
   NPACO  =    256;   APACO  = 10.0  distance and # of slots for P.C.
   PSTRESS=    0.0 pullay stress

  Mass of Ions in am
   POMASS =  72.61 78.96
  Ionic Valenz
   ZVAL   =   4.00  6.00
  Atomic Wigner-Seitz radii
   RWIGS  =  -1.00 -1.00
  virtual crystal weights 
   VCA    =   1.00  1.00
   NELECT =      40.0000    total number of electrons
   NUPDOWN=      -1.0000    fix difference up-down

 DOS related values:
   EMIN   =  10.00;   EMAX   =-10.00  energy-range for DOS
   EFERMI =   0.00;   METHOD = LEGACY      
   ISMEAR =     0;   SIGMA  =   0.05  broadening in eV -4-tet -1-fermi 0-gaus

 Electronic relaxation 2 (details)
   IALGO  =     38    algorithm
   LDIAG  =      T    sub-space diagonalisation (order eigenvalues)
   LSUBROT=      F    optimize rotation matrix (better conditioning)
   TURBO    =      0    0=normal 1=particle mesh
   IRESTART =      0    0=no restart 2=restart with 2 vectors
   NREBOOT  =      0    no. of reboots
   NMIN     =      0    reboot dimension
   EREF     =   0.00    reference energy to select bands
   IMIX   =      4    mixing-type and parameters
     AMIX     =   0.40;   BMIX     =  1.00
     AMIX_MAG =   1.60;   BMIX_MAG =  1.00
     AMIN     =   0.10
     WC   =   100.;   INIMIX=   1;  MIXPRE=   1;  MAXMIX= -45

 Intra band minimization:
   WEIMIN = 0.0000     energy-eigenvalue tresh-hold
   EBREAK =  0.78E-08  absolut break condition
   DEPER  =   0.30     relativ break condition  

   TIME   =   0.40     timestep for ELM

  volume/ion in A,a.u.               =      23.11       155.94
  Fermi-wavevector in a.u.,A,eV,Ry     =   0.982836  1.857291 13.142773  0.965967
  Thomas-Fermi vector in A             =   2.113949
 
 Write flags
   LWAVE        =      F    write WAVECAR
   LDOWNSAMPLE  =      F    k-point downsampling of WAVECAR
   LCHARG       =      F    write CHGCAR
   LVTOT        =      F    write LOCPOT, total local potential
   LVHAR        =      F    write LOCPOT, Hartree potential only
   LELF         =      F    write electronic localiz. function (ELF)
   LORBIT       =      0    0 simple, 1 ext, 2 COOP (PROOUT), +10 PAW based schemes


 Dipole corrections
   LMONO  =      F    monopole corrections only (constant potential shift)
   LDIPOL =      F    correct potential (dipole corrections)
   IDIPOL =      0    1-x, 2-y, 3-z, 4-all directions 
   EPSILON=  1.0000000 bulk dielectric constant

 Exchange correlation treatment:
   GGA     =    PE    GGA type
   LEXCH   =     8    internal setting for exchange type
   LIBXC   =     F    Libxc                    
   VOSKOWN =     0    Vosko Wilk Nusair interpolation
   LHFCALC =     F    Hartree Fock is set to
   LHFONE  =     F    Hartree Fock one center treatment
   AEXX    =    0.0000 exact exchange contribution

 Linear response parameters
   LEPSILON=     F    determine dielectric tensor
   LRPA    =     F    only Hartree local field effects (RPA)
   LNABLA  =     F    use nabla operator in PAW spheres
   LVEL    =     F    velocity operator in full k-point grid
   CSHIFT  =0.1000    complex shift for real part using Kramers Kronig
   OMEGAMAX=  -1.0    maximum frequency
   DEG_THRESHOLD= 0.2000000E-02 threshold for treating states as degnerate
   RTIME   =   -0.100 relaxation time in fs
  (WPLASMAI=    0.000 imaginary part of plasma frequency in eV, 0.658/RTIME)
   DFIELD  = 0.0000000 0.0000000 0.0000000 field for delta impulse in time
 
  Optional k-point grid parameters
   LKPOINTS_OPT  =     F    use optional k-point grid
   KPOINTS_OPT_MODE=     1    mode for optional k-point grid
 
 Orbital magnetization related:
   ORBITALMAG=     F  switch on orbital magnetization
   LCHIMAG   =     F  perturbation theory with respect to B field
   DQ        =  0.001000  dq finite difference perturbation B field
   LLRAUG    =     F  two centre corrections for induced B field
   LBONE     =     F  B-component reconstruction in AE one-centre
   LVGVCALC  =     T  calculate vGv susceptibility
   LVGVAPPL  =     F  apply vGv susceptibility instead of pGv for G=0

 Random number generation:
   RANDOM_GENERATOR = DEFAULT
   PCG_SEED         = not used


--------------------------------------------------------------------------------------------------------


 Static calculation
 charge density and potential will be updated during run
 non-spin polarized calculation
 Variant of blocked Davidson
 Davidson routine will perform the subspace rotation
 perform sub-space diagonalisation
    after iterative eigenvector-optimisation
 modified Broyden-mixing scheme, WC =      100.0
 initial mixing is a Kerker type mixing with AMIX =  0.4000 and BMIX =      1.0000
 Hartree-type preconditioning will be used
 using additional bands            12
 reciprocal scheme for non local part
 use partial core corrections
 calculate Harris-corrections to forces 
   (improved forces if not selfconsistent)
 use gradient corrections 
 use of overlap-Matrix (Vanderbilt PP)
 Gauss-broadening in eV      SIGMA  =   0.05


--------------------------------------------------------------------------------------------------------


  energy-cutoff  :      360.00
  volume of cell :      184.86
      direct lattice vectors                 reciprocal lattice vectors
     3.858100176  0.000000000  0.000000000     0.259194929  0.000000000  0.000000000
     0.000000000  4.526575088  0.000000000     0.000000000  0.220917577  0.000000000
     0.000000000  0.000000000 10.585176468     0.000000000  0.000000000  0.094471736

  length of vectors
     3.858100176  4.526575088 10.585176468     0.259194929  0.220917577  0.094471736


 
 k-points in units of 2pi/SCALE and weight: KPOINTS created by Atomic Simulation Env
   0.00000000  0.00000000  0.00000000       0.014
   0.04319915  0.00000000  0.00000000       0.028
   0.08639831  0.00000000  0.00000000       0.028
   0.12959746  0.00000000  0.00000000       0.014
   0.00000000  0.03681960  0.00000000       0.028
   0.04319915  0.03681960  0.00000000       0.028
   0.04319915 -0.03681960  0.00000000       0.028
   0.08639831  0.03681960  0.00000000       0.028
   0.08639831 -0.03681960  0.00000000       0.028
   0.12959746  0.03681960  0.00000000       0.028
   0.00000000  0.07363919  0.00000000       0.028
   0.04319915  0.07363919  0.00000000       0.028
   0.04319915 -0.07363919  0.00000000       0.028
   0.08639831  0.07363919  0.00000000       0.028
   0.08639831 -0.07363919  0.00000000       0.028
   0.12959746  0.07363919  0.00000000       0.028
   0.00000000  0.11045879  0.00000000       0.014
   0.04319915  0.11045879  0.00000000       0.028
   0.08639831  0.11045879  0.00000000       0.028
   0.12959746  0.11045879  0.00000000       0.014
   0.00000000  0.00000000  0.04723587       0.014
   0.04319915  0.00000000  0.04723587       0.028
   0.08639831  0.00000000  0.04723587       0.028
   0.12959746  0.00000000  0.04723587       0.014
   0.00000000  0.03681960  0.04723587       0.028
   0.04319915  0.03681960  0.04723587       0.028
   0.04319915 -0.03681960  0.04723587       0.028
   0.08639831  0.03681960  0.04723587       0.028
   0.08639831 -0.03681960  0.04723587       0.028
   0.12959746  0.03681960  0.04723587       0.028
   0.00000000  0.07363919  0.04723587       0.028
   0.04319915  0.07363919  0.04723587       0.028
   0.04319915 -0.07363919  0.04723587       0.028
   0.08639831  0.07363919  0.04723587       0.028
   0.08639831 -0.07363919  0.04723587       0.028
   0.12959746  0.07363919  0.04723587       0.028
   0.00000000  0.11045879  0.04723587       0.014
   0.04319915  0.11045879  0.04723587       0.028
   0.08639831  0.11045879  0.04723587       0.028
   0.12959746  0.11045879  0.04723587       0.014
 
 k-points in reciprocal lattice and weights: KPOINTS created by Atomic Simulation Env
   0.00000000  0.00000000  0.00000000       0.014
   0.16666667  0.00000000  0.00000000       0.028
   0.33333333  0.00000000  0.00000000       0.028
   0.50000000  0.00000000  0.00000000       0.014
   0.00000000  0.16666667  0.00000000       0.028
   0.16666667  0.16666667  0.00000000       0.028
   0.16666667 -0.16666667  0.00000000       0.028
   0.33333333  0.16666667  0.00000000       0.028
   0.33333333 -0.16666667  0.00000000       0.028
   0.50000000  0.16666667  0.00000000       0.028
   0.00000000  0.33333333  0.00000000       0.028
   0.16666667  0.33333333  0.00000000       0.028
   0.16666667 -0.33333333  0.00000000       0.028
   0.33333333  0.33333333  0.00000000       0.028
   0.33333333 -0.33333333  0.00000000       0.028
   0.50000000  0.33333333  0.00000000       0.028
   0.00000000  0.50000000  0.00000000       0.014
   0.16666667  0.50000000  0.00000000       0.028
   0.33333333  0.50000000  0.00000000       0.028
   0.50000000  0.50000000  0.00000000       0.014
   0.00000000  0.00000000  0.50000000       0.014
   0.16666667  0.00000000  0.50000000       0.028
   0.33333333  0.00000000  0.50000000       0.028
   0.50000000  0.00000000  0.50000000       0.014
   0.00000000  0.16666667  0.50000000       0.028
   0.16666667  0.16666667  0.50000000       0.028
   0.16666667 -0.16666667  0.50000000       0.028
   0.33333333  0.16666667  0.50000000       0.028
   0.33333333 -0.16666667  0.50000000       0.028
   0.50000000  0.16666667  0.50000000       0.028
   0.00000000  0.33333333  0.50000000       0.028
   0.16666667  0.33333333  0.50000000       0.028
   0.16666667 -0.33333333  0.50000000       0.028
   0.33333333  0.33333333  0.50000000       0.028
   0.33333333 -0.33333333  0.50000000       0.028
   0.50000000  0.33333333  0.50000000       0.028
   0.00000000  0.50000000  0.50000000       0.014
   0.16666667  0.50000000  0.50000000       0.028
   0.33333333  0.50000000  0.50000000       0.028
   0.50000000  0.50000000  0.50000000       0.014
 
 position of ions in fractional coordinates (direct lattice) 
   0.13405768  0.16267438  0.11629323
   0.63405773  0.66267441  0.38370666
   0.74999953  0.88080355  0.88370670
   0.24999891  0.38080359  0.61629330
   0.13405775  0.03841947  0.35452175
   0.63405763  0.53841957  0.14547826
   0.74999912  0.00505836  0.64547820
   0.24999942  0.50505845  0.85452174
 
 position of ions in cartesian coordinates  (Angst):
   0.51720796  0.73635781  1.23098441
   2.44625823  2.99964547  4.06160274
   2.89357331  3.98702340  9.35419135
   0.96452085  1.72373604  6.52357335
   0.51720824  0.17390862  3.75267533
   2.44625786  2.43719662  1.53991301
   2.89357173  0.02289706  6.83250071
   0.96452282  2.28618498  9.04526339
 


--------------------------------------------------------------------------------------------------------


 k-point   1 :   0.0000 0.0000 0.0000  plane waves:    2825
 k-point   2 :   0.1667 0.0000 0.0000  plane waves:    2856
 k-point   3 :   0.3333 0.0000 0.0000  plane waves:    2864
 k-point   4 :   0.5000 0.0000 0.0000  plane waves:    2880
 k-point   5 :   0.0000 0.1667 0.0000  plane waves:    2850
 k-point   6 :   0.1667 0.1667 0.0000  plane waves:    2853
 k-point   7 :   0.1667-0.1667 0.0000  plane waves:    2853
 k-point   8 :   0.3333 0.1667 0.0000  plane waves:    2873
 k-point   9 :   0.3333-0.1667 0.0000  plane waves:    2873
 k-point  10 :   0.5000 0.1667 0.0000  plane waves:    2866
 k-point  11 :   0.0000 0.3333 0.0000  plane waves:    2864
 k-point  12 :   0.1667 0.3333 0.0000  plane waves:    2871
 k-point  13 :   0.1667-0.3333 0.0000  plane waves:    2871
 k-point  14 :   0.3333 0.3333 0.0000  plane waves:    2883
 k-point  15 :   0.3333-0.3333 0.0000  plane waves:    2883
 k-point  16 :   0.5000 0.3333 0.0000  plane waves:    2880
 k-point  17 :   0.0000 0.5000 0.0000  plane waves:    2874
 k-point  18 :   0.1667 0.5000 0.0000  plane waves:    2880
 k-point  19 :   0.3333 0.5000 0.0000  plane waves:    2888
 k-point  20 :   0.5000 0.5000 0.0000  plane waves:    2896
 k-point  21 :   0.0000 0.0000 0.5000  plane waves:    2828
 k-point  22 :   0.1667 0.0000 0.5000  plane waves:    2838
 k-point  23 :   0.3333 0.0000 0.5000  plane waves:    2868
 k-point  24 :   0.5000 0.0000 0.5000  plane waves:    2852
 k-point  25 :   0.0000 0.1667 0.5000  plane waves:    2846
 k-point  26 :   0.1667 0.1667 0.5000  plane waves:    2868
 k-point  27 :   0.1667-0.1667 0.5000  plane waves:    2868
 k-point  28 :   0.3333 0.1667 0.5000  plane waves:    2866
 k-point  29 :   0.3333-0.1667 0.5000  plane waves:    2866
 k-point  30 :   0.5000 0.1667 0.5000  plane waves:    2884
 k-point  31 :   0.0000 0.3333 0.5000  plane waves:    2852
 k-point  32 :   0.1667 0.3333 0.5000  plane waves:    2862
 k-point  33 :   0.1667-0.3333 0.5000  plane waves:    2862
 k-point  34 :   0.3333 0.3333 0.5000  plane waves:    2874
 k-point  35 :   0.3333-0.3333 0.5000  plane waves:    2874
 k-point  36 :   0.5000 0.3333 0.5000  plane waves:    2892
 k-point  37 :   0.0000 0.5000 0.5000  plane waves:    2872
 k-point  38 :   0.1667 0.5000 0.5000  plane waves:    2856
 k-point  39 :   0.3333 0.5000 0.5000  plane waves:    2876
 k-point  40 :   0.5000 0.5000 0.5000  plane waves:    2872

 maximum and minimum number of plane-waves per node :       592      553

 maximum number of plane-waves:      2896
 maximum index in each direction: 
   IXMAX=    5   IYMAX=    7   IZMAX=   16
   IXMIN=   -6   IYMIN=   -7   IZMIN=  -16


 parallel 3D FFT for wavefunctions:
    minimum data exchange during FFTs selected (reduces bandwidth)
 parallel 3D FFT for charge:
    minimum data exchange during FFTs selected (reduces bandwidth)


 total amount of memory used by VASP MPI-rank0    36587. kBytes
=======================================================================

   base      :      30000. kBytes
   nonl-proj :       5001. kBytes
   fftplans  :        306. kBytes
   grid      :        466. kBytes
   one-center:         16. kBytes
   wavefun   :        798. kBytes
 
     INWAV:  cpu time      0.0000: real time      0.0001
 Broyden mixing: mesh for mixing (old mesh)
   NGX = 11   NGY = 15   NGZ = 33
  (NGX  = 36   NGY  = 48   NGZ  =100)
  gives a total of   5445 points

 initial charge density was supplied:
 charge density of overlapping atoms calculated
 number of electron      40.0000000 magnetization 
 keeping initial charge density in first step


--------------------------------------------------------------------------------------------------------


 Maximum index for augmentation-charges           345 (set IRDMAX)


--------------------------------------------------------------------------------------------------------


 First call to EWALD:  gamma=   0.311
 Maximum number of real-space cells 4x 3x 2
 Maximum number of reciprocal cells 2x 2x 5

    FEWALD:  cpu time      0.0014: real time      0.0014


--------------------------------------- Ionic step        1  -------------------------------------------




--------------------------------------- Iteration      1(   1)  ---------------------------------------


    POTLOK:  cpu time      0.0085: real time      0.0086
    SETDIJ:  cpu time      0.2163: real time      0.2168
     EDDAV:  cpu time      0.3043: real time      0.3058
       DOS:  cpu time      0.0009: real time      0.0009
    --------------------------------------------
      LOOP:  cpu time      0.5301: real time      0.5321

 eigenvalue-minimisations  :  2560
 total energy-change (2. order) : 0.1297983E+03  (-0.1296158E+04)
 number of electron      40.0000000 magnetization 
 augmentation part       40.0000000 magnetization 

 Free energy of the ion-electron system (eV)
  ---------------------------------------------------
  alpha Z        PSCENC =        91.66130333
  Ewald energy   TEWEN  =     -1449.71826711
  -Hartree energ DENC   =      -115.34515607
  -exchange      EXHF   =         0.00000000
  -V(xc)+E(xc)   XCENC  =       -32.84551358
  PAW double counting   =      1193.78262552    -1080.73714043
  entropy T*S    EENTRO =        -0.00367368
  eigenvalues    EBANDS =        74.51954908
  atomic energy  EATOM  =      1448.48460880
  Solvation  Ediel_sol  =         0.00000000
  ---------------------------------------------------
  free energy    TOTEN  =       129.79833585 eV

  energy without entropy =      129.80200953  energy(sigma->0) =      129.80017269


--------------------------------------------------------------------------------------------------------




--------------------------------------- Iteration      1(   2)  ---------------------------------------


     EDDAV:  cpu time      0.4288: real time      0.4314
       DOS:  cpu time      0.0005: real time      0.0005
    --------------------------------------------
      LOOP:  cpu time      0.4293: real time      0.4319

 eigenvalue-minimisations  :  3760
 total energy-change (2. order) :-0.1555076E+03  (-0.1510670E+03)
 number of electron      40.0000000 magnetization 
 augmentation part       40.0000000 magnetization 

 Free energy of the ion-electron system (eV)
  ---------------------------------------------------
  alpha Z        PSCENC =        91.66130333
  Ewald energy   TEWEN  =     -1449.71826711
  -Hartree energ DENC   =      -115.34515607
  -exchange      EXHF   =         0.00000000
  -V(xc)+E(xc)   XCENC  =       -32.84551358
  PAW double counting   =      1193.78262552    -1080.73714043
  entropy T*S    EENTRO =        -0.00000000
  eigenvalues    EBANDS =       -80.99174616
  atomic energy  EATOM  =      1448.48460880
  Solvation  Ediel_sol  =         0.00000000
  ---------------------------------------------------
  free energy    TOTEN  =       -25.70928572 eV

  energy without entropy =      -25.70928572  energy(sigma->0) =      -25.70928572


--------------------------------------------------------------------------------------------------------




--------------------------------------- Iteration      1(   3)  ---------------------------------------


     EDDAV:  cpu time      0.3550: real time      0.3570
       DOS:  cpu time      0.0005: real time      0.0005
    --------------------------------------------
      LOOP:  cpu time      0.3555: real time      0.3575

 eigenvalue-minimisations  :  3168
 total energy-change (2. order) :-0.8225725E+01  (-0.8210579E+01)
 number of electron      40.0000000 magnetization 
 augmentation part       40.0000000 magnetization 

 Free energy of the ion-electron system (eV)
  ---------------------------------------------------
  alpha Z        PSCENC =        91.66130333
  Ewald energy   TEWEN  =     -1449.71826711
  -Hartree energ DENC   =      -115.34515607
  -exchange      EXHF   =         0.00000000
  -V(xc)+E(xc)   XCENC  =       -32.84551358
  PAW double counting   =      1193.78262552    -1080.73714043
  entropy T*S    EENTRO =        -0.00000000
  eigenvalues    EBANDS =       -89.21747164
  atomic energy  EATOM  =      1448.48460880
  Solvation  Ediel_sol  =         0.00000000
  ---------------------------------------------------
  free energy    TOTEN  =       -33.93501120 eV

  energy without entropy =      -33.93501120  energy(sigma->0) =      -33.93501120


--------------------------------------------------------------------------------------------------------




--------------------------------------- Iteration      1(   4)  ---------------------------------------


     EDDAV:  cpu time      0.3802: real time      0.3842
       DOS:  cpu time      0.0005: real time      0.0005
    --------------------------------------------
      LOOP:  cpu time      0.3807: real time      0.3847

 eigenvalue-minimisations  :  3296
 total energy-change (2. order) :-0.5236414E-01  (-0.5235194E-01)
 number of electron      40.0000000 magnetization 
 augmentation part       40.0000000 magnetization 

 Free energy of the ion-electron system (eV)
  ---------------------------------------------------
  alpha Z        PSCENC =        91.66130333
  Ewald energy   TEWEN  =     -1449.71826711
  -Hartree energ DENC   =      -115.34515607
  -exchange      EXHF   =         0.00000000
  -V(xc)+E(xc)   XCENC  =       -32.84551358
  PAW double counting   =      1193.78262552    -1080.73714043
  entropy T*S    EENTRO =        -0.00000000
  eigenvalues    EBANDS =       -89.26983578
  atomic energy  EATOM  =      1448.48460880
  Solvation  Ediel_sol  =         0.00000000
  ---------------------------------------------------
  free energy    TOTEN  =       -33.98737534 eV

  energy without entropy =      -33.98737534  energy(sigma->0) =      -33.98737534


--------------------------------------------------------------------------------------------------------




--------------------------------------- Iteration      1(   5)  ---------------------------------------


     EDDAV:  cpu time      0.3554: real time      0.3573
       DOS:  cpu time      0.0005: real time      0.0005
    CHARGE:  cpu time      0.0054: real time      0.0054
    MIXING:  cpu time      0.0004: real time      0.0004
    --------------------------------------------
      LOOP:  cpu time      0.3617: real time      0.3636

 eigenvalue-minimisations  :  3120
 total energy-change (2. order) :-0.3065574E-03  (-0.3065445E-03)
 number of electron      40.0000031 magnetization 
 augmentation part       -7.4044012 magnetization 

 Broyden mixing:
  rms(total) = 0.66537E+00    rms(broyden)= 0.66536E+00
  rms(prec ) = 0.74856E+00
  weight for this iteration     100.00

 Free energy of the ion-electron system (eV)
  ---------------------------------------------------
  alpha Z        PSCENC =        91.66130333
  Ewald energy   TEWEN  =     -1449.71826711
  -Hartree energ DENC   =      -115.34515607
  -exchange      EXHF   =         0.00000000
  -V(xc)+E(xc)   XCENC  =       -32.84551358
  PAW double counting   =      1193.78262552    -1080.73714043
  entropy T*S    EENTRO =        -0.00000000
  eigenvalues    EBANDS =       -89.27014234
  atomic energy  EATOM  =      1448.48460880
  Solvation  Ediel_sol  =         0.00000000
  ---------------------------------------------------
  free energy    TOTEN  =       -33.98768190 eV

  energy without entropy =      -33.98768190  energy(sigma->0) =      -33.98768190


--------------------------------------------------------------------------------------------------------




--------------------------------------- Iteration      1(   6)  ---------------------------------------


    POTLOK:  cpu time      0.0075: real time      0.0076
    SETDIJ:  cpu time      0.2182: real time      0.2185
     EDDAV:  cpu time      0.3660: real time      0.3676
       DOS:  cpu time      0.0005: real time      0.0005
    CHARGE:  cpu time      0.0061: real time      0.0061
    MIXING:  cpu time      0.0005: real time      0.0005
    --------------------------------------------
      LOOP:  cpu time      0.5988: real time      0.6009

 eigenvalue-minimisations  :  3152
 total energy-change (2. order) : 0.3523339E+00  (-0.6672970E-01)
 number of electron      40.0000031 magnetization 
 augmentation part       -7.3537919 magnetization 

 Broyden mixing:
  rms(total) = 0.41930E+00    rms(broyden)= 0.41930E+00
  rms(prec ) = 0.44275E+00
  weight for this iteration     100.00

 eigenvalues of (default mixing * dielectric matrix)
  average eigenvalue GAMMA=   2.2871
  2.2871

 Free energy of the ion-electron system (eV)
  ---------------------------------------------------
  alpha Z        PSCENC =        91.66130333
  Ewald energy   TEWEN  =     -1449.71826711
  -Hartree energ DENC   =      -120.81625082
  -exchange      EXHF   =         0.00000000
  -V(xc)+E(xc)   XCENC  =       -32.26080392
  PAW double counting   =      1470.23356550    -1357.52191531
  entropy T*S    EENTRO =        -0.00000000
  eigenvalues    EBANDS =       -83.69758845
  atomic energy  EATOM  =      1448.48460880
  Solvation  Ediel_sol  =         0.00000000
  ---------------------------------------------------
  free energy    TOTEN  =       -33.63534799 eV

  energy without entropy =      -33.63534799  energy(sigma->0) =      -33.63534799


--------------------------------------------------------------------------------------------------------




--------------------------------------- Iteration      1(   7)  ---------------------------------------


    POTLOK:  cpu time      0.0073: real time      0.0075
    SETDIJ:  cpu time      0.2179: real time      0.2186
     EDDAV:  cpu time      0.3502: real time      0.3519
       DOS:  cpu time      0.0006: real time      0.0006
    CHARGE:  cpu time      0.0052: real time      0.0052
    MIXING:  cpu time      0.0006: real time      0.0006
    --------------------------------------------
      LOOP:  cpu time      0.5818: real time      0.5843

 eigenvalue-minimisations  :  3056
 total energy-change (2. order) : 0.1763170E-01  (-0.2350846E-01)
 number of electron      40.0000031 magnetization 
 augmentation part       -7.3398717 magnetization 

 Broyden mixing:
  rms(total) = 0.12224E+00    rms(broyden)= 0.12224E+00
  rms(prec ) = 0.13115E+00
  weight for this iteration     100.00

 eigenvalues of (default mixing * dielectric matrix)
  average eigenvalue GAMMA=   1.8121
  1.2113  2.4128

 Free energy of the ion-electron system (eV)
  ---------------------------------------------------
  alpha Z        PSCENC =        91.66130333
  Ewald energy   TEWEN  =     -1449.71826711
  -Hartree energ DENC   =      -123.57214362
  -exchange      EXHF   =         0.00000000
  -V(xc)+E(xc)   XCENC  =       -31.76219441
  PAW double counting   =      1832.14158148    -1719.70687347
  entropy T*S    EENTRO =        -0.00000000
  eigenvalues    EBANDS =       -81.14573128
  atomic energy  EATOM  =      1448.48460880
  Solvation  Ediel_sol  =         0.00000000
  ---------------------------------------------------
  free energy    TOTEN  =       -33.61771629 eV

  energy without entropy =      -33.61771629  energy(sigma->0) =      -33.61771629


--------------------------------------------------------------------------------------------------------




--------------------------------------- Iteration      1(   8)  ---------------------------------------


    POTLOK:  cpu time      0.0072: real time      0.0074
    SETDIJ:  cpu time      0.2153: real time      0.2159
     EDDAV:  cpu time      0.3804: real time      0.3819
       DOS:  cpu time      0.0006: real time      0.0006
    CHARGE:  cpu time      0.0054: real time      0.0054
    MIXING:  cpu time      0.0005: real time      0.0005
    --------------------------------------------
      LOOP:  cpu time      0.6094: real time      0.6117

 eigenvalue-minimisations  :  3024
 total energy-change (2. order) : 0.1794298E-02  (-0.2240315E-02)
 number of electron      40.0000031 magnetization 
 augmentation part       -7.3483331 magnetization 

 Broyden mixing:
  rms(total) = 0.17914E-01    rms(broyden)= 0.17913E-01
  rms(prec ) = 0.21802E-01
  weight for this iteration     100.00

 eigenvalues of (default mixing * dielectric matrix)
  average eigenvalue GAMMA=   1.7211
  2.5037  1.3298  1.3298

 Free energy of the ion-electron system (eV)
  ---------------------------------------------------
  alpha Z        PSCENC =        91.66130333
  Ewald energy   TEWEN  =     -1449.71826711
  -Hartree energ DENC   =      -123.56738180
  -exchange      EXHF   =         0.00000000
  -V(xc)+E(xc)   XCENC  =       -31.64104202
  PAW double counting   =      1965.12688612    -1852.75235301
  entropy T*S    EENTRO =        -0.00000000
  eigenvalues    EBANDS =       -81.20967629
  atomic energy  EATOM  =      1448.48460880
  Solvation  Ediel_sol  =         0.00000000
  ---------------------------------------------------
  free energy    TOTEN  =       -33.61592200 eV

  energy without entropy =      -33.61592200  energy(sigma->0) =      -33.61592200


--------------------------------------------------------------------------------------------------------




--------------------------------------- Iteration      1(   9)  ---------------------------------------


    POTLOK:  cpu time      0.0073: real time      0.0075
    SETDIJ:  cpu time      0.2176: real time      0.2183
     EDDAV:  cpu time      0.3750: real time      0.3768
       DOS:  cpu time      0.0006: real time      0.0005
    CHARGE:  cpu time      0.0052: real time      0.0053
    MIXING:  cpu time      0.0005: real time      0.0005
    --------------------------------------------
      LOOP:  cpu time      0.6062: real time      0.6089

 eigenvalue-minimisations  :  3120
 total energy-change (2. order) :-0.2219175E-03  (-0.3479612E-03)
 number of electron      40.0000031 magnetization 
 augmentation part       -7.3467403 magnetization 

 Broyden mixing:
  rms(total) = 0.60858E-02    rms(broyden)= 0.60858E-02
  rms(prec ) = 0.68516E-02
  weight for this iteration     100.00

 eigenvalues of (default mixing * dielectric matrix)
  average eigenvalue GAMMA=   1.7103
  2.2387  2.2387  1.1820  1.1820

 Free energy of the ion-electron system (eV)
  ---------------------------------------------------
  alpha Z        PSCENC =        91.66130333
  Ewald energy   TEWEN  =     -1449.71826711
  -Hartree energ DENC   =      -123.87038100
  -exchange      EXHF   =         0.00000000
  -V(xc)+E(xc)   XCENC  =       -31.60662713
  PAW double counting   =      1977.77940068    -1865.41342231
  entropy T*S    EENTRO =        -0.00000000
  eigenvalues    EBANDS =       -80.93275916
  atomic energy  EATOM  =      1448.48460880
  Solvation  Ediel_sol  =         0.00000000
  ---------------------------------------------------
  free energy    TOTEN  =       -33.61614391 eV

  energy without entropy =      -33.61614391  energy(sigma->0) =      -33.61614391


--------------------------------------------------------------------------------------------------------




--------------------------------------- Iteration      1(  10)  ---------------------------------------


    POTLOK:  cpu time      0.0073: real time      0.0075
    SETDIJ:  cpu time      0.2179: real time      0.2184
     EDDAV:  cpu time      0.4200: real time      0.4220
       DOS:  cpu time      0.0006: real time      0.0006
    CHARGE:  cpu time      0.0052: real time      0.0053
    MIXING:  cpu time      0.0005: real time      0.0005
    --------------------------------------------
      LOOP:  cpu time      0.6515: real time      0.6541

 eigenvalue-minimisations  :  3296
 total energy-change (2. order) :-0.7200869E-04  (-0.2230322E-04)
 number of electron      40.0000031 magnetization 
 augmentation part       -7.3466567 magnetization 

 Broyden mixing:
  rms(total) = 0.22910E-02    rms(broyden)= 0.22910E-02
  rms(prec ) = 0.28618E-02
  weight for this iteration     100.00

 eigenvalues of (default mixing * dielectric matrix)
  average eigenvalue GAMMA=   1.7560
  2.7086  2.3475  1.1390  1.2923  1.2923

 Free energy of the ion-electron system (eV)
  ---------------------------------------------------
  alpha Z        PSCENC =        91.66130333
  Ewald energy   TEWEN  =     -1449.71826711
  -Hartree energ DENC   =      -123.89401498
  -exchange      EXHF   =         0.00000000
  -V(xc)+E(xc)   XCENC  =       -31.60425183
  PAW double counting   =      1972.09522403    -1859.72485166
  entropy T*S    EENTRO =        -0.00000000
  eigenvalues    EBANDS =       -80.91596650
  atomic energy  EATOM  =      1448.48460880
  Solvation  Ediel_sol  =         0.00000000
  ---------------------------------------------------
  free energy    TOTEN  =       -33.61621592 eV

  energy without entropy =      -33.61621592  energy(sigma->0) =      -33.61621592


--------------------------------------------------------------------------------------------------------




--------------------------------------- Iteration      1(  11)  ---------------------------------------


    POTLOK:  cpu time      0.0072: real time      0.0073
    SETDIJ:  cpu time      0.2179: real time      0.2183
     EDDAV:  cpu time      0.3353: real time      0.3369
       DOS:  cpu time      0.0006: real time      0.0006
    CHARGE:  cpu time      0.0056: real time      0.0056
    MIXING:  cpu time      0.0007: real time      0.0007
    --------------------------------------------
      LOOP:  cpu time      0.5673: real time      0.5694

 eigenvalue-minimisations  :  2832
 total energy-change (2. order) :-0.2514785E-04  (-0.3676754E-05)
 number of electron      40.0000031 magnetization 
 augmentation part       -7.3468917 magnetization 

 Broyden mixing:
  rms(total) = 0.11713E-02    rms(broyden)= 0.11713E-02
  rms(prec ) = 0.12994E-02
  weight for this iteration     100.00

 eigenvalues of (default mixing * dielectric matrix)
  average eigenvalue GAMMA=   1.7169
  2.5524  2.2360  2.2360  1.1900  1.1900  0.8970

 Free energy of the ion-electron system (eV)
  ---------------------------------------------------
  alpha Z        PSCENC =        91.66130333
  Ewald energy   TEWEN  =     -1449.71826711
  -Hartree energ DENC   =      -123.91750997
  -exchange      EXHF   =         0.00000000
  -V(xc)+E(xc)   XCENC  =       -31.59800555
  PAW double counting   =      1973.63325359    -1861.26327255
  entropy T*S    EENTRO =        -0.00000000
  eigenvalues    EBANDS =       -80.89835160
  atomic energy  EATOM  =      1448.48460880
  Solvation  Ediel_sol  =         0.00000000
  ---------------------------------------------------
  free energy    TOTEN  =       -33.61624107 eV

  energy without entropy =      -33.61624107  energy(sigma->0) =      -33.61624107


--------------------------------------------------------------------------------------------------------




--------------------------------------- Iteration      1(  12)  ---------------------------------------


    POTLOK:  cpu time      0.0073: real time      0.0075
    SETDIJ:  cpu time      0.2169: real time      0.2174
     EDDAV:  cpu time      0.4295: real time      0.4316
       DOS:  cpu time      0.0005: real time      0.0005
    --------------------------------------------
      LOOP:  cpu time      0.6542: real time      0.6569

 eigenvalue-minimisations  :  3520
 total energy-change (2. order) :-0.4129674E-09  (-0.4596488E-06)
 number of electron      40.0000031 magnetization 
 augmentation part       -7.3468917 magnetization 

 Free energy of the ion-electron system (eV)
  ---------------------------------------------------
  alpha Z        PSCENC =        91.66130333
  Ewald energy   TEWEN  =     -1449.71826711
  -Hartree energ DENC   =      -123.93023375
  -exchange      EXHF   =         0.00000000
  -V(xc)+E(xc)   XCENC  =       -31.59715970
  PAW double counting   =      1972.82836343    -1860.45811228
  entropy T*S    EENTRO =        -0.00000000
  eigenvalues    EBANDS =       -80.88674379
  atomic energy  EATOM  =      1448.48460880
  Solvation  Ediel_sol  =         0.00000000
  ---------------------------------------------------
  free energy    TOTEN  =       -33.61624107 eV

  energy without entropy =      -33.61624107  energy(sigma->0) =      -33.61624107


--------------------------------------------------------------------------------------------------------




 average (electrostatic) potential at core
  the test charge radii are     1.1631  1.0808
  (the norm of the test charge is              1.0000)
       1 -33.0690       2 -33.0690       3 -33.0690       4 -33.0690       5 -54.5932
       6 -54.5932       7 -54.5932       8 -54.5932
 
 
 
 E-fermi :   3.8711     XC(G=0):  -9.5124     alpha+bet : -9.1315

 Fermi energy:         3.8711158399

 k-point     1 :       0.0000    0.0000    0.0000
  band No.  band energies     occupation 
      1     -10.7654      2.00000
      2     -10.2516      2.00000
      3      -9.5009      2.00000
      4      -8.7306      2.00000
      5      -4.5055      2.00000
      6      -3.8292      2.00000
      7      -2.3619      2.00000
      8      -1.9564      2.00000
      9      -1.6828      2.00000
     10      -0.1451      2.00000
     11       0.2848      2.00000
     12       0.3277      2.00000
     13       0.3924      2.00000
     14       0.8374      2.00000
     15       1.6617      2.00000
     16       1.8311      2.00000
     17       2.3132      2.00000
     18       2.6754      2.00000
     19       3.1033      2.00000
     20       3.5694      2.00000
     21       4.7436      0.00000
     22       6.0598      0.00000
     23       6.1935      0.00000
     24       6.4123      0.00000
     25       6.6023      0.00000
     26       6.8993      0.00000
     27       7.1109      0.00000
     28       7.5455      0.00000
     29       8.5299      0.00000
     30       9.0465      0.00000
     31       9.1383      0.00000
     32       9.6261      0.00000

 k-point     2 :       0.1667    0.0000    0.0000
  band No.  band energies     occupation 
      1     -10.5708      2.00000
      2     -10.0784      2.00000
      3      -9.3752      2.00000
      4      -8.6957      2.00000
      5      -4.7068      2.00000
      6      -4.0456      2.00000
      7      -2.8171      2.00000
      8      -2.3610      2.00000
      9      -1.5344      2.00000
     10      -0.0455      2.00000
     11       0.0801      2.00000
     12       0.4029      2.00000
     13       0.4054      2.00000
     14       0.6648      2.00000
     15       1.7326      2.00000
     16       1.8130      2.00000
     17       1.9094      2.00000
     18       2.6723      2.00000
     19       3.3063      2.00000
     20       3.4665      2.00000
     21       4.9012      0.00000
     22       5.6242      0.00000
     23       5.9927      0.00000
     24       6.7373      0.00000
     25       6.7499      0.00000
     26       6.9676      0.00000
     27       7.3114      0.00000
     28       7.4087      0.00000
     29       7.4998      0.00000
     30       8.5841      0.00000
     31       8.7035      0.00000
     32       9.4834      0.00000

 k-point     3 :       0.3333    0.0000    0.0000
  band No.  band energies     occupation 
      1     -10.0334      2.00000
      2      -9.6234      2.00000
      3      -9.1468      2.00000
      4      -8.7690      2.00000
      5      -5.1277      2.00000
      6      -4.3888      2.00000
      7      -4.0712      2.00000
      8      -3.2200      2.00000
      9      -0.9760      2.00000
     10      -0.0374      2.00000
     11       0.3244      2.00000
     12       0.6904      2.00000
     13       0.7317      2.00000
     14       0.8523      2.00000
     15       1.4952      2.00000
     16       1.8511      2.00000
     17       2.0359      2.00000
     18       2.3109      2.00000
     19       3.0644      2.00000
     20       3.1700      2.00000
     21       4.5605      0.00000
     22       5.0777      0.00000
     23       5.1436      0.00000
     24       5.6261      0.00000
     25       5.7535      0.00000
     26       5.9354      0.00000
     27       6.5554      0.00000
     28       7.3304      0.00000
     29       7.6690      0.00000
     30       8.0214      0.00000
     31       8.1172      0.00000
     32       9.4461      0.00000

 k-point     4 :       0.5000    0.0000    0.0000
  band No.  band energies     occupation 
      1      -9.3531      2.00000
      2      -9.3531      2.00000
      3      -9.1278      2.00000
      4      -9.1278      2.00000
      5      -5.0355      2.00000
      6      -5.0355      2.00000
      7      -4.1233      2.00000
      8      -4.1233      2.00000
      9      -0.1885      2.00000
     10      -0.1885      2.00000
     11       0.7564      2.00000
     12       0.7564      2.00000
     13       1.0826      2.00000
     14       1.0826      2.00000
     15       1.4841      2.00000
     16       1.4841      2.00000
     17       2.0439      2.00000
     18       2.0439      2.00000
     19       2.8262      2.00000
     20       2.8262      2.00000
     21       4.5965      0.00000
     22       4.5966      0.00000
     23       5.0199      0.00000
     24       5.0199      0.00000
     25       5.5113      0.00000
     26       5.5113      0.00000
     27       6.3373      0.00000
     28       6.3373      0.00000
     29       7.2955      0.00000
     30       7.2955      0.00000
     31       8.7932      0.00000
     32       8.7932      0.00000

 k-point     5 :       0.0000    0.1667    0.0000
  band No.  band energies     occupation 
      1     -10.6488      2.00000
      2     -10.1414      2.00000
      3      -9.5095      2.00000
      4      -8.8000      2.00000
      5      -4.8791      2.00000
      6      -3.8330      2.00000
      7      -3.1569      2.00000
      8      -2.2554      2.00000
      9      -1.4990      2.00000
     10       0.1184      2.00000
     11       0.5274      2.00000
     12       0.7481      2.00000
     13       0.9728      2.00000
     14       0.9794      2.00000
     15       1.7099      2.00000
     16       2.0668      2.00000
     17       2.2645      2.00000
     18       2.3991      2.00000
     19       3.4012      2.00000
     20       3.6210      2.00000
     21       4.7902      0.00000
     22       5.4576      0.00000
     23       6.1857      0.00000
     24       6.1872      0.00000
     25       6.6138      0.00000
     26       6.6184      0.00000
     27       7.2960      0.00000
     28       7.4022      0.00000
     29       7.8427      0.00000
     30       8.5834      0.00000
     31       8.6947      0.00000
     32       9.5782      0.00000

 k-point     6 :       0.1667    0.1667    0.0000
  band No.  band energies     occupation 
      1     -10.4583      2.00000
      2      -9.9749      2.00000
      3      -9.3867      2.00000
      4      -8.7518      2.00000
      5      -4.9683      2.00000
      6      -3.9403      2.00000
      7      -3.4092      2.00000
      8      -2.4340      2.00000
      9      -1.3619      2.00000
     10      -0.5452      2.00000
     11      -0.1179      2.00000
     12       0.5086      2.00000
     13       1.1433      2.00000
     14       1.2326      2.00000
     15       1.2561      2.00000
     16       1.8663      2.00000
     17       2.3527      2.00000
     18       2.3723      2.00000
     19       3.2565      2.00000
     20       3.6570      2.00000
     21       4.8947      0.00000
     22       5.4781      0.00000
     23       5.8354      0.00000
     24       5.8521      0.00000
     25       6.9373      0.00000
     26       6.9700      0.00000
     27       7.6290      0.00000
     28       7.6949      0.00000
     29       7.8717      0.00000
     30       8.0714      0.00000
     31       8.4490      0.00000
     32       9.9398      0.00000

 k-point     7 :       0.1667   -0.1667    0.0000
  band No.  band energies     occupation 
      1     -10.4603      2.00000
      2      -9.9739      2.00000
      3      -9.3848      2.00000
      4      -8.7594      2.00000
      5      -4.8877      2.00000
      6      -4.0238      2.00000
      7      -3.1281      2.00000
      8      -2.7788      2.00000
      9      -1.4134      2.00000
     10      -0.5766      2.00000
     11      -0.2076      2.00000
     12       0.6939      2.00000
     13       1.1428      2.00000
     14       1.1444      2.00000
     15       1.5268      2.00000
     16       1.8049      2.00000
     17       2.3706      2.00000
     18       2.4076      2.00000
     19       3.3552      2.00000
     20       3.4631      2.00000
     21       4.9924      0.00000
     22       5.3504      0.00000
     23       5.8322      0.00000
     24       6.0641      0.00000
     25       6.6948      0.00000
     26       7.0562      0.00000
     27       7.4016      0.00000
     28       7.4851      0.00000
     29       7.9208      0.00000
     30       8.3793      0.00000
     31       8.6544      0.00000
     32       9.5188      0.00000

 k-point     8 :       0.3333    0.1667    0.0000
  band No.  band energies     occupation 
      1      -9.9389      2.00000
      2      -9.5444      2.00000
      3      -9.1591      2.00000
      4      -8.7781      2.00000
      5      -5.1337      2.00000
      6      -4.2470      2.00000
      7      -4.1736      2.00000
      8      -3.2307      2.00000
      9      -0.8922      2.00000
     10      -0.8444      2.00000
     11      -0.2643      2.00000
     12       0.1745      2.00000
     13       0.9322      2.00000
     14       0.9494      2.00000
     15       1.4594      2.00000
     16       1.6953      2.00000
     17       1.8510      2.00000
     18       2.2609      2.00000
     19       2.8765      2.00000
     20       3.1873      2.00000
     21       4.7169      0.00000
     22       5.2480      0.00000
     23       5.2941      0.00000
     24       5.6578      0.00000
     25       6.6691      0.00000
     26       6.6932      0.00000
     27       7.3901      0.00000
     28       7.5016      0.00000
     29       7.6762      0.00000
     30       8.2606      0.00000
     31       9.0598      0.00000
     32       9.4248      0.00000

 k-point     9 :       0.3333   -0.1667    0.0000
  band No.  band energies     occupation 
      1      -9.9441      2.00000
      2      -9.5404      2.00000
      3      -9.1473      2.00000
      4      -8.7982      2.00000
      5      -5.0381      2.00000
      6      -4.3442      2.00000
      7      -3.9609      2.00000
      8      -3.4896      2.00000
      9      -0.8939      2.00000
     10      -0.8398      2.00000
     11      -0.4552      2.00000
     12       0.2183      2.00000
     13       1.1354      2.00000
     14       1.2347      2.00000
     15       1.4545      2.00000
     16       1.5442      2.00000
     17       1.7353      2.00000
     18       2.2573      2.00000
     19       2.9775      2.00000
     20       3.1212      2.00000
     21       4.6231      0.00000
     22       5.4053      0.00000
     23       5.4342      0.00000
     24       5.4876      0.00000
     25       6.4542      0.00000
     26       6.9015      0.00000
     27       7.1755      0.00000
     28       7.5655      0.00000
     29       7.8356      0.00000
     30       8.2822      0.00000
     31       8.9061      0.00000
     32       9.2134      0.00000

 k-point    10 :       0.5000    0.1667    0.0000
  band No.  band energies     occupation 
      1      -9.3181      2.00000
      2      -9.2994      2.00000
      3      -9.1022      2.00000
      4      -9.0814      2.00000
      5      -4.9415      2.00000
      6      -4.9141      2.00000
      7      -4.1243      2.00000
      8      -4.0870      2.00000
      9      -0.4394      2.00000
     10      -0.3846      2.00000
     11      -0.0496      2.00000
     12       0.1480      2.00000
     13       0.4678      2.00000
     14       0.5956      2.00000
     15       1.2098      2.00000
     16       1.3855      2.00000
     17       1.8557      2.00000
     18       1.9394      2.00000
     19       2.9892      2.00000
     20       3.1326      2.00000
     21       4.5620      0.00000
     22       4.5927      0.00000
     23       5.7503      0.00000
     24       5.9486      0.00000
     25       6.3511      0.00000
     26       6.3657      0.00000
     27       6.8026      0.00000
     28       7.2956      0.00000
     29       7.9372      0.00000
     30       7.9580      0.00000
     31       8.5062      0.00000
     32       8.5150      0.00000

 k-point    11 :       0.0000    0.3333    0.0000
  band No.  band energies     occupation 
      1     -10.3307      2.00000
      2      -9.8371      2.00000
      3      -9.6152      2.00000
      4      -9.0354      2.00000
      5      -5.2605      2.00000
      6      -4.2967      2.00000
      7      -3.8637      2.00000
      8      -2.9327      2.00000
      9      -1.1016      2.00000
     10       0.3577      2.00000
     11       0.9026      2.00000
     12       1.3038      2.00000
     13       1.4639      2.00000
     14       1.6451      2.00000
     15       1.9749      2.00000
     16       2.1667      2.00000
     17       2.2502      2.00000
     18       2.9895      2.00000
     19       3.3776      2.00000
     20       3.6416      2.00000
     21       4.6425      0.00000
     22       5.2655      0.00000
     23       5.3975      0.00000
     24       5.7336      0.00000
     25       5.9672      0.00000
     26       6.4903      0.00000
     27       6.9210      0.00000
     28       6.9355      0.00000
     29       7.4656      0.00000
     30       7.8283      0.00000
     31       8.5440      0.00000
     32       9.9955      0.00000

 k-point    12 :       0.1667    0.3333    0.0000
  band No.  band energies     occupation 
      1     -10.1554      2.00000
      2      -9.6908      2.00000
      3      -9.4903      2.00000
      4      -8.9564      2.00000
      5      -5.1780      2.00000
      6      -4.2873      2.00000
      7      -3.8598      2.00000
      8      -2.9689      2.00000
      9      -0.9276      2.00000
     10      -0.5255      2.00000
     11      -0.1740      2.00000
     12       0.4126      2.00000
     13       0.8932      2.00000
     14       0.8969      2.00000
     15       1.8814      2.00000
     16       2.3344      2.00000
     17       2.4664      2.00000
     18       2.6967      2.00000
     19       3.1068      2.00000
     20       3.4036      2.00000
     21       5.0032      0.00000
     22       5.4573      0.00000
     23       5.7933      0.00000
     24       6.0618      0.00000
     25       6.6022      0.00000
     26       6.9545      0.00000
     27       7.1683      0.00000
     28       7.7356      0.00000
     29       7.9479      0.00000
     30       8.2910      0.00000
     31       8.6037      0.00000
     32       9.9092      0.00000

 k-point    13 :       0.1667   -0.3333    0.0000
  band No.  band energies     occupation 
      1     -10.1593      2.00000
      2      -9.6881      2.00000
      3      -9.4858      2.00000
      4      -8.9661      2.00000
      5      -5.1471      2.00000
      6      -4.1624      2.00000
      7      -3.8732      2.00000
      8      -3.1477      2.00000
      9      -0.9723      2.00000
     10      -0.6520      2.00000
     11      -0.1944      2.00000
     12       0.6935      2.00000
     13       0.7290      2.00000
     14       1.1592      2.00000
     15       2.0138      2.00000
     16       2.0140      2.00000
     17       2.2281      2.00000
     18       2.7589      2.00000
     19       3.3689      2.00000
     20       3.5143      2.00000
     21       4.9218      0.00000
     22       5.5076      0.00000
     23       5.8862      0.00000
     24       5.9875      0.00000
     25       6.5062      0.00000
     26       6.8275      0.00000
     27       7.0881      0.00000
     28       7.7949      0.00000
     29       8.1243      0.00000
     30       8.3388      0.00000
     31       8.6368      0.00000
     32       9.4988      0.00000

 k-point    14 :       0.3333    0.3333    0.0000
  band No.  band energies     occupation 
      1      -9.6950      2.00000
      2      -9.3351      2.00000
      3      -9.2291      2.00000
      4      -8.8627      2.00000
      5      -4.9904      2.00000
      6      -4.3924      2.00000
      7      -4.0225      2.00000
      8      -3.4195      2.00000
      9      -1.4281      2.00000
     10      -0.8265      2.00000
     11      -0.7467      2.00000
     12      -0.3967      2.00000
     13       0.2084      2.00000
     14       0.6155      2.00000
     15       0.7381      2.00000
     16       1.5040      2.00000
     17       1.6242      2.00000
     18       2.0751      2.00000
     19       2.7901      2.00000
     20       3.3563      2.00000
     21       4.6765      0.00000
     22       6.3655      0.00000
     23       6.5443      0.00000
     24       6.8782      0.00000
     25       7.1307      0.00000
     26       7.2881      0.00000
     27       7.9409      0.00000
     28       8.3150      0.00000
     29       8.6617      0.00000
     30       8.8960      0.00000
     31       9.0399      0.00000
     32       9.9097      0.00000

 k-point    15 :       0.3333   -0.3333    0.0000
  band No.  band energies     occupation 
      1      -9.7062      2.00000
      2      -9.3248      2.00000
      3      -9.2098      2.00000
      4      -8.8907      2.00000
      5      -4.9261      2.00000
      6      -4.0784      2.00000
      7      -4.0642      2.00000
      8      -3.8279      2.00000
      9      -1.4325      2.00000
     10      -0.8663      2.00000
     11      -0.7898      2.00000
     12      -0.3780      2.00000
     13       0.3266      2.00000
     14       0.7774      2.00000
     15       0.8205      2.00000
     16       1.2229      2.00000
     17       1.6010      2.00000
     18       2.4693      2.00000
     19       2.5738      2.00000
     20       3.1512      2.00000
     21       4.8576      0.00000
     22       6.3819      0.00000
     23       6.7584      0.00000
     24       6.9027      0.00000
     25       6.9703      0.00000
     26       7.0769      0.00000
     27       7.9754      0.00000
     28       8.3328      0.00000
     29       8.8079      0.00000
     30       8.8661      0.00000
     31       9.0981      0.00000
     32       9.8795      0.00000

 k-point    16 :       0.5000    0.3333    0.0000
  band No.  band energies     occupation 
      1      -9.2338      2.00000
      2      -9.1958      2.00000
      3      -9.0391      2.00000
      4      -8.9971      2.00000
      5      -4.7058      2.00000
      6      -4.6261      2.00000
      7      -4.1556      2.00000
      8      -4.0539      2.00000
      9      -1.1325      2.00000
     10      -1.1254      2.00000
     11      -0.5828      2.00000
     12      -0.5536      2.00000
     13      -0.0734      2.00000
     14       0.0871      2.00000
     15       0.7022      2.00000
     16       0.9357      2.00000
     17       1.1945      2.00000
     18       1.5655      2.00000
     19       2.5374      2.00000
     20       3.1506      2.00000
     21       5.6151      0.00000
     22       5.7250      0.00000
     23       7.0755      0.00000
     24       7.1442      0.00000
     25       7.5177      0.00000
     26       7.7339      0.00000
     27       8.0799      0.00000
     28       8.1841      0.00000
     29       8.1856      0.00000
     30       8.5635      0.00000
     31       9.5058      0.00000
     32       9.8619      0.00000

 k-point    17 :       0.0000    0.5000    0.0000
  band No.  band energies     occupation 
      1      -9.9226      2.00000
      2      -9.9226      2.00000
      3      -9.4226      2.00000
      4      -9.4226      2.00000
      5      -5.0752      2.00000
      6      -5.0752      2.00000
      7      -3.5775      2.00000
      8      -3.5775      2.00000
      9      -0.3793      2.00000
     10      -0.3793      2.00000
     11       1.3958      2.00000
     12       1.3958      2.00000
     13       1.7428      2.00000
     14       1.7428      2.00000
     15       2.4770      2.00000
     16       2.4770      2.00000
     17       2.7378      2.00000
     18       2.7378      2.00000
     19       3.2458      2.00000
     20       3.2458      2.00000
     21       4.8032      0.00000
     22       4.8032      0.00000
     23       5.7210      0.00000
     24       5.7210      0.00000
     25       5.9394      0.00000
     26       5.9394      0.00000
     27       6.4573      0.00000
     28       6.4573      0.00000
     29       7.1693      0.00000
     30       7.1694      0.00000
     31       9.6599      0.00000
     32       9.6599      0.00000

 k-point    18 :       0.1667    0.5000    0.0000
  band No.  band energies     occupation 
      1      -9.7773      2.00000
      2      -9.7721      2.00000
      3      -9.3112      2.00000
      4      -9.3051      2.00000
      5      -4.9613      2.00000
      6      -4.9241      2.00000
      7      -3.6016      2.00000
      8      -3.5315      2.00000
      9      -0.4298      2.00000
     10      -0.4192      2.00000
     11      -0.0089      2.00000
     12       0.1151      2.00000
     13       0.5285      2.00000
     14       0.6411      2.00000
     15       1.9848      2.00000
     16       2.1917      2.00000
     17       2.5419      2.00000
     18       3.0522      2.00000
     19       3.1942      2.00000
     20       3.4723      2.00000
     21       5.1253      0.00000
     22       5.2110      0.00000
     23       6.0016      0.00000
     24       6.0656      0.00000
     25       6.7445      0.00000
     26       7.1021      0.00000
     27       7.2887      0.00000
     28       7.4066      0.00000
     29       7.7780      0.00000
     30       8.1025      0.00000
     31       9.2169      0.00000
     32       9.2989      0.00000

 k-point    19 :       0.3333    0.5000    0.0000
  band No.  band energies     occupation 
      1      -9.4244      2.00000
      2      -9.4069      2.00000
      3      -9.0828      2.00000
      4      -9.0623      2.00000
      5      -4.7129      2.00000
      6      -4.6245      2.00000
      7      -3.8581      2.00000
      8      -3.7145      2.00000
      9      -1.3894      2.00000
     10      -1.2824      2.00000
     11      -0.5934      2.00000
     12      -0.5569      2.00000
     13       0.0259      2.00000
     14       0.0910      2.00000
     15       0.9288      2.00000
     16       0.9724      2.00000
     17       1.5023      2.00000
     18       1.9070      2.00000
     19       2.6674      2.00000
     20       3.2583      2.00000
     21       5.7432      0.00000
     22       5.8103      0.00000
     23       7.3536      0.00000
     24       7.3935      0.00000
     25       7.8766      0.00000
     26       8.0577      0.00000
     27       8.2282      0.00000
     28       8.4813      0.00000
     29       8.6668      0.00000
     30       8.9515      0.00000
     31       9.5722      0.00000
     32       9.9293      0.00000

 k-point    20 :       0.5000    0.5000    0.0000
  band No.  band energies     occupation 
      1      -9.1888      2.00000
      2      -9.1403      2.00000
      3      -9.0073      2.00000
      4      -8.9540      2.00000
      5      -4.5612      2.00000
      6      -4.3626      2.00000
      7      -4.2832      2.00000
      8      -4.0553      2.00000
      9      -1.4467      2.00000
     10      -1.3761      2.00000
     11      -0.9826      2.00000
     12      -0.8785      2.00000
     13      -0.2419      2.00000
     14       0.1261      2.00000
     15       0.4451      2.00000
     16       0.5820      2.00000
     17       0.8590      2.00000
     18       1.9178      2.00000
[...]
     32       8.7970      0.00000

 k-point    32 :       0.1667    0.3333    0.5000
  band No.  band energies     occupation 
      1     -10.0007      2.00000
      2     -10.0007      2.00000
      3      -9.1484      2.00000
      4      -9.1484      2.00000
      5      -4.7915      2.00000
      6      -4.7915      2.00000
      7      -3.4752      2.00000
      8      -3.4752      2.00000
      9      -0.5189      2.00000
     10      -0.5189      2.00000
     11       0.3272      2.00000
     12       0.3272      2.00000
     13       0.8589      2.00000
     14       0.8589      2.00000
     15       1.8645      2.00000
     16       1.8645      2.00000
     17       2.6039      2.00000
     18       2.6039      2.00000
     19       2.7913      2.00000
     20       2.7913      2.00000
     21       5.6661      0.00000
     22       5.6661      0.00000
     23       6.1812      0.00000
     24       6.1812      0.00000
     25       6.9462      0.00000
     26       6.9462      0.00000
     27       7.1583      0.00000
     28       7.1583      0.00000
     29       8.1710      0.00000
     30       8.1710      0.00000
     31       8.9389      0.00000
     32       8.9389      0.00000

 k-point    33 :       0.1667   -0.3333    0.5000
  band No.  band energies     occupation 
      1     -10.0019      2.00000
      2     -10.0019      2.00000
      3      -9.1494      2.00000
      4      -9.1494      2.00000
      5      -4.7411      2.00000
      6      -4.7411      2.00000
      7      -3.5315      2.00000
      8      -3.5315      2.00000
      9      -0.4601      2.00000
     10      -0.4601      2.00000
     11       0.1907      2.00000
     12       0.1907      2.00000
     13       0.7857      2.00000
     14       0.7857      2.00000
     15       1.9865      2.00000
     16       1.9865      2.00000
     17       2.4124      2.00000
     18       2.4124      2.00000
     19       3.1742      2.00000
     20       3.1742      2.00000
     21       5.5275      0.00000
     22       5.5275      0.00000
     23       6.2399      0.00000
     24       6.2399      0.00000
     25       6.9906      0.00000
     26       6.9906      0.00000
     27       7.0786      0.00000
     28       7.0786      0.00000
     29       8.1036      0.00000
     30       8.1036      0.00000
     31       8.6639      0.00000
     32       8.6639      0.00000

 k-point    34 :       0.3333    0.3333    0.5000
  band No.  band energies     occupation 
      1      -9.5753      2.00000
      2      -9.5753      2.00000
      3      -8.9878      2.00000
      4      -8.9878      2.00000
      5      -4.7018      2.00000
      6      -4.7018      2.00000
      7      -3.7652      2.00000
      8      -3.7652      2.00000
      9      -1.2261      2.00000
     10      -1.2261      2.00000
     11      -0.3741      2.00000
     12      -0.3741      2.00000
     13       0.4656      2.00000
     14       0.4656      2.00000
     15       1.0786      2.00000
     16       1.0786      2.00000
     17       1.9381      2.00000
     18       1.9381      2.00000
     19       2.6579      2.00000
     20       2.6579      2.00000
     21       6.0173      0.00000
     22       6.0173      0.00000
     23       6.6123      0.00000
     24       6.6123      0.00000
     25       6.9958      0.00000
     26       6.9958      0.00000
     27       8.1712      0.00000
     28       8.1712      0.00000
     29       8.4747      0.00000
     30       8.4747      0.00000
     31       9.6616      0.00000
     32       9.6616      0.00000

 k-point    35 :       0.3333   -0.3333    0.5000
  band No.  band energies     occupation 
      1      -9.5769      2.00000
      2      -9.5769      2.00000
      3      -8.9893      2.00000
      4      -8.9893      2.00000
      5      -4.5833      2.00000
      6      -4.5833      2.00000
      7      -3.9129      2.00000
      8      -3.9129      2.00000
      9      -1.1338      2.00000
     10      -1.1338      2.00000
     11      -0.4499      2.00000
     12      -0.4499      2.00000
     13       0.3894      2.00000
     14       0.3894      2.00000
     15       1.0950      2.00000
     16       1.0950      2.00000
     17       1.8608      2.00000
     18       1.8608      2.00000
     19       2.9220      2.00000
     20       2.9220      2.00000
     21       5.9652      0.00000
     22       5.9652      0.00000
     23       6.4455      0.00000
     24       6.4455      0.00000
     25       7.2426      0.00000
     26       7.2426      0.00000
     27       7.9847      0.00000
     28       7.9847      0.00000
     29       8.2434      0.00000
     30       8.2434      0.00000
     31       9.8861      0.00000
     32       9.8861      0.00000

 k-point    36 :       0.5000    0.3333    0.5000
  band No.  band energies     occupation 
      1      -9.2064      2.00000
      2      -9.2064      2.00000
      3      -9.0288      2.00000
      4      -9.0288      2.00000
      5      -4.5256      2.00000
      6      -4.5256      2.00000
      7      -4.2774      2.00000
      8      -4.2774      2.00000
      9      -0.9096      2.00000
     10      -0.9096      2.00000
     11      -0.6896      2.00000
     12      -0.6896      2.00000
     13       0.0524      2.00000
     14       0.0524      2.00000
     15       0.3464      2.00000
     16       0.3464      2.00000
     17       2.1054      2.00000
     18       2.1054      2.00000
     19       2.4502      2.00000
     20       2.4502      2.00000
     21       6.2708      0.00000
     22       6.2708      0.00000
     23       6.5575      0.00000
     24       6.5575      0.00000
     25       7.2510      0.00000
     26       7.2510      0.00000
     27       7.6584      0.00000
     28       7.6584      0.00000
     29       9.0766      0.00000
     30       9.0766      0.00000
     31       9.3473      0.00000
     32       9.3473      0.00000

 k-point    37 :       0.0000    0.5000    0.5000
  band No.  band energies     occupation 
      1      -9.9153      2.00000
      2      -9.9153      2.00000
      3      -9.4348      2.00000
      4      -9.4348      2.00000
      5      -4.9211      2.00000
      6      -4.9211      2.00000
      7      -3.8873      2.00000
      8      -3.8873      2.00000
      9       0.5853      2.00000
     10       0.5853      2.00000
     11       1.1085      2.00000
     12       1.1085      2.00000
     13       1.4134      2.00000
     14       1.4134      2.00000
     15       1.7661      2.00000
     16       1.7661      2.00000
     17       2.9907      2.00000
     18       2.9907      2.00000
     19       3.1463      2.00000
     20       3.1463      2.00000
     21       4.8875      0.00000
     22       4.8875      0.00000
     23       5.7215      0.00000
     24       5.7215      0.00000
     25       6.0854      0.00000
     26       6.0854      0.00000
     27       6.9839      0.00000
     28       6.9839      0.00000
     29       7.4322      0.00000
     30       7.4322      0.00000
     31       8.8036      0.00000
     32       8.8036      0.00000

 k-point    38 :       0.1667    0.5000    0.5000
  band No.  band energies     occupation 
      1      -9.7677      2.00000
      2      -9.7677      2.00000
      3      -9.3194      2.00000
      4      -9.3194      2.00000
      5      -4.8051      2.00000
      6      -4.8051      2.00000
      7      -3.8258      2.00000
      8      -3.8258      2.00000
      9      -0.1382      2.00000
     10      -0.1382      2.00000
     11       0.0478      2.00000
     12       0.0478      2.00000
     13       1.1809      2.00000
     14       1.1809      2.00000
     15       1.3608      2.00000
     16       1.3608      2.00000
     17       2.5334      2.00000
     18       2.5334      2.00000
     19       3.0555      2.00000
     20       3.0555      2.00000
     21       5.8811      0.00000
     22       5.8811      0.00000
     23       6.1416      0.00000
     24       6.1416      0.00000
     25       6.9853      0.00000
     26       6.9853      0.00000
     27       7.3963      0.00000
     28       7.3963      0.00000
     29       7.8513      0.00000
     30       7.8513      0.00000
     31       8.6938      0.00000
     32       8.6938      0.00000

 k-point    39 :       0.3333    0.5000    0.5000
  band No.  band energies     occupation 
      1      -9.4099      2.00000
      2      -9.4099      2.00000
      3      -9.0808      2.00000
      4      -9.0808      2.00000
      5      -4.5811      2.00000
      6      -4.5811      2.00000
      7      -3.9138      2.00000
      8      -3.9138      2.00000
      9      -1.0984      2.00000
     10      -1.0984      2.00000
     11      -0.9725      2.00000
     12      -0.9725      2.00000
     13       0.5001      2.00000
     14       0.5001      2.00000
     15       0.7104      2.00000
     16       0.7104      2.00000
     17       1.9765      2.00000
     18       1.9765      2.00000
     19       2.5521      2.00000
     20       2.5521      2.00000
     21       6.3788      0.00000
     22       6.3788      0.00000
     23       6.9277      0.00000
     24       6.9277      0.00000
     25       7.6467      0.00000
     26       7.6467      0.00000
     27       8.0080      0.00000
     28       8.0080      0.00000
     29       9.2271      0.00000
     30       9.2271      0.00000
     31       9.6885      0.00000
     32       9.6885      0.00000

 k-point    40 :       0.5000    0.5000    0.5000
  band No.  band energies     occupation 
      1      -9.1622      2.00000
      2      -9.1622      2.00000
      3      -8.9841      2.00000
      4      -8.9841      2.00000
      5      -4.3895      2.00000
      6      -4.3895      2.00000
      7      -4.2627      2.00000
      8      -4.2627      2.00000
      9      -1.1720      2.00000
     10      -1.1720      2.00000
     11      -0.7981      2.00000
     12      -0.7981      2.00000
     13      -0.4402      2.00000
     14      -0.4402      2.00000
     15      -0.0441      2.00000
     16      -0.0441      2.00000
     17       2.1699      2.00000
     18       2.1699      2.00000
     19       2.5335      2.00000
     20       2.5335      2.00000
     21       6.1083      0.00000
     22       6.1083      0.00000
     23       6.5945      0.00000
     24       6.5945      0.00000
     25       8.2299      0.00000
     26       8.2299      0.00000
     27       8.4536      0.00000
     28       8.4536      0.00000
     29       9.9188      0.00000
     30       9.9188      0.00000
     31      10.4614      0.00000
     32      10.4614      0.00000


--------------------------------------------------------------------------------------------------------


 soft charge-density along one line, spin component            1
         0         1         2         3         4         5         6         7         8         9
 total charge-density along one line
 
 pseudopotential strength for first ion, spin component:            1
 14.397  17.959   0.042   0.042  -0.003   0.075   0.076  -0.005
 17.959  22.416   0.053   0.053  -0.004   0.095   0.096  -0.006
  0.042   0.053   3.205  -0.003   0.000   5.454  -0.005   0.000
  0.042   0.053  -0.003   3.203  -0.000  -0.005   5.451  -0.000
 -0.003  -0.004   0.000  -0.000   3.206   0.000  -0.000   5.457
  0.075   0.095   5.454  -0.005   0.000   9.339  -0.008   0.001
  0.076   0.096  -0.005   5.451  -0.000  -0.008   9.334  -0.000
 -0.005  -0.006   0.000  -0.000   5.457   0.001  -0.000   9.343
  0.000   0.001  -0.001   0.000   0.007  -0.001   0.000   0.013
 -0.006  -0.007   0.011   0.013   0.000   0.020   0.023   0.000
 -0.003  -0.004  -0.004   0.011   0.000  -0.007   0.021   0.001
 -0.000  -0.000   0.000  -0.001   0.011   0.000  -0.001   0.020
  0.002   0.002  -0.012  -0.000  -0.001  -0.022  -0.000  -0.001
 total augmentation occupancy for first ion, spin component:            1
  2.800  -0.761   0.329   0.344  -0.022  -0.061  -0.063   0.004   0.005  -0.007   0.005   0.006   0.011
 -0.761   0.713  -0.431  -0.441   0.026   0.069   0.069  -0.004  -0.006   0.008  -0.009  -0.006  -0.007
  0.329  -0.431   1.267   0.076   0.005  -0.211  -0.003  -0.002  -0.003   0.041  -0.097  -0.005   0.002
  0.344  -0.441   0.076   1.355   0.014  -0.003  -0.228  -0.004  -0.004  -0.021   0.091  -0.005  -0.002
 -0.022   0.026   0.005   0.014   1.276  -0.003  -0.004  -0.224   0.143  -0.004  -0.002   0.039  -0.001
 -0.061   0.069  -0.211  -0.003  -0.003   0.039  -0.001   0.001   0.001  -0.007   0.017   0.001   0.000
 -0.063   0.069  -0.003  -0.228  -0.004  -0.001   0.043   0.001   0.001   0.003  -0.016   0.001   0.000
  0.004  -0.004  -0.002  -0.004  -0.224   0.001   0.001   0.043  -0.025   0.001   0.000  -0.006   0.000
  0.005  -0.006  -0.003  -0.004   0.143   0.001   0.001  -0.025   0.031   0.001   0.000   0.005  -0.000
 -0.007   0.008   0.041  -0.021  -0.004  -0.007   0.003   0.001   0.001   0.015  -0.009   0.002   0.002
  0.005  -0.009  -0.097   0.091  -0.002   0.017  -0.016   0.000   0.000  -0.009   0.034   0.000  -0.003
  0.006  -0.006  -0.005  -0.005   0.039   0.001   0.001  -0.006   0.005   0.002   0.000   0.012   0.000
  0.011  -0.007   0.002  -0.002  -0.001   0.000   0.000   0.000  -0.000   0.002  -0.003   0.000   0.009


------------------------ aborting loop because EDIFF is reached ----------------------------------------


    CHARGE:  cpu time      0.0055: real time      0.0055
    FORLOC:  cpu time      0.0002: real time      0.0002
    FORNL :  cpu time      0.0251: real time      0.0252
    STRESS:  cpu time      0.2702: real time      0.2714
    FORCOR:  cpu time      0.0065: real time      0.0065
    FORHAR:  cpu time      0.0016: real time      0.0016
    MIXING:  cpu time      0.0006: real time      0.0006
    OFIELD:  cpu time      0.0000: real time      0.0000

  FORCE on cell =-STRESS in cart. coord.  units (eV):
  Direction    XX          YY          ZZ          XY          YZ          ZX
  --------------------------------------------------------------------------------------
  Alpha Z    91.66130    91.66130    91.66130
  Ewald    -464.17608  -515.58128  -469.96277     8.27753     0.00010     0.00005
  Hartree    51.38914    27.42119    45.12718     2.66064     0.00002     0.00001
  E(xc)    -141.75365  -141.78173  -141.78945     0.05409     0.00000     0.00000
  Local    -156.93617   -87.81614  -153.67026   -10.83896    -0.00011    -0.00005
  n-local   241.45584   241.04152   242.89965     0.06905     0.00001     0.00000
  augment   -11.31945   -11.76849   -12.11335    -0.02097     0.00000     0.00000
  Kinetic   391.46183   398.34103   403.19400     0.73563    -0.00001    -0.00001
  Fock        0.00000     0.00000     0.00000     0.00000     0.00000     0.00000
  -------------------------------------------------------------------------------------
  Total       1.78275     1.51740     5.34630     0.93701     0.00000    -0.00000
  in kB      15.45112    13.15136    46.33647     8.12109     0.00002    -0.00004
  external pressure =       24.98 kB  Pullay stress =        0.00 kB


 VOLUME and BASIS-vectors are now :
 -----------------------------------------------------------------------------
  energy-cutoff  :      360.00
  volume of cell :      184.86
      direct lattice vectors                 reciprocal lattice vectors
     3.858100176  0.000000000  0.000000000     0.259194929  0.000000000  0.000000000
     0.000000000  4.526575088  0.000000000     0.000000000  0.220917577  0.000000000
     0.000000000  0.000000000 10.585176468     0.000000000  0.000000000  0.094471736

  length of vectors
     3.858100176  4.526575088 10.585176468     0.259194929  0.220917577  0.094471736


 FORCES acting on ions
    electron-ion (+dipol)            ewald-force                    non-local-force                 convergence-correction
 -----------------------------------------------------------------------------------------------
   -.130E+00 0.163E+02 0.198E+02   0.331E+00 -.189E+02 -.224E+02   -.141E+00 0.261E+01 0.257E+01   -.543E-04 -.323E-03 -.143E-02
   -.130E+00 0.163E+02 -.198E+02   0.331E+00 -.189E+02 0.224E+02   -.141E+00 0.261E+01 -.257E+01   -.557E-04 -.328E-03 0.142E-02
   0.130E+00 -.163E+02 -.198E+02   -.331E+00 0.189E+02 0.224E+02   0.141E+00 -.261E+01 -.257E+01   0.546E-04 0.324E-03 0.144E-02
   0.130E+00 -.163E+02 0.198E+02   -.331E+00 0.189E+02 -.224E+02   0.141E+00 -.261E+01 0.257E+01   0.550E-04 0.329E-03 -.143E-02
   -.868E+00 -.134E+02 -.138E+02   0.673E+00 0.150E+02 0.152E+02   0.329E+00 -.158E+01 -.132E+01   0.510E-04 0.468E-03 0.232E-02
   -.868E+00 -.134E+02 0.138E+02   0.673E+00 0.150E+02 -.152E+02   0.329E+00 -.158E+01 0.132E+01   0.480E-04 0.468E-03 -.233E-02
   0.868E+00 0.134E+02 0.138E+02   -.674E+00 -.150E+02 -.152E+02   -.329E+00 0.158E+01 0.132E+01   -.498E-04 -.468E-03 -.233E-02
   0.868E+00 0.134E+02 -.138E+02   -.673E+00 -.150E+02 0.152E+02   -.329E+00 0.158E+01 -.132E+01   -.497E-04 -.469E-03 0.234E-02
 -----------------------------------------------------------------------------------------------
   0.637E-04 0.190E-05 0.416E-05   0.411E-14 0.107E-13 0.107E-13   -.629E-04 0.200E-03 -.194E-05   -.940E-06 0.773E-06 -.134E-05
 
 
 POSITION                                       TOTAL-FORCE (eV/Angst)
 -----------------------------------------------------------------------------------
      0.51721      0.73636      1.23098         0.060278     -0.065341     -0.037696
      2.44626      2.99965      4.06160         0.060279     -0.065346      0.037707
      2.89357      3.98702      9.35419        -0.060146      0.065330      0.037736
      0.96452      1.72374      6.52357        -0.060141      0.065328     -0.037742
      0.51721      0.17391      3.75268         0.134141     -0.023539      0.029305
      2.44626      2.43720      1.53991         0.134144     -0.023543     -0.029314
      2.89357      0.02290      6.83250        -0.134278      0.023557     -0.029327
      0.96452      2.28618      9.04526        -0.134277      0.023554      0.029331
 -----------------------------------------------------------------------------------
    total drift:                               -0.000000      0.000203      0.000001


--------------------------------------------------------------------------------------------------------



  FREE ENERGIE OF THE ION-ELECTRON SYSTEM (eV)
  ---------------------------------------------------
  free  energy   TOTEN  =       -33.61624107 eV

  energy  without entropy=      -33.61624107  energy(sigma->0) =      -33.61624107
 


--------------------------------------------------------------------------------------------------------


    POTLOK:  cpu time      0.2247: real time      0.2256


--------------------------------------------------------------------------------------------------------


     LOOP+:  cpu time      7.0732: real time      7.1078
    4ORBIT:  cpu time      0.0000: real time      0.0000

 total amount of memory used by VASP MPI-rank0    36587. kBytes
=======================================================================

   base      :      30000. kBytes
   nonl-proj :       5001. kBytes
   fftplans  :        306. kBytes
   grid      :        466. kBytes
   one-center:         16. kBytes
   wavefun   :        798. kBytes
 
  
  
 General timing and accounting informations for this job:
 ========================================================
  
                  Total CPU time used (sec):        8.651
                            User time (sec):        8.391
                          System time (sec):        0.260
                         Elapsed time (sec):        8.946
  
                   Maximum memory used (kb):      175020.
                   Average memory used (kb):          N/A
  
                          Minor page faults:        17266
                          Major page faults:           31
                 Voluntary context switches:         1691
