 running  128 mpi-ranks, with    1 threads/rank, on    2 nodes
 distrk:  each k-point on   64 cores,    2 groups
 distr:  one band on    8 cores,    8 groups
 vasp.6.4.2 20Jul23 (build Oct 12 2023 10:31:02) complex                         
 POSCAR found type information on POSCAR GeSe
 POSCAR found :  2 types and      72 ions
 Reading from existing POTCAR
 -----------------------------------------------------------------------------
|                                                                             |
|           W    W    AA    RRRRR   N    N  II  N    N   GGGG   !!!           |
|           W    W   A  A   R    R  NN   N  II  NN   N  G    G  !!!           |
|           W    W  A    A  R    R  N N  N  II  N N  N  G       !!!           |
|           W WW W  AAAAAA  RRRRR   N  N N  II  N  N N  G  GGG   !            |
|           WW  WW  A    A  R   R   N   NN  II  N   NN  G    G                |
|           W    W  A    A  R    R  N    N  II  N    N   GGGG   !!!           |
|                                                                             |
|     You use a magnetic or noncollinear calculation, but did not specify     |
|     the initial magnetic moment with the MAGMOM tag. Note that a            |
|     default of 1 will be used for all atoms. This ferromagnetic setup       |
|     may break the symmetry of the crystal, in particular it may rule        |
|     out finding an antiferromagnetic solution. Thence, we recommend         |
|     setting the initial magnetic moment manually or verifying carefully     |
|     that this magnetic setup is desired.                                    |
|                                                                             |
 -----------------------------------------------------------------------------

 scaLAPACK will be used
 Reading from existing POTCAR
 -----------------------------------------------------------------------------
|                                                                             |
|               ----> ADVICE to this user running VASP <----                  |
|                                                                             |
|     You have a (more or less) 'large supercell' and for larger cells it     |
|     might be more efficient to use real-space projection operators.         |
|     Therefore, try LREAL= Auto in the INCAR file.                           |
|     Mind: For very accurate calculation, you might also keep the            |
|     reciprocal projection scheme (i.e. LREAL=.FALSE.).                      |
|                                                                             |
 -----------------------------------------------------------------------------

 LDA part: xc-table for Pade appr. of Perdew
 -----------------------------------------------------------------------------
|                                                                             |
|           W    W    AA    RRRRR   N    N  II  N    N   GGGG   !!!           |
|           W    W   A  A   R    R  NN   N  II  NN   N  G    G  !!!           |
|           W    W  A    A  R    R  N N  N  II  N N  N  G       !!!           |
|           W WW W  AAAAAA  RRRRR   N  N N  II  N  N N  G  GGG   !            |
|           WW  WW  A    A  R   R   N   NN  II  N   NN  G    G                |
|           W    W  A    A  R    R  N    N  II  N    N   GGGG   !!!           |
|                                                                             |
|     The number of bands has been changed from the values supplied in        |
|     the INCAR file. This is a result of running the parallel version.       |
|     The orbitals not found in the WAVECAR file will be initialized with     |
|     random numbers, which is usually adequate. For correlated               |
|     calculations, however, you should redo the groundstate calculation.     |
|     I found NBANDS = 220. Now, NBANDS = 224.                                |
|                                                                             |
 -----------------------------------------------------------------------------

 POSCAR, INCAR and KPOINTS ok, starting setup
 FFT: planning ... GRIDC
 FFT: planning ... GRID_SOFT
 FFT: planning ... GRID
 WAVECAR not read
 WARNING: random wavefunctions but no delay for mixing, default for NELMDL
 entering main loop
       N       E                     dE             d eps       ncg     rms          rms(c)
DAV:   1     0.181704690195E+04    0.18170E+04   -0.14175E+05  7168   0.135E+03
DAV:   2    -0.635458626310E+02   -0.18806E+04   -0.18058E+04  8432   0.205E+02
DAV:   3    -0.281729236227E+03   -0.21818E+03   -0.21206E+03  8584   0.692E+01
DAV:   4    -0.289794501335E+03   -0.80653E+01   -0.79754E+01  8712   0.131E+01
DAV:   5    -0.290095006583E+03   -0.30051E+00   -0.29974E+00  9096   0.216E+00    0.292E+01
DAV:   6    -0.289678509782E+03    0.41650E+00   -0.26545E+01  7888   0.761E+00    0.173E+01
DAV:   7    -0.297095564045E+03   -0.74171E+01   -0.85733E+00  8040   0.448E+00    0.908E+00
DAV:   8    -0.300302632749E+03   -0.32071E+01   -0.17596E+00  8120   0.227E+00    0.322E+00
DAV:   9    -0.300661741228E+03   -0.35911E+00   -0.41194E-01  9072   0.101E+00    0.146E+00
DAV:  10    -0.300758928676E+03   -0.97187E-01   -0.89061E-02  8056   0.452E-01    0.725E-01
DAV:  11    -0.300789812458E+03   -0.30884E-01   -0.34815E-02  8864   0.277E-01    0.282E-01
DAV:  12    -0.300793087221E+03   -0.32748E-02   -0.44902E-03  8616   0.117E-01    0.104E-01
DAV:  13    -0.300793199442E+03   -0.11222E-03   -0.53651E-04  9824   0.363E-02    0.425E-02
DAV:  14    -0.300793214060E+03   -0.14618E-04   -0.85394E-05  8328   0.181E-02    0.154E-02
DAV:  15    -0.300793217131E+03   -0.30713E-05   -0.14825E-05  8592   0.861E-03    0.706E-03
DAV:  16    -0.300793217729E+03   -0.59769E-06   -0.13756E-06  4824   0.264E-03
   1 F= -.30079322E+03 E0= -.30079322E+03  d E =-.193979E-11  mag=     0.0004
