 vasp.6.4.2 20Jul23 (build Oct 12 2023 10:31:02) complex                         
 executed on              LinuxNV date 2025.05.27  13:41:00
 running   32 mpi-ranks, with    1 threads/rank, on    2 nodes
 distrk:  each k-point on   16 cores,    2 groups
 distr:  one band on NCORE=   1 cores,   16 groups


--------------------------------------------------------------------------------------------------------


 INCAR:
   ENCUT = 520.000000
   SIGMA = 0.050000
   EDIFF = 1.00e-06
   ALGO = N
   GGA = PE
   PREC = Accurate
   SYSTEM = 02_SCF
   ICHARG = 0
   ISMEAR = 0
   ISPIN = 2
   ISTART = 1
   KPAR = 2
   LORBIT = 11
   NBANDS = 220
   NELM = 100
   NELMIN = 5
   LASPH = .TRUE.
   LCHARG = .TRUE.
   LWAVE = .TRUE.
   LREAL = .FALSE.

 POTCAR:    PAW_PBE Ge 05Jan2001                  
 POTCAR:    PAW_PBE Se 06Sep2000                  
 -----------------------------------------------------------------------------
|                                                                             |
|           W    W    AA    RRRRR   N    N  II  N    N   GGGG   !!!           |
|           W    W   A  A   R    R  NN   N  II  NN   N  G    G  !!!           |
|           W    W  A    A  R    R  N N  N  II  N N  N  G       !!!           |
|           W WW W  AAAAAA  RRRRR   N  N N  II  N  N N  G  GGG   !            |
|           WW  WW  A    A  R   R   N   NN  II  N   NN  G    G                |
|           W    W  A    A  R    R  N    N  II  N    N   GGGG   !!!           |
|                                                                             |
|     You use a magnetic or noncollinear calculation, but did not specify     |
|     the initial magnetic moment with the MAGMOM tag. Note that a            |
|     default of 1 will be used for all atoms. This ferromagnetic setup       |
|     may break the symmetry of the crystal, in particular it may rule        |
|     out finding an antiferromagnetic solution. Thence, we recommend         |
|     setting the initial magnetic moment manually or verifying carefully     |
|     that this magnetic setup is desired.                                    |
|                                                                             |
 -----------------------------------------------------------------------------

 POTCAR:    PAW_PBE Ge 05Jan2001                  
   VRHFIN =Ge: s2p2                                                                                 
   LEXCH  = PE                                                                                      
   EATOM  =   104.9960 eV,    7.7170 Ry                                                             
                                                                                                    
   TITEL  = PAW_PBE Ge 05Jan2001                                                                    
   LULTRA =        F    use ultrasoft PP ?                                                          
   IUNSCR =        1    unscreen: 0-lin 1-nonlin 2-no                                               
   RPACOR =    2.170    partial core radius                                                         
   POMASS =   72.610; ZVAL   =    4.000    mass and valenz                                          
   RCORE  =    2.300    outmost cutoff radius                                                       
   RWIGS  =    2.300; RWIGS  =    1.217    wigner-seitz radius (au A)                               
   ENMAX  =  173.807; ENMIN  =  130.355 eV                                                          
   ICORE  =        3    local potential                                                             
   LCOR   =        T    correct aug charges                                                         
   LPAW   =        T    paw PP                                                                      
   EAUG   =  385.843                                                                                
   DEXC   =    0.000                                                                                
   RMAX   =    2.342    core radius for proj-oper                                                   
   RAUG   =    1.300    factor for augmentation sphere                                              
   RDEP   =    2.318    radius for radial grids                                                     
   RDEPT  =    2.103    core radius for aug-charge                                                  
                                                                                                    
   Atomic configuration                                                                             
   10 entries                                                                                       
     n  l   j            E        occ.                                                              
     1  0  0.50    -10959.8463   2.0000                                                             
     2  0  0.50     -1371.6056   2.0000                                                             
     2  1  1.50     -1198.4791   6.0000                                                             
     3  0  0.50      -168.4733   2.0000                                                             
     3  1  1.50      -115.6019   6.0000                                                             
     3  2  2.50       -29.3106  10.0000                                                             
     4  0  0.50       -11.7309   2.0000                                                             
     4  1  0.50        -3.8952   2.0000                                                             
     4  2  1.50        -4.0817   0.0000                                                             
     4  3  2.50        -4.0817   0.0000                                                             
   Description                                                                                      
     l       E           TYP  RCUT    TYP  RCUT                                                     
     0    -11.7309493     23  2.300                                                                 
     0     -7.4578696     23  2.300                                                                 
     1     -3.8952261     23  2.300                                                                 
     1      6.1178114     23  2.300                                                                 
     2     -4.0817478     23  2.300                                                                 
     3     -1.3605826      7  2.300                                                                 
  local pseudopotential read in
  partial core-charges read in
  partial kinetic energy density read in
  atomic valenz-charges read in
  non local Contribution for L=            0  read in
    real space projection operators read in
  non local Contribution for L=            0  read in
    real space projection operators read in
  non local Contribution for L=            1  read in
    real space projection operators read in
  non local Contribution for L=            1  read in
    real space projection operators read in
  non local Contribution for L=            2  read in
    real space projection operators read in
    PAW grid and wavefunctions read in
 
   number of l-projection  operators is LMAX  =            5
   number of lm-projection operators is LMMAX =           13
 
 POTCAR:    PAW_PBE Se 06Sep2000                  
   VRHFIN =Se: s2p4                                                                                 
   LEXCH  = PE                                                                                      
   EATOM  =   257.1286 eV,   18.8984 Ry                                                             
                                                                                                    
   TITEL  = PAW_PBE Se 06Sep2000                                                                    
   LULTRA =        F    use ultrasoft PP ?                                                          
   IUNSCR =        1    unscreen: 0-lin 1-nonlin 2-no                                               
   RPACOR =    1.900    partial core radius                                                         
   POMASS =   78.960; ZVAL   =    6.000    mass and valenz                                          
   RCORE  =    2.100    outmost cutoff radius                                                       
   RWIGS  =    2.200; RWIGS  =    1.164    wigner-seitz radius (au A)                               
   ENMAX  =  211.555; ENMIN  =  158.666 eV                                                          
   ICORE  =        3    local potential                                                             
   LCOR   =        T    correct aug charges                                                         
   LPAW   =        T    paw PP                                                                      
   EAUG   =  446.842                                                                                
   DEXC   =    0.000                                                                                
   RMAX   =    2.147    core radius for proj-oper                                                   
   RAUG   =    1.300    factor for augmentation sphere                                              
   RDEP   =    2.177    radius for radial grids                                                     
   RDEPT  =    1.928    core radius for aug-charge                                                  
                                                                                                    
   Atomic configuration                                                                             
   10 entries                                                                                       
     n  l   j            E        occ.                                                              
     1  0  0.50    -12503.4787   2.0000                                                             
     2  0  0.50     -1606.9547   2.0000                                                             
     2  1  1.50     -1413.3140   6.0000                                                             
     3  0  0.50      -213.4885   2.0000                                                             
     3  1  1.50      -152.9538   6.0000                                                             
     3  2  2.50       -53.1221  10.0000                                                             
     4  0  0.50       -17.2865   2.0000                                                             
     4  1  0.50        -6.5110   4.0000                                                             
     4  2  2.50        -6.8029   0.0000                                                             
     4  3  2.50        -6.8029   0.0000                                                             
   Description                                                                                      
     l       E           TYP  RCUT    TYP  RCUT                                                     
     0    -17.2865377     23  2.100                                                                 
     0    -15.3094411     23  2.100                                                                 
     1     -6.5110275     23  2.100                                                                 
     1     -0.0695192     23  2.100                                                                 
     2     -6.8029130     23  2.100                                                                 
     3     -1.3605826      7  2.100                                                                 
  local pseudopotential read in
  partial core-charges read in
  partial kinetic energy density read in
  atomic valenz-charges read in
  non local Contribution for L=            0  read in
    real space projection operators read in
  non local Contribution for L=            0  read in
    real space projection operators read in
  non local Contribution for L=            1  read in
    real space projection operators read in
  non local Contribution for L=            1  read in
    real space projection operators read in
  non local Contribution for L=            2  read in
    real space projection operators read in
    PAW grid and wavefunctions read in
 
   number of l-projection  operators is LMAX  =            5
   number of lm-projection operators is LMMAX =           13
 
  PAW_PBE Ge 05Jan2001                  :
 energy of atom  1       EATOM= -104.9960
 kinetic energy error for atom=    0.0002 (will be added to EATOM!!)
  PAW_PBE Se 06Sep2000                  :
 energy of atom  2       EATOM= -257.1286
 kinetic energy error for atom=    0.0007 (will be added to EATOM!!)
 
 
 POSCAR: Ge Se
  positions in cartesian coordinates
  No initial velocities read in
 exchange correlation table for  LEXCH =        8
   RHO(1)=    0.500       N(1)  =     2000
   RHO(2)=  100.500       N(2)  =     4000
 


--------------------------------------------------------------------------------------------------------


 ion  position               nearest neighbor table
   1  0.250  0.116  0.080-   6 2.60   6 2.60   8 2.60
   2  0.750  0.884  0.744-   5 2.60   5 2.60   7 2.60
   3  0.750  0.616  0.244-   8 2.60   8 2.60   6 2.60
   4  0.250  0.384  0.580-   7 2.60   7 2.60   5 2.60
   5  0.250  0.505  0.729-   2 2.60   2 2.60   4 2.60
   6  0.750  0.495  0.096-   1 2.60   1 2.60   3 2.60
   7  0.750  0.005  0.596-   4 2.60   4 2.60   2 2.60
   8  0.250  0.995  0.229-   3 2.60   3 2.60   1 2.60
 
  LATTYP: Found a simple orthorhombic cell.
 ALAT       =     3.8581001759
 B/A-ratio  =     1.1732653073
 C/A-ratio  =     4.4283910964
  
  Lattice vectors:
  
 A1 = (   3.8581001759,   0.0000000000,   0.0000000000)
 A2 = (   0.0000000000,   4.5265750885,   0.0000000000)
 A3 = (   0.0000000000,   0.0000000000,  17.0851764679)


Analysis of symmetry for initial positions (statically):
=====================================================================
 Subroutine PRICEL returns:
 Original cell was already a primitive cell.
 

 Routine SETGRP: Setting up the symmetry group for a 
 simple orthorhombic supercell.


 Subroutine GETGRP returns: Found  8 space group operations
 (whereof  1 operations were pure point group operations)
 out of a pool of  8 trial point group operations.


The static configuration has the point symmetry C_1 .
 The point group associated with its full space group is D_2h.


Analysis of symmetry for dynamics (positions and initial velocities):
=====================================================================
 Subroutine PRICEL returns:
 Original cell was already a primitive cell.
 

 Routine SETGRP: Setting up the symmetry group for a 
 simple orthorhombic supercell.


 Subroutine GETGRP returns: Found  8 space group operations
 (whereof  1 operations were pure point group operations)
 out of a pool of  8 trial point group operations.


The dynamic configuration has the point symmetry C_1 .
 The point group associated with its full space group is D_2h.


Analysis of structural, dynamic, and magnetic symmetry:
=====================================================================
 Subroutine PRICEL returns:
 Original cell was already a primitive cell.
 

 Routine SETGRP: Setting up the symmetry group for a 
 simple orthorhombic supercell.


 Subroutine GETGRP returns: Found  8 space group operations
 (whereof  1 operations were pure point group operations)
 out of a pool of  8 trial point group operations.


The overall configuration has the point symmetry C_1 .
 The point group associated with its full space group is D_2h.


 Subroutine INISYM returns: Found  8 space group operations
 (whereof  1 operations are pure point group operations),
 and found     1 'primitive' translations


----------------------------------------------------------------------------------------

                                     Primitive cell                                     

  volume of cell :     298.3752

  direct lattice vectors                    reciprocal lattice vectors
     3.858100176  0.000000000  0.000000000     0.259194929  0.000000000  0.000000000
     0.000000000  4.526575088  0.000000000     0.000000000  0.220917577  0.000000000
     0.000000000  0.000000000 17.085176468     0.000000000  0.000000000  0.058530270

  length of vectors
     3.858100176  4.526575088 17.085176468     0.259194929  0.220917577  0.058530270

  position of ions in fractional coordinates (direct lattice)
     0.250000000  0.115641899  0.080155201
     0.750000000  0.884358108  0.744253983
     0.750000000  0.615641892  0.244253983
     0.250000000  0.384358108  0.580155205
     0.250000000  0.504948974  0.728792875
     0.750000000  0.495050967  0.095616294
     0.750000000  0.004949023  0.595616313
     0.250000000  0.995051026  0.228792895

  ion indices of the primitive-cell ions
   primitive index   ion index
                 1           1
                 2           2
                 3           3
                 4           4
                 5           5
                 6           6
                 7           7
                 8           8

----------------------------------------------------------------------------------------

 
 
 KPOINTS: KPOINTS created by Atomic Simulation Env

Automatic generation of k-mesh.
 Grid dimensions read from file:
 generate k-points for:    6    6    2

 Generating k-lattice:

  Cartesian coordinates                     Fractional coordinates (reciprocal lattice)
     0.043199155  0.000000000  0.000000000     0.166666667  0.000000000  0.000000000
     0.000000000  0.036819596  0.000000000     0.000000000  0.166666667  0.000000000
     0.000000000  0.000000000  0.029265135     0.000000000  0.000000000  0.500000000

  Length of vectors
     0.043199155  0.036819596  0.029265135

  Shift w.r.t. Gamma in fractional coordinates (k-lattice)
     0.000000000  0.000000000  0.000000000

 
 Subroutine IBZKPT returns following result:
 ===========================================
 
 Found     32 irreducible k-points:
 
 Following reciprocal coordinates:
            Coordinates               Weight
  0.000000  0.000000  0.000000      1.000000
  0.166667  0.000000  0.000000      2.000000
  0.333333  0.000000  0.000000      2.000000
  0.500000  0.000000  0.000000      1.000000
  0.000000  0.166667  0.000000      2.000000
  0.166667  0.166667  0.000000      4.000000
  0.333333  0.166667  0.000000      4.000000
  0.500000  0.166667  0.000000      2.000000
  0.000000  0.333333  0.000000      2.000000
  0.166667  0.333333  0.000000      4.000000
  0.333333  0.333333  0.000000      4.000000
  0.500000  0.333333  0.000000      2.000000
  0.000000  0.500000  0.000000      1.000000
  0.166667  0.500000  0.000000      2.000000
  0.333333  0.500000  0.000000      2.000000
  0.500000  0.500000  0.000000      1.000000
  0.000000  0.000000  0.500000      1.000000
  0.166667  0.000000  0.500000      2.000000
  0.333333  0.000000  0.500000      2.000000
  0.500000  0.000000  0.500000      1.000000
  0.000000  0.166667  0.500000      2.000000
  0.166667  0.166667  0.500000      4.000000
  0.333333  0.166667  0.500000      4.000000
  0.500000  0.166667  0.500000      2.000000
  0.000000  0.333333  0.500000      2.000000
  0.166667  0.333333  0.500000      4.000000
  0.333333  0.333333  0.500000      4.000000
  0.500000  0.333333  0.500000      2.000000
  0.000000  0.500000  0.500000      1.000000
  0.166667  0.500000  0.500000      2.000000
  0.333333  0.500000  0.500000      2.000000
  0.500000  0.500000  0.500000      1.000000
 
 Following cartesian coordinates:
            Coordinates               Weight
  0.000000  0.000000  0.000000      1.000000
  0.043199  0.000000  0.000000      2.000000
  0.086398  0.000000  0.000000      2.000000
  0.129597  0.000000  0.000000      1.000000
  0.000000  0.036820  0.000000      2.000000
  0.043199  0.036820  0.000000      4.000000
  0.086398  0.036820  0.000000      4.000000
  0.129597  0.036820  0.000000      2.000000
  0.000000  0.073639  0.000000      2.000000
  0.043199  0.073639  0.000000      4.000000
  0.086398  0.073639  0.000000      4.000000
  0.129597  0.073639  0.000000      2.000000
  0.000000  0.110459  0.000000      1.000000
  0.043199  0.110459  0.000000      2.000000
  0.086398  0.110459  0.000000      2.000000
  0.129597  0.110459  0.000000      1.000000
  0.000000  0.000000  0.029265      1.000000
  0.043199  0.000000  0.029265      2.000000
  0.086398  0.000000  0.029265      2.000000
  0.129597  0.000000  0.029265      1.000000
  0.000000  0.036820  0.029265      2.000000
  0.043199  0.036820  0.029265      4.000000
  0.086398  0.036820  0.029265      4.000000
  0.129597  0.036820  0.029265      2.000000
  0.000000  0.073639  0.029265      2.000000
  0.043199  0.073639  0.029265      4.000000
  0.086398  0.073639  0.029265      4.000000
  0.129597  0.073639  0.029265      2.000000
  0.000000  0.110459  0.029265      1.000000
  0.043199  0.110459  0.029265      2.000000
  0.086398  0.110459  0.029265      2.000000
  0.129597  0.110459  0.029265      1.000000
 
 -----------------------------------------------------------------------------
|                                                                             |
|           W    W    AA    RRRRR   N    N  II  N    N   GGGG   !!!           |
|           W    W   A  A   R    R  NN   N  II  NN   N  G    G  !!!           |
|           W    W  A    A  R    R  N N  N  II  N N  N  G       !!!           |
|           W WW W  AAAAAA  RRRRR   N  N N  II  N  N N  G  GGG   !            |
|           WW  WW  A    A  R   R   N   NN  II  N   NN  G    G                |
|           W    W  A    A  R    R  N    N  II  N    N   GGGG   !!!           |
|                                                                             |
|     The number of bands has been changed from the values supplied in        |
|     the INCAR file. This is a result of running the parallel version.       |
|     The orbitals not found in the WAVECAR file will be initialized with     |
|     random numbers, which is usually adequate. For correlated               |
|     calculations, however, you should redo the groundstate calculation.     |
|     I found NBANDS = 220. Now, NBANDS = 224.                                |
|                                                                             |
 -----------------------------------------------------------------------------



--------------------------------------------------------------------------------------------------------




 Dimension of arrays:
   k-points           NKPTS =     32   k-points in BZ     NKDIM =     32   number of bands    NBANDS=    224
   number of dos      NEDOS =    301   number of ions     NIONS =      8
   non local maximal  LDIM  =      5   non local SUM 2l+1 LMDIM =     13
   total plane-waves  NPLWV = 138240
   max r-space proj   IRMAX =      1   max aug-charges    IRDMAX=  25378
   dimension x,y,z NGX =    30 NGY =   36 NGZ =  128
   dimension x,y,z NGXF=    60 NGYF=   72 NGZF=  256
   support grid    NGXF=    60 NGYF=   72 NGZF=  256
   ions per type =               4   4
   NGX,Y,Z   is equivalent  to a cutoff of  12.93, 13.22, 12.45 a.u.
   NGXF,Y,Z  is equivalent  to a cutoff of  25.85, 26.44, 24.91 a.u.

 SYSTEM =  02_SCF                                  
 POSCAR =  Ge Se                                   

 Startparameter for this run:
   NWRITE =      2    write-flag & timer
   PREC   = accura    normal or accurate (medium, high low for compatibility)
   ISTART =      0    job   : 0-new  1-cont  2-samecut
   ICHARG =      2    charge: 1-file 2-atom 10-const
   ISPIN  =      2    spin polarized calculation?
   LNONCOLLINEAR =      F non collinear calculations
   LSORBIT =      F    spin-orbit coupling
   INIWAV =      1    electr: 0-lowe 1-rand  2-diag
   LASPH  =      T    aspherical Exc in radial PAW
 Electronic Relaxation 1
   ENCUT  =  520.0 eV  38.22 Ry    6.18 a.u.   7.17  8.42 31.77*2*pi/ulx,y,z
   ENINI  =  520.0     initial cutoff
   ENAUG  =  446.8 eV  augmentation charge cutoff
   NELM   =    100;   NELMIN=  5; NELMDL=  0     # of ELM steps 
   EDIFF  = 0.1E-05   stopping-criterion for ELM
   LREAL  =      F    real-space projection
   NLSPLINE    = F    spline interpolate recip. space projectors
   LCOMPAT=      F    compatible to vasp.4.4
   GGA_COMPAT  = T    GGA compatible to vasp.4.4-vasp.4.6
   LMAXPAW     = -100 max onsite density
   LMAXMIX     =    2 max onsite mixed and CHGCAR
   VOSKOWN=      0    Vosko Wilk Nusair interpolation
   ROPT   =    0.00000   0.00000
 Ionic relaxation
   EDIFFG = 0.1E-04   stopping-criterion for IOM
   NSW    =      0    number of steps for IOM
   NBLOCK =      1;   KBLOCK =      1    inner block; outer block 
   IBRION =     -1    ionic relax: 0-MD 1-quasi-New 2-CG
   NFREE  =      0    steps in history (QN), initial steepest desc. (CG)
   ISIF   =      2    stress and relaxation
   IWAVPR =     10    prediction:  0-non 1-charg 2-wave 3-comb
   ISYM   =      2    0-nonsym 1-usesym 2-fastsym
   LCORR  =      T    Harris-Foulkes like correction to forces

   POTIM  = 0.5000    time-step for ionic-motion
   TEIN   =    0.0    initial temperature
   TEBEG  =    0.0;   TEEND  =   0.0 temperature during run
   SMASS  =  -3.00    Nose mass-parameter (am)
   estimated Nose-frequenzy (Omega)   =  0.10E-29 period in steps = 0.13E+47 mass=  -0.340E-27a.u.
   SCALEE = 1.0000    scale energy and forces
   NPACO  =    256;   APACO  = 10.0  distance and # of slots for P.C.
   PSTRESS=    0.0 pullay stress

  Mass of Ions in am
   POMASS =  72.61 78.96
  Ionic Valenz
   ZVAL   =   4.00  6.00
  Atomic Wigner-Seitz radii
   RWIGS  =  -1.00 -1.00
  virtual crystal weights 
   VCA    =   1.00  1.00
   NELECT =      40.0000    total number of electrons
   NUPDOWN=      -1.0000    fix difference up-down

 DOS related values:
   EMIN   =  10.00;   EMAX   =-10.00  energy-range for DOS
   EFERMI =   0.00;   METHOD = LEGACY      
   ISMEAR =     0;   SIGMA  =   0.05  broadening in eV -4-tet -1-fermi 0-gaus

 Electronic relaxation 2 (details)
   IALGO  =     38    algorithm
   LDIAG  =      T    sub-space diagonalisation (order eigenvalues)
   LSUBROT=      F    optimize rotation matrix (better conditioning)
   TURBO    =      0    0=normal 1=particle mesh
   IRESTART =      0    0=no restart 2=restart with 2 vectors
   NREBOOT  =      0    no. of reboots
   NMIN     =      0    reboot dimension
   EREF     =   0.00    reference energy to select bands
   IMIX   =      4    mixing-type and parameters
     AMIX     =   0.40;   BMIX     =  1.00
     AMIX_MAG =   1.60;   BMIX_MAG =  1.00
     AMIN     =   0.10
     WC   =   100.;   INIMIX=   1;  MIXPRE=   1;  MAXMIX= -45

 Intra band minimization:
   WEIMIN = 0.0000     energy-eigenvalue tresh-hold
   EBREAK =  0.11E-08  absolut break condition
   DEPER  =   0.30     relativ break condition  

   TIME   =   0.40     timestep for ELM

  volume/ion in A,a.u.               =      37.30       251.69
  Fermi-wavevector in a.u.,A,eV,Ry     =   0.837865  1.583335  9.551526  0.702017
  Thomas-Fermi vector in A             =   1.951825
 
 Write flags
   LWAVE        =      T    write WAVECAR
   LDOWNSAMPLE  =      F    k-point downsampling of WAVECAR
   LCHARG       =      T    write CHGCAR
   LVTOT        =      F    write LOCPOT, total local potential
   LVHAR        =      F    write LOCPOT, Hartree potential only
   LELF         =      F    write electronic localiz. function (ELF)
   LORBIT       =     11    0 simple, 1 ext, 2 COOP (PROOUT), +10 PAW based schemes


 Dipole corrections
   LMONO  =      F    monopole corrections only (constant potential shift)
   LDIPOL =      F    correct potential (dipole corrections)
   IDIPOL =      0    1-x, 2-y, 3-z, 4-all directions 
   EPSILON=  1.0000000 bulk dielectric constant

 Exchange correlation treatment:
   GGA     =    PE    GGA type
   LEXCH   =     8    internal setting for exchange type
   LIBXC   =     F    Libxc                    
   VOSKOWN =     0    Vosko Wilk Nusair interpolation
   LHFCALC =     F    Hartree Fock is set to
   LHFONE  =     F    Hartree Fock one center treatment
   AEXX    =    0.0000 exact exchange contribution

 Linear response parameters
   LEPSILON=     F    determine dielectric tensor
   LRPA    =     F    only Hartree local field effects (RPA)
   LNABLA  =     F    use nabla operator in PAW spheres
   LVEL    =     F    velocity operator in full k-point grid
   CSHIFT  =0.1000    complex shift for real part using Kramers Kronig
   OMEGAMAX=  -1.0    maximum frequency
   DEG_THRESHOLD= 0.2000000E-02 threshold for treating states as degnerate
   RTIME   =   -0.100 relaxation time in fs
  (WPLASMAI=    0.000 imaginary part of plasma frequency in eV, 0.658/RTIME)
   DFIELD  = 0.0000000 0.0000000 0.0000000 field for delta impulse in time
 
  Optional k-point grid parameters
   LKPOINTS_OPT  =     F    use optional k-point grid
   KPOINTS_OPT_MODE=     1    mode for optional k-point grid
 
 Orbital magnetization related:
   ORBITALMAG=     F  switch on orbital magnetization
   LCHIMAG   =     F  perturbation theory with respect to B field
   DQ        =  0.001000  dq finite difference perturbation B field
   LLRAUG    =     F  two centre corrections for induced B field
   LBONE     =     F  B-component reconstruction in AE one-centre
   LVGVCALC  =     T  calculate vGv susceptibility
   LVGVAPPL  =     F  apply vGv susceptibility instead of pGv for G=0

 Random number generation:
   RANDOM_GENERATOR = DEFAULT
   PCG_SEED         = not used


--------------------------------------------------------------------------------------------------------


 Static calculation
 charge density and potential will be updated during run
 spin polarized calculation
 Variant of blocked Davidson
 Davidson routine will perform the subspace rotation
 perform sub-space diagonalisation
    after iterative eigenvector-optimisation
 modified Broyden-mixing scheme, WC =      100.0
 initial mixing is a Kerker type mixing with AMIX =  0.4000 and BMIX =      1.0000
 Hartree-type preconditioning will be used
 using additional bands           204
 reciprocal scheme for non local part
 use partial core corrections
 calculate Harris-corrections to forces 
   (improved forces if not selfconsistent)
 use gradient corrections 
 use of overlap-Matrix (Vanderbilt PP)
 Gauss-broadening in eV      SIGMA  =   0.05


--------------------------------------------------------------------------------------------------------


  energy-cutoff  :      520.00
  volume of cell :      298.38
      direct lattice vectors                 reciprocal lattice vectors
     3.858100176  0.000000000  0.000000000     0.259194929  0.000000000  0.000000000
     0.000000000  4.526575088  0.000000000     0.000000000  0.220917577  0.000000000
     0.000000000  0.000000000 17.085176468     0.000000000  0.000000000  0.058530270

  length of vectors
     3.858100176  4.526575088 17.085176468     0.259194929  0.220917577  0.058530270


 
 k-points in units of 2pi/SCALE and weight: KPOINTS created by Atomic Simulation Env
   0.00000000  0.00000000  0.00000000       0.014
   0.04319915  0.00000000  0.00000000       0.028
   0.08639831  0.00000000  0.00000000       0.028
   0.12959746  0.00000000  0.00000000       0.014
   0.00000000  0.03681960  0.00000000       0.028
   0.04319915  0.03681960  0.00000000       0.056
   0.08639831  0.03681960  0.00000000       0.056
   0.12959746  0.03681960  0.00000000       0.028
   0.00000000  0.07363919  0.00000000       0.028
   0.04319915  0.07363919  0.00000000       0.056
   0.08639831  0.07363919  0.00000000       0.056
   0.12959746  0.07363919  0.00000000       0.028
   0.00000000  0.11045879  0.00000000       0.014
   0.04319915  0.11045879  0.00000000       0.028
   0.08639831  0.11045879  0.00000000       0.028
   0.12959746  0.11045879  0.00000000       0.014
   0.00000000  0.00000000  0.02926514       0.014
   0.04319915  0.00000000  0.02926514       0.028
   0.08639831  0.00000000  0.02926514       0.028
   0.12959746  0.00000000  0.02926514       0.014
   0.00000000  0.03681960  0.02926514       0.028
   0.04319915  0.03681960  0.02926514       0.056
   0.08639831  0.03681960  0.02926514       0.056
   0.12959746  0.03681960  0.02926514       0.028
   0.00000000  0.07363919  0.02926514       0.028
   0.04319915  0.07363919  0.02926514       0.056
   0.08639831  0.07363919  0.02926514       0.056
   0.12959746  0.07363919  0.02926514       0.028
   0.00000000  0.11045879  0.02926514       0.014
   0.04319915  0.11045879  0.02926514       0.028
   0.08639831  0.11045879  0.02926514       0.028
   0.12959746  0.11045879  0.02926514       0.014
 
 k-points in reciprocal lattice and weights: KPOINTS created by Atomic Simulation Env
   0.00000000  0.00000000  0.00000000       0.014
   0.16666667  0.00000000  0.00000000       0.028
   0.33333333  0.00000000  0.00000000       0.028
   0.50000000  0.00000000  0.00000000       0.014
   0.00000000  0.16666667  0.00000000       0.028
   0.16666667  0.16666667  0.00000000       0.056
   0.33333333  0.16666667  0.00000000       0.056
   0.50000000  0.16666667  0.00000000       0.028
   0.00000000  0.33333333  0.00000000       0.028
   0.16666667  0.33333333  0.00000000       0.056
   0.33333333  0.33333333  0.00000000       0.056
   0.50000000  0.33333333  0.00000000       0.028
   0.00000000  0.50000000  0.00000000       0.014
   0.16666667  0.50000000  0.00000000       0.028
   0.33333333  0.50000000  0.00000000       0.028
   0.50000000  0.50000000  0.00000000       0.014
   0.00000000  0.00000000  0.50000000       0.014
   0.16666667  0.00000000  0.50000000       0.028
   0.33333333  0.00000000  0.50000000       0.028
   0.50000000  0.00000000  0.50000000       0.014
   0.00000000  0.16666667  0.50000000       0.028
   0.16666667  0.16666667  0.50000000       0.056
   0.33333333  0.16666667  0.50000000       0.056
   0.50000000  0.16666667  0.50000000       0.028
   0.00000000  0.33333333  0.50000000       0.028
   0.16666667  0.33333333  0.50000000       0.056
   0.33333333  0.33333333  0.50000000       0.056
   0.50000000  0.33333333  0.50000000       0.028
   0.00000000  0.50000000  0.50000000       0.014
   0.16666667  0.50000000  0.50000000       0.028
   0.33333333  0.50000000  0.50000000       0.028
   0.50000000  0.50000000  0.50000000       0.014
 
 position of ions in fractional coordinates (direct lattice) 
   0.25000000  0.11564190  0.08015520
   0.75000000  0.88435811  0.74425398
   0.75000000  0.61564189  0.24425398
   0.25000000  0.38435811  0.58015521
   0.25000000  0.50494897  0.72879288
   0.75000000  0.49505097  0.09561629
   0.75000000  0.00494902  0.59561631
   0.25000000  0.99505103  0.22879289
 
 position of ions in cartesian coordinates  (Angst):
   0.96452504  0.52346174  1.36946575
   2.89357513  4.00311338 12.71571064
   2.89357513  2.78674925  4.17312240
   0.96452504  1.73982584  9.91205406
   0.96452504  2.28568945 12.45155488
   2.89357513  2.24088537  1.63362125
   2.89357513  0.02240212 10.17620982
   0.96452504  4.50417319  3.90896698
 


--------------------------------------------------------------------------------------------------------


 k-point   1 :   0.0000 0.0000 0.0000  plane waves:    7997
 k-point   2 :   0.1667 0.0000 0.0000  plane waves:    8031
 k-point   3 :   0.3333 0.0000 0.0000  plane waves:    8036
 k-point   4 :   0.5000 0.0000 0.0000  plane waves:    8066
 k-point   5 :   0.0000 0.1667 0.0000  plane waves:    8045
 k-point   6 :   0.1667 0.1667 0.0000  plane waves:    8025
 k-point   7 :   0.3333 0.1667 0.0000  plane waves:    8044
 k-point   8 :   0.5000 0.1667 0.0000  plane waves:    8072
 k-point   9 :   0.0000 0.3333 0.0000  plane waves:    8019
 k-point  10 :   0.1667 0.3333 0.0000  plane waves:    8025
 k-point  11 :   0.3333 0.3333 0.0000  plane waves:    8045
 k-point  12 :   0.5000 0.3333 0.0000  plane waves:    8042
 k-point  13 :   0.0000 0.5000 0.0000  plane waves:    8056
 k-point  14 :   0.1667 0.5000 0.0000  plane waves:    8020
 k-point  15 :   0.3333 0.5000 0.0000  plane waves:    8014
 k-point  16 :   0.5000 0.5000 0.0000  plane waves:    8028
 k-point  17 :   0.0000 0.0000 0.5000  plane waves:    8036
 k-point  18 :   0.1667 0.0000 0.5000  plane waves:    8030
 k-point  19 :   0.3333 0.0000 0.5000  plane waves:    8064
 k-point  20 :   0.5000 0.0000 0.5000  plane waves:    8076
 k-point  21 :   0.0000 0.1667 0.5000  plane waves:    8028
 k-point  22 :   0.1667 0.1667 0.5000  plane waves:    8028
 k-point  23 :   0.3333 0.1667 0.5000  plane waves:    8036
 k-point  24 :   0.5000 0.1667 0.5000  plane waves:    8088
 k-point  25 :   0.0000 0.3333 0.5000  plane waves:    8006
 k-point  26 :   0.1667 0.3333 0.5000  plane waves:    8014
 k-point  27 :   0.3333 0.3333 0.5000  plane waves:    8032
 k-point  28 :   0.5000 0.3333 0.5000  plane waves:    8020
 k-point  29 :   0.0000 0.5000 0.5000  plane waves:    8028
 k-point  30 :   0.1667 0.5000 0.5000  plane waves:    8004
 k-point  31 :   0.3333 0.5000 0.5000  plane waves:    8016
 k-point  32 :   0.5000 0.5000 0.5000  plane waves:    8000

 maximum and minimum number of plane-waves per node :      8088     7997

 maximum number of plane-waves:      8088
 maximum index in each direction: 
   IXMAX=    7   IYMAX=    8   IZMAX=   31
   IXMIN=   -7   IYMIN=   -8   IZMIN=  -32


 serial   3D FFT for wavefunctions
 parallel 3D FFT for charge:
    minimum data exchange during FFTs selected (reduces bandwidth)


 total amount of memory used by VASP MPI-rank0   222764. kBytes
=======================================================================

   base      :      30000. kBytes
   nonl-proj :      54923. kBytes
   fftplans  :       3015. kBytes
   grid      :      17028. kBytes
   one-center:        129. kBytes
   wavefun   :     117669. kBytes
 
     INWAV:  cpu time      0.0000: real time      0.0001
 Broyden mixing: mesh for mixing (old mesh)
   NGX = 15   NGY = 17   NGZ = 63
  (NGX  = 60   NGY  = 72   NGZ  =256)
  gives a total of  16065 points

 initial charge density was supplied:
 charge density of overlapping atoms calculated
 number of electron      40.0000000 magnetization       8.0000000
 keeping initial charge density in first step


--------------------------------------------------------------------------------------------------------


 Maximum index for augmentation-charges          1788 (set IRDMAX)


--------------------------------------------------------------------------------------------------------


 First call to EWALD:  gamma=   0.265
 Maximum number of real-space cells 4x 4x 1
 Maximum number of reciprocal cells 2x 2x 6

    FEWALD:  cpu time      0.0018: real time      0.0018


--------------------------------------- Ionic step        1  -------------------------------------------




--------------------------------------- Iteration      1(   1)  ---------------------------------------


    POTLOK:  cpu time      0.1424: real time      0.1446
    SETDIJ:  cpu time      1.1312: real time      1.1334
     EDDAV:  cpu time     18.7897: real time     18.9998
       DOS:  cpu time      0.0025: real time      0.0025
    --------------------------------------------
      LOOP:  cpu time     20.0657: real time     20.2803

 eigenvalue-minimisations  : 28672
 total energy-change (2. order) : 0.1744956E+03  (-0.9729868E+03)
 number of electron      40.0000000 magnetization       8.0000000
 augmentation part       40.0000000 magnetization       8.0000000

 Free energy of the ion-electron system (eV)
  ---------------------------------------------------
  alpha Z        PSCENC =        56.78905763
  Ewald energy   TEWEN  =      -790.66993610
  -Hartree energ DENC   =      -605.63385114
  -exchange      EXHF   =         0.00000000
  -V(xc)+E(xc)   XCENC  =       -34.01575663
  PAW double counting   =      1193.15788873    -1079.99237720
  entropy T*S    EENTRO =        -0.00226388
  eigenvalues    EBANDS =       -13.63178296
  atomic energy  EATOM  =      1448.49460871
  Solvation  Ediel_sol  =         0.00000000
  ---------------------------------------------------
  free energy    TOTEN  =       174.49558716 eV

  energy without entropy =      174.49785104  energy(sigma->0) =      174.49671910


--------------------------------------------------------------------------------------------------------




--------------------------------------- Iteration      1(   2)  ---------------------------------------


     EDDAV:  cpu time     21.6794: real time     21.8572
       DOS:  cpu time      0.0019: real time      0.0019
    --------------------------------------------
      LOOP:  cpu time     21.6813: real time     21.8591

 eigenvalue-minimisations  : 34688
 total energy-change (2. order) :-0.1973184E+03  (-0.1753479E+03)
 number of electron      40.0000000 magnetization       8.0000000
 augmentation part       40.0000000 magnetization       8.0000000

 Free energy of the ion-electron system (eV)
  ---------------------------------------------------
  alpha Z        PSCENC =        56.78905763
  Ewald energy   TEWEN  =      -790.66993610
  -Hartree energ DENC   =      -605.63385114
  -exchange      EXHF   =         0.00000000
  -V(xc)+E(xc)   XCENC  =       -34.01575663
  PAW double counting   =      1193.15788873    -1079.99237720
  entropy T*S    EENTRO =        -0.00000000
  eigenvalues    EBANDS =      -210.95244484
  atomic energy  EATOM  =      1448.49460871
  Solvation  Ediel_sol  =         0.00000000
  ---------------------------------------------------
  free energy    TOTEN  =       -22.82281085 eV

  energy without entropy =      -22.82281085  energy(sigma->0) =      -22.82281085


--------------------------------------------------------------------------------------------------------




--------------------------------------- Iteration      1(   3)  ---------------------------------------


     EDDAV:  cpu time     21.5728: real time     21.7631
       DOS:  cpu time      0.0019: real time      0.0019
    --------------------------------------------
      LOOP:  cpu time     21.5747: real time     21.7650

 eigenvalue-minimisations  : 34320
 total energy-change (2. order) :-0.9615503E+01  (-0.9475272E+01)
 number of electron      40.0000000 magnetization       8.0000000
 augmentation part       40.0000000 magnetization       8.0000000

 Free energy of the ion-electron system (eV)
  ---------------------------------------------------
  alpha Z        PSCENC =        56.78905763
  Ewald energy   TEWEN  =      -790.66993610
  -Hartree energ DENC   =      -605.63385114
  -exchange      EXHF   =         0.00000000
  -V(xc)+E(xc)   XCENC  =       -34.01575663
  PAW double counting   =      1193.15788873    -1079.99237720
  entropy T*S    EENTRO =        -0.00000000
  eigenvalues    EBANDS =      -220.56794769
  atomic energy  EATOM  =      1448.49460871
  Solvation  Ediel_sol  =         0.00000000
  ---------------------------------------------------
  free energy    TOTEN  =       -32.43831369 eV

  energy without entropy =      -32.43831369  energy(sigma->0) =      -32.43831369


--------------------------------------------------------------------------------------------------------




--------------------------------------- Iteration      1(   4)  ---------------------------------------


     EDDAV:  cpu time     21.2279: real time     21.4538
       DOS:  cpu time      0.0019: real time      0.0019
    --------------------------------------------
      LOOP:  cpu time     21.2299: real time     21.4558

 eigenvalue-minimisations  : 33744
 total energy-change (2. order) :-0.3849689E-01  (-0.3848865E-01)
 number of electron      40.0000000 magnetization       8.0000000
 augmentation part       40.0000000 magnetization       8.0000000

 Free energy of the ion-electron system (eV)
  ---------------------------------------------------
  alpha Z        PSCENC =        56.78905763
  Ewald energy   TEWEN  =      -790.66993610
  -Hartree energ DENC   =      -605.63385114
  -exchange      EXHF   =         0.00000000
  -V(xc)+E(xc)   XCENC  =       -34.01575663
  PAW double counting   =      1193.15788873    -1079.99237720
  entropy T*S    EENTRO =        -0.00000000
  eigenvalues    EBANDS =      -220.60644457
  atomic energy  EATOM  =      1448.49460871
  Solvation  Ediel_sol  =         0.00000000
  ---------------------------------------------------
  free energy    TOTEN  =       -32.47681058 eV

  energy without entropy =      -32.47681058  energy(sigma->0) =      -32.47681058


--------------------------------------------------------------------------------------------------------




--------------------------------------- Iteration      1(   5)  ---------------------------------------


     EDDAV:  cpu time     21.0117: real time     21.2067
       DOS:  cpu time      0.0019: real time      0.0019
    CHARGE:  cpu time      0.2065: real time      0.2074
    MIXING:  cpu time      0.0069: real time      0.0069
    --------------------------------------------
      LOOP:  cpu time     21.2270: real time     21.4230

 eigenvalue-minimisations  : 33152
 total energy-change (2. order) :-0.8839227E-04  (-0.8839080E-04)
 number of electron      40.0000008 magnetization       6.4751005
 augmentation part       -7.4650410 magnetization       6.4923601

 Broyden mixing:
  rms(total) = 0.96694E+00    rms(broyden)= 0.96693E+00
  rms(prec ) = 0.10013E+01
  weight for this iteration     100.00

 Free energy of the ion-electron system (eV)
  ---------------------------------------------------
  alpha Z        PSCENC =        56.78905763
  Ewald energy   TEWEN  =      -790.66993610
  -Hartree energ DENC   =      -605.63385114
  -exchange      EXHF   =         0.00000000
  -V(xc)+E(xc)   XCENC  =       -34.01575663
  PAW double counting   =      1193.15788873    -1079.99237720
  entropy T*S    EENTRO =        -0.00000000
  eigenvalues    EBANDS =      -220.60653297
  atomic energy  EATOM  =      1448.49460871
  Solvation  Ediel_sol  =         0.00000000
  ---------------------------------------------------
  free energy    TOTEN  =       -32.47689897 eV

  energy without entropy =      -32.47689897  energy(sigma->0) =      -32.47689897


--------------------------------------------------------------------------------------------------------




--------------------------------------- Iteration      1(   6)  ---------------------------------------


    POTLOK:  cpu time      0.1344: real time      0.1353
    SETDIJ:  cpu time      1.1180: real time      1.1206
     EDDAV:  cpu time     20.4612: real time     20.6391
       DOS:  cpu time      0.0019: real time      0.0019
    CHARGE:  cpu time      0.2046: real time      0.2060
    MIXING:  cpu time      0.0059: real time      0.0060
    --------------------------------------------
      LOOP:  cpu time     21.9260: real time     22.1088

 eigenvalue-minimisations  : 32240
 total energy-change (2. order) : 0.5084541E+01  (-0.3177100E+00)
 number of electron      40.0000008 magnetization       4.8369476
 augmentation part       -7.4404270 magnetization       5.0259647

 Broyden mixing:
  rms(total) = 0.59138E+00    rms(broyden)= 0.59138E+00
  rms(prec ) = 0.61000E+00
  weight for this iteration     100.00

 eigenvalues of (default mixing * dielectric matrix)
  average eigenvalue GAMMA=   1.0432
  1.0432

 Free energy of the ion-electron system (eV)
  ---------------------------------------------------
  alpha Z        PSCENC =        56.78905763
  Ewald energy   TEWEN  =      -790.66993610
  -Hartree energ DENC   =      -615.61071950
  -exchange      EXHF   =         0.00000000
  -V(xc)+E(xc)   XCENC  =       -29.90059279
  PAW double counting   =      1450.10147464    -1337.35350066
  entropy T*S    EENTRO =        -0.00000000
  eigenvalues    EBANDS =      -209.24275016
  atomic energy  EATOM  =      1448.49460871
  Solvation  Ediel_sol  =         0.00000000
  ---------------------------------------------------
  free energy    TOTEN  =       -27.39235822 eV

  energy without entropy =      -27.39235822  energy(sigma->0) =      -27.39235822


--------------------------------------------------------------------------------------------------------




--------------------------------------- Iteration      1(   7)  ---------------------------------------


    POTLOK:  cpu time      0.1346: real time      0.1356
    SETDIJ:  cpu time      1.1208: real time      1.1277
     EDDAV:  cpu time     20.6690: real time     20.8523
       DOS:  cpu time      0.0019: real time      0.0019
    CHARGE:  cpu time      0.2036: real time      0.2047
    MIXING:  cpu time      0.0059: real time      0.0059
    --------------------------------------------
      LOOP:  cpu time     22.1358: real time     22.3280

 eigenvalue-minimisations  : 32336
 total energy-change (2. order) : 0.6420911E+00  (-0.4162270E-01)
 number of electron      40.0000008 magnetization       2.8418204
 augmentation part       -7.4214050 magnetization       3.0208751

 Broyden mixing:
  rms(total) = 0.36014E+00    rms(broyden)= 0.36014E+00
  rms(prec ) = 0.37137E+00
  weight for this iteration     100.00

 eigenvalues of (default mixing * dielectric matrix)
  average eigenvalue GAMMA=   1.4157
  0.8501  1.9812

 Free energy of the ion-electron system (eV)
  ---------------------------------------------------
  alpha Z        PSCENC =        56.78905763
  Ewald energy   TEWEN  =      -790.66993610
  -Hartree energ DENC   =      -624.14489595
  -exchange      EXHF   =         0.00000000
  -V(xc)+E(xc)   XCENC  =       -29.02002902
  PAW double counting   =      1705.43027390    -1592.91790827
  entropy T*S    EENTRO =        -0.00000000
  eigenvalues    EBANDS =      -200.71143803
  atomic energy  EATOM  =      1448.49460871
  Solvation  Ediel_sol  =         0.00000000
  ---------------------------------------------------
  free energy    TOTEN  =       -26.75026714 eV

  energy without entropy =      -26.75026714  energy(sigma->0) =      -26.75026714


--------------------------------------------------------------------------------------------------------




--------------------------------------- Iteration      1(   8)  ---------------------------------------


    POTLOK:  cpu time      0.1343: real time      0.1349
    SETDIJ:  cpu time      1.1186: real time      1.1206
     EDDAV:  cpu time     21.1158: real time     21.2939
       DOS:  cpu time      0.0019: real time      0.0019
    CHARGE:  cpu time      0.2145: real time      0.2159
    MIXING:  cpu time      0.0071: real time      0.0071
    --------------------------------------------
      LOOP:  cpu time     22.5922: real time     22.7744

 eigenvalue-minimisations  : 33360
 total energy-change (2. order) :-0.1572676E+01  (-0.1758359E-01)
 number of electron      40.0000008 magnetization       1.9948879
 augmentation part       -7.3847534 magnetization       2.1521373

 Broyden mixing:
  rms(total) = 0.18581E+00    rms(broyden)= 0.18581E+00
  rms(prec ) = 0.18912E+00
  weight for this iteration     100.00

 eigenvalues of (default mixing * dielectric matrix)
  average eigenvalue GAMMA=   1.4150
  2.5104  1.0519  0.6828

 Free energy of the ion-electron system (eV)
  ---------------------------------------------------
  alpha Z        PSCENC =        56.78905763
  Ewald energy   TEWEN  =      -790.66993610
  -Hartree energ DENC   =      -632.49545534
  -exchange      EXHF   =         0.00000000
  -V(xc)+E(xc)   XCENC  =       -29.62530239
  PAW double counting   =      1945.17995347    -1832.79713172
  entropy T*S    EENTRO =        -0.00000000
  eigenvalues    EBANDS =      -193.19873715
  atomic energy  EATOM  =      1448.49460871
  Solvation  Ediel_sol  =         0.00000000
  ---------------------------------------------------
  free energy    TOTEN  =       -28.32294290 eV

  energy without entropy =      -28.32294290  energy(sigma->0) =      -28.32294290


--------------------------------------------------------------------------------------------------------




--------------------------------------- Iteration      1(   9)  ---------------------------------------


    POTLOK:  cpu time      0.1331: real time      0.1338
    SETDIJ:  cpu time      1.1164: real time      1.1191
     EDDAV:  cpu time     20.3004: real time     20.4689
       DOS:  cpu time      0.0019: real time      0.0019
    CHARGE:  cpu time      0.2061: real time      0.2075
    MIXING:  cpu time      0.0061: real time      0.0062
    --------------------------------------------
      LOOP:  cpu time     21.7640: real time     21.9375

 eigenvalue-minimisations  : 31456
 total energy-change (2. order) :-0.1658892E+01  (-0.1925184E-01)
 number of electron      40.0000008 magnetization       1.1539735
 augmentation part       -7.3643472 magnetization       1.2729906

 Broyden mixing:
  rms(total) = 0.12893E+00    rms(broyden)= 0.12893E+00
  rms(prec ) = 0.13072E+00
  weight for this iteration     100.00

 eigenvalues of (default mixing * dielectric matrix)
  average eigenvalue GAMMA=   1.4553
  2.6017  1.6969  0.8768  0.6456

 Free energy of the ion-electron system (eV)
  ---------------------------------------------------
  alpha Z        PSCENC =        56.78905763
  Ewald energy   TEWEN  =      -790.66993610
  -Hartree energ DENC   =      -634.30747400
  -exchange      EXHF   =         0.00000000
  -V(xc)+E(xc)   XCENC  =       -30.62480624
  PAW double counting   =      1973.92649785    -1861.58370476
  entropy T*S    EENTRO =        -0.00000000
  eigenvalues    EBANDS =      -192.00607826
  atomic energy  EATOM  =      1448.49460871
  Solvation  Ediel_sol  =         0.00000000
  ---------------------------------------------------
  free energy    TOTEN  =       -29.98183518 eV

  energy without entropy =      -29.98183518  energy(sigma->0) =      -29.98183518


--------------------------------------------------------------------------------------------------------




--------------------------------------- Iteration      1(  10)  ---------------------------------------


    POTLOK:  cpu time      0.1332: real time      0.1347
    SETDIJ:  cpu time      1.1104: real time      1.1127
     EDDAV:  cpu time     20.5400: real time     20.6964
       DOS:  cpu time      0.0019: real time      0.0019
    CHARGE:  cpu time      0.2080: real time      0.2091
    MIXING:  cpu time      0.0060: real time      0.0061
    --------------------------------------------
      LOOP:  cpu time     21.9995: real time     22.1609

 eigenvalue-minimisations  : 32176
 total energy-change (2. order) :-0.1938999E+01  (-0.4047363E-01)
 number of electron      40.0000008 magnetization       0.3667332
 augmentation part       -7.3462256 magnetization       0.4331158

 Broyden mixing:
  rms(total) = 0.76516E-01    rms(broyden)= 0.76516E-01
  rms(prec ) = 0.79426E-01
  weight for this iteration     100.00

 eigenvalues of (default mixing * dielectric matrix)
  average eigenvalue GAMMA=   1.7959
  3.9617  2.5229  1.0639  0.8073  0.6238

 Free energy of the ion-electron system (eV)
  ---------------------------------------------------
  alpha Z        PSCENC =        56.78905763
  Ewald energy   TEWEN  =      -790.66993610
  -Hartree energ DENC   =      -634.46455639
  -exchange      EXHF   =         0.00000000
  -V(xc)+E(xc)   XCENC  =       -31.80214782
  PAW double counting   =      1952.38746235    -1840.00294967
  entropy T*S    EENTRO =        -0.00000000
  eigenvalues    EBANDS =      -192.65237240
  atomic energy  EATOM  =      1448.49460871
  Solvation  Ediel_sol  =         0.00000000
  ---------------------------------------------------
  free energy    TOTEN  =       -31.92083370 eV

  energy without entropy =      -31.92083370  energy(sigma->0) =      -31.92083370


--------------------------------------------------------------------------------------------------------




--------------------------------------- Iteration      1(  11)  ---------------------------------------


    POTLOK:  cpu time      0.1318: real time      0.1325
    SETDIJ:  cpu time      1.1118: real time      1.1138
     EDDAV:  cpu time     20.1699: real time     20.3332
       DOS:  cpu time      0.0019: real time      0.0019
    CHARGE:  cpu time      0.2075: real time      0.2088
    MIXING:  cpu time      0.0061: real time      0.0061
    --------------------------------------------
      LOOP:  cpu time     21.6291: real time     21.7963

 eigenvalue-minimisations  : 31200
 total energy-change (2. order) :-0.1325411E+01  (-0.2873859E-01)
 number of electron      40.0000008 magnetization       0.2394419
 augmentation part       -7.3332113 magnetization       0.2618709

 Broyden mixing:
  rms(total) = 0.32959E-01    rms(broyden)= 0.32959E-01
  rms(prec ) = 0.43289E-01
  weight for this iteration     100.00

 eigenvalues of (default mixing * dielectric matrix)
  average eigenvalue GAMMA=   1.7684
  4.5300  2.5752  1.1843  0.9439  0.7545  0.6222

 Free energy of the ion-electron system (eV)
  ---------------------------------------------------
  alpha Z        PSCENC =        56.78905763
  Ewald energy   TEWEN  =      -790.66993610
  -Hartree energ DENC   =      -633.34231184
  -exchange      EXHF   =         0.00000000
  -V(xc)+E(xc)   XCENC  =       -32.59607724
  PAW double counting   =      1924.70688898    -1812.28454016
  entropy T*S    EENTRO =        -0.00000000
  eigenvalues    EBANDS =      -194.34393495
  atomic energy  EATOM  =      1448.49460871
  Solvation  Ediel_sol  =         0.00000000
  ---------------------------------------------------
  free energy    TOTEN  =       -33.24624498 eV

  energy without entropy =      -33.24624498  energy(sigma->0) =      -33.24624498


--------------------------------------------------------------------------------------------------------




--------------------------------------- Iteration      1(  12)  ---------------------------------------


    POTLOK:  cpu time      0.1309: real time      0.1316
    SETDIJ:  cpu time      1.1143: real time      1.1164
     EDDAV:  cpu time     20.5719: real time     20.7350
       DOS:  cpu time      0.0019: real time      0.0019
    CHARGE:  cpu time      0.2051: real time      0.2064
    MIXING:  cpu time      0.0063: real time      0.0063
    --------------------------------------------
      LOOP:  cpu time     22.0305: real time     22.1976

 eigenvalue-minimisations  : 32240
 total energy-change (2. order) :-0.1693537E+00  (-0.2628117E-02)
 number of electron      40.0000008 magnetization       0.1339926
 augmentation part       -7.3357365 magnetization       0.1453888

 Broyden mixing:
  rms(total) = 0.22796E-01    rms(broyden)= 0.22796E-01
  rms(prec ) = 0.32360E-01
  weight for this iteration     100.00

 eigenvalues of (default mixing * dielectric matrix)
  average eigenvalue GAMMA=   1.7558
  4.7501  2.6826  1.6201  1.1055  0.8139  0.6957  0.6225

 Free energy of the ion-electron system (eV)
  ---------------------------------------------------
  alpha Z        PSCENC =        56.78905763
  Ewald energy   TEWEN  =      -790.66993610
  -Hartree energ DENC   =      -631.69139808
  -exchange      EXHF   =         0.00000000
  -V(xc)+E(xc)   XCENC  =       -32.74125577
  PAW double counting   =      1915.96831878    -1803.53760414
  entropy T*S    EENTRO =        -0.00000000
  eigenvalues    EBANDS =      -196.02738969
  atomic energy  EATOM  =      1448.49460871
  Solvation  Ediel_sol  =         0.00000000
  ---------------------------------------------------
  free energy    TOTEN  =       -33.41559866 eV

  energy without entropy =      -33.41559866  energy(sigma->0) =      -33.41559866


--------------------------------------------------------------------------------------------------------




--------------------------------------- Iteration      1(  13)  ---------------------------------------


    POTLOK:  cpu time      0.1316: real time      0.1340
    SETDIJ:  cpu time      1.1110: real time      1.1134
     EDDAV:  cpu time     20.2845: real time     20.4523
       DOS:  cpu time      0.0019: real time      0.0019
    CHARGE:  cpu time      0.2094: real time      0.2108
    MIXING:  cpu time      0.0062: real time      0.0062
    --------------------------------------------
      LOOP:  cpu time     21.7447: real time     21.9187

 eigenvalue-minimisations  : 31392
 total energy-change (2. order) :-0.7813315E-01  (-0.8607620E-03)
 number of electron      40.0000008 magnetization       0.0560454
 augmentation part       -7.3423144 magnetization       0.0609749

 Broyden mixing:
  rms(total) = 0.14509E-01    rms(broyden)= 0.14509E-01
  rms(prec ) = 0.19044E-01
  weight for this iteration     100.00

 eigenvalues of (default mixing * dielectric matrix)
  average eigenvalue GAMMA=   1.7218
  4.8961  2.6782  2.0501  1.1876  0.9489  0.7717  0.6209  0.6209

 Free energy of the ion-electron system (eV)
  ---------------------------------------------------
  alpha Z        PSCENC =        56.78905763
  Ewald energy   TEWEN  =      -790.66993610
  -Hartree energ DENC   =      -629.38750100
  -exchange      EXHF   =         0.00000000
  -V(xc)+E(xc)   XCENC  =       -32.88634703
  PAW double counting   =      1909.00017766    -1796.56434081
  entropy T*S    EENTRO =        -0.00000000
  eigenvalues    EBANDS =      -198.26945086
  atomic energy  EATOM  =      1448.49460871
  Solvation  Ediel_sol  =         0.00000000
  ---------------------------------------------------
  free energy    TOTEN  =       -33.49373181 eV

  energy without entropy =      -33.49373181  energy(sigma->0) =      -33.49373181


--------------------------------------------------------------------------------------------------------




--------------------------------------- Iteration      1(  14)  ---------------------------------------


    POTLOK:  cpu time      0.1301: real time      0.1311
    SETDIJ:  cpu time      1.1124: real time      1.1150
     EDDAV:  cpu time     20.8989: real time     21.0880
       DOS:  cpu time      0.0019: real time      0.0019
    CHARGE:  cpu time      0.2056: real time      0.2071
    MIXING:  cpu time      0.0065: real time      0.0067
    --------------------------------------------
      LOOP:  cpu time     22.3555: real time     22.5498

 eigenvalue-minimisations  : 32768
 total energy-change (2. order) :-0.1975730E-01  (-0.1833943E-03)
 number of electron      40.0000008 magnetization       0.0235917
 augmentation part       -7.3445903 magnetization       0.0261745

 Broyden mixing:
  rms(total) = 0.81792E-02    rms(broyden)= 0.81792E-02
  rms(prec ) = 0.11472E-01
  weight for this iteration     100.00

 eigenvalues of (default mixing * dielectric matrix)
  average eigenvalue GAMMA=   1.7541
  4.9469  2.7096  2.7096  1.5391  1.0966  0.8239  0.7196  0.6207  0.6207

 Free energy of the ion-electron system (eV)
  ---------------------------------------------------
  alpha Z        PSCENC =        56.78905763
  Ewald energy   TEWEN  =      -790.66993610
  -Hartree energ DENC   =      -628.46257045
  -exchange      EXHF   =         0.00000000
  -V(xc)+E(xc)   XCENC  =       -32.93417099
  PAW double counting   =      1910.82733084    -1798.39458610
  entropy T*S    EENTRO =        -0.00000000
  eigenvalues    EBANDS =      -199.16322266
  atomic energy  EATOM  =      1448.49460871
  Solvation  Ediel_sol  =         0.00000000
  ---------------------------------------------------
  free energy    TOTEN  =       -33.51348911 eV

  energy without entropy =      -33.51348911  energy(sigma->0) =      -33.51348911


--------------------------------------------------------------------------------------------------------




--------------------------------------- Iteration      1(  15)  ---------------------------------------


    POTLOK:  cpu time      0.1300: real time      0.1318
    SETDIJ:  cpu time      1.1158: real time      1.1204
     EDDAV:  cpu time     20.3173: real time     20.4892
       DOS:  cpu time      0.0019: real time      0.0019
    CHARGE:  cpu time      0.2045: real time      0.2055
    MIXING:  cpu time      0.0064: real time      0.0064
    --------------------------------------------
      LOOP:  cpu time     21.7758: real time     21.9552

 eigenvalue-minimisations  : 31632
 total energy-change (2. order) :-0.1447412E-01  (-0.1794982E-03)
 number of electron      40.0000008 magnetization       0.0053265
 augmentation part       -7.3446414 magnetization       0.0061505

 Broyden mixing:
  rms(total) = 0.44524E-02    rms(broyden)= 0.44524E-02
  rms(prec ) = 0.69114E-02
  weight for this iteration     100.00

 eigenvalues of (default mixing * dielectric matrix)
  average eigenvalue GAMMA=   1.7922
  4.9975  3.0535  3.0535  1.9438  1.0320  1.0320  0.8015  0.7601  0.6243  0.6243

 Free energy of the ion-electron system (eV)
  ---------------------------------------------------
  alpha Z        PSCENC =        56.78905763
  Ewald energy   TEWEN  =      -790.66993610
  -Hartree energ DENC   =      -627.93698465
  -exchange      EXHF   =         0.00000000
  -V(xc)+E(xc)   XCENC  =       -32.96409776
  PAW double counting   =      1911.90935175    -1799.48027062
  entropy T*S    EENTRO =        -0.00000000
  eigenvalues    EBANDS =      -199.66969220
  atomic energy  EATOM  =      1448.49460871
  Solvation  Ediel_sol  =         0.00000000
  ---------------------------------------------------
  free energy    TOTEN  =       -33.52796323 eV

  energy without entropy =      -33.52796323  energy(sigma->0) =      -33.52796323


--------------------------------------------------------------------------------------------------------




--------------------------------------- Iteration      1(  16)  ---------------------------------------


    POTLOK:  cpu time      0.1293: real time      0.1309
    SETDIJ:  cpu time      1.1161: real time      1.1184
     EDDAV:  cpu time     19.8181: real time     19.9633
       DOS:  cpu time      0.0019: real time      0.0019
    CHARGE:  cpu time      0.2057: real time      0.2064
    MIXING:  cpu time      0.0064: real time      0.0065
    --------------------------------------------
      LOOP:  cpu time     21.2775: real time     21.4273

 eigenvalue-minimisations  : 30656
 total energy-change (2. order) :-0.7846143E-04  (-0.7599362E-04)
 number of electron      40.0000008 magnetization       0.0016713
 augmentation part       -7.3467684 magnetization       0.0016855

 Broyden mixing:
  rms(total) = 0.22536E-02    rms(broyden)= 0.22536E-02
  rms(prec ) = 0.25255E-02
  weight for this iteration     100.00

 eigenvalues of (default mixing * dielectric matrix)
  average eigenvalue GAMMA=   1.8197
  5.1012  3.4096  3.4096  2.2421  1.2481  1.0118  0.8798  0.7343  0.7343  0.6228
  0.6228

 Free energy of the ion-electron system (eV)
  ---------------------------------------------------
  alpha Z        PSCENC =        56.78905763
  Ewald energy   TEWEN  =      -790.66993610
  -Hartree energ DENC   =      -627.14558537
  -exchange      EXHF   =         0.00000000
  -V(xc)+E(xc)   XCENC  =       -33.00467953
  PAW double counting   =      1909.65313038    -1797.22452676
  entropy T*S    EENTRO =        -0.00000000
  eigenvalues    EBANDS =      -200.42011065
  atomic energy  EATOM  =      1448.49460871
  Solvation  Ediel_sol  =         0.00000000
  ---------------------------------------------------
  free energy    TOTEN  =       -33.52804169 eV

  energy without entropy =      -33.52804169  energy(sigma->0) =      -33.52804169


--------------------------------------------------------------------------------------------------------




--------------------------------------- Iteration      1(  17)  ---------------------------------------


    POTLOK:  cpu time      0.1285: real time      0.1294
    SETDIJ:  cpu time      1.1136: real time      1.1156
     EDDAV:  cpu time     19.9910: real time     20.1465
       DOS:  cpu time      0.0019: real time      0.0019
    CHARGE:  cpu time      0.2055: real time      0.2067
    MIXING:  cpu time      0.0070: real time      0.0070
    --------------------------------------------
      LOOP:  cpu time     21.4475: real time     21.6071

 eigenvalue-minimisations  : 31008
 total energy-change (2. order) : 0.1163928E-03  (-0.1521088E-04)
 number of electron      40.0000008 magnetization       0.0009854
 augmentation part       -7.3464927 magnetization       0.0010227

 Broyden mixing:
  rms(total) = 0.91924E-03    rms(broyden)= 0.91924E-03
  rms(prec ) = 0.10415E-02
  weight for this iteration     100.00

 eigenvalues of (default mixing * dielectric matrix)
  average eigenvalue GAMMA=   1.7874
  5.1544  3.5292  3.5292  2.3195  1.4059  1.0300  0.9264  0.8236  0.7911  0.6970
  0.6213  0.6213

 Free energy of the ion-electron system (eV)
  ---------------------------------------------------
  alpha Z        PSCENC =        56.78905763
  Ewald energy   TEWEN  =      -790.66993610
  -Hartree energ DENC   =      -627.23841117
  -exchange      EXHF   =         0.00000000
  -V(xc)+E(xc)   XCENC  =       -33.00030886
  PAW double counting   =      1910.36392146    -1797.93567057
  entropy T*S    EENTRO =        -0.00000000
  eigenvalues    EBANDS =      -200.33118639
  atomic energy  EATOM  =      1448.49460871
  Solvation  Ediel_sol  =         0.00000000
  ---------------------------------------------------
  free energy    TOTEN  =       -33.52792530 eV

  energy without entropy =      -33.52792530  energy(sigma->0) =      -33.52792530


--------------------------------------------------------------------------------------------------------




--------------------------------------- Iteration      1(  18)  ---------------------------------------


    POTLOK:  cpu time      0.1289: real time      0.1295
    SETDIJ:  cpu time      1.1137: real time      1.1160
     EDDAV:  cpu time     19.8090: real time     19.9842
       DOS:  cpu time      0.0019: real time      0.0019
    CHARGE:  cpu time      0.2054: real time      0.2075
    MIXING:  cpu time      0.0066: real time      0.0067
    --------------------------------------------
      LOOP:  cpu time     21.2655: real time     21.4459

 eigenvalue-minimisations  : 30688
 total energy-change (2. order) : 0.1104003E-04  (-0.6230204E-05)
 number of electron      40.0000008 magnetization       0.0003163
 augmentation part       -7.3464023 magnetization       0.0003646

 Broyden mixing:
  rms(total) = 0.43194E-03    rms(broyden)= 0.43193E-03
  rms(prec ) = 0.51385E-03
  weight for this iteration     100.00

 eigenvalues of (default mixing * dielectric matrix)
  average eigenvalue GAMMA=   1.7899
  5.1792  3.6599  3.6599  2.4594  1.8240  1.1709  0.9700  0.9700  0.7357  0.7357
  0.6660  0.6187  0.6187

 Free energy of the ion-electron system (eV)
  ---------------------------------------------------
  alpha Z        PSCENC =        56.78905763
  Ewald energy   TEWEN  =      -790.66993610
  -Hartree energ DENC   =      -627.25152274
  -exchange      EXHF   =         0.00000000
  -V(xc)+E(xc)   XCENC  =       -32.99965304
  PAW double counting   =      1910.42624544    -1797.99796944
  entropy T*S    EENTRO =        -0.00000000
  eigenvalues    EBANDS =      -200.31874472
  atomic energy  EATOM  =      1448.49460871
  Solvation  Ediel_sol  =         0.00000000
  ---------------------------------------------------
  free energy    TOTEN  =       -33.52791426 eV

  energy without entropy =      -33.52791426  energy(sigma->0) =      -33.52791426


--------------------------------------------------------------------------------------------------------




--------------------------------------- Iteration      1(  19)  ---------------------------------------


    POTLOK:  cpu time      0.1286: real time      0.1303
    SETDIJ:  cpu time      1.1209: real time      1.1243
     EDDAV:  cpu time     19.7186: real time     19.8947
       DOS:  cpu time      0.0019: real time      0.0019
    CHARGE:  cpu time      0.2062: real time      0.2075
    MIXING:  cpu time      0.0068: real time      0.0069
    --------------------------------------------
      LOOP:  cpu time     21.1830: real time     21.3656

 eigenvalue-minimisations  : 30592
 total energy-change (2. order) : 0.1443960E-04  (-0.3082164E-05)
 number of electron      40.0000008 magnetization      -0.0000325
 augmentation part       -7.3464611 magnetization      -0.0000185

 Broyden mixing:
  rms(total) = 0.14549E-03    rms(broyden)= 0.14549E-03
  rms(prec ) = 0.17238E-03
  weight for this iteration     100.00

 eigenvalues of (default mixing * dielectric matrix)
  average eigenvalue GAMMA=   1.7683
  5.2450  3.7158  3.7158  2.5841  1.9980  1.3070  1.0087  0.9022  0.9022  0.7744
  0.7226  0.6390  0.6206  0.6206

 Free energy of the ion-electron system (eV)
  ---------------------------------------------------
  alpha Z        PSCENC =        56.78905763
  Ewald energy   TEWEN  =      -790.66993610
  -Hartree energ DENC   =      -627.22980408
  -exchange      EXHF   =         0.00000000
  -V(xc)+E(xc)   XCENC  =       -33.00065891
  PAW double counting   =      1910.41601807    -1797.98773007
  entropy T*S    EENTRO =        -0.00000000
  eigenvalues    EBANDS =      -200.33945507
  atomic energy  EATOM  =      1448.49460871
  Solvation  Ediel_sol  =         0.00000000
  ---------------------------------------------------
  free energy    TOTEN  =       -33.52789982 eV

  energy without entropy =      -33.52789982  energy(sigma->0) =      -33.52789982


--------------------------------------------------------------------------------------------------------




--------------------------------------- Iteration      1(  20)  ---------------------------------------


    POTLOK:  cpu time      0.1291: real time      0.1299
    SETDIJ:  cpu time      1.1078: real time      1.1106
     EDDAV:  cpu time     19.9625: real time     20.1505
       DOS:  cpu time      0.0019: real time      0.0019
    CHARGE:  cpu time      0.2053: real time      0.2063
    MIXING:  cpu time      0.0073: real time      0.0074
    --------------------------------------------
      LOOP:  cpu time     21.4139: real time     21.6067

 eigenvalue-minimisations  : 30800
 total energy-change (2. order) : 0.2627066E-05  (-0.5599982E-06)
 number of electron      40.0000008 magnetization       0.0000065
 augmentation part       -7.3464937 magnetization       0.0000134

 Broyden mixing:
  rms(total) = 0.65621E-04    rms(broyden)= 0.65619E-04
  rms(prec ) = 0.78316E-04
  weight for this iteration     100.00

 eigenvalues of (default mixing * dielectric matrix)
  average eigenvalue GAMMA=   1.7251
  5.2450  3.7414  3.7414  2.5541  2.0606  1.3620  1.1184  0.9576  0.9576  0.8124
  0.7234  0.7234  0.6470  0.6162  0.6162

 Free energy of the ion-electron system (eV)
  ---------------------------------------------------
  alpha Z        PSCENC =        56.78905763
  Ewald energy   TEWEN  =      -790.66993610
  -Hartree energ DENC   =      -627.22266843
  -exchange      EXHF   =         0.00000000
  -V(xc)+E(xc)   XCENC  =       -33.00092854
  PAW double counting   =      1910.44917803    -1798.02090378
  entropy T*S    EENTRO =        -0.00000000
  eigenvalues    EBANDS =      -200.34630471
  atomic energy  EATOM  =      1448.49460871
  Solvation  Ediel_sol  =         0.00000000
  ---------------------------------------------------
  free energy    TOTEN  =       -33.52789720 eV

  energy without entropy =      -33.52789720  energy(sigma->0) =      -33.52789720


--------------------------------------------------------------------------------------------------------




--------------------------------------- Iteration      1(  21)  ---------------------------------------


    POTLOK:  cpu time      0.1302: real time      0.1309
    SETDIJ:  cpu time      1.1065: real time      1.1091
     EDDAV:  cpu time     19.9720: real time     20.1463
       DOS:  cpu time      0.0019: real time      0.0019
    --------------------------------------------
      LOOP:  cpu time     21.2105: real time     21.3882

 eigenvalue-minimisations  : 31008
 total energy-change (2. order) :-0.1112609E-06  (-0.1764801E-06)
 number of electron      40.0000008 magnetization       0.0000065
 augmentation part       -7.3464937 magnetization       0.0000134

 Free energy of the ion-electron system (eV)
  ---------------------------------------------------
  alpha Z        PSCENC =        56.78905763
  Ewald energy   TEWEN  =      -790.66993610
  -Hartree energ DENC   =      -627.22118074
  -exchange      EXHF   =         0.00000000
  -V(xc)+E(xc)   XCENC  =       -33.00096347
  PAW double counting   =      1910.47762628    -1798.04938555
  entropy T*S    EENTRO =        -0.00000000
  eigenvalues    EBANDS =      -200.34772406
  atomic energy  EATOM  =      1448.49460871
  Solvation  Ediel_sol  =         0.00000000
  ---------------------------------------------------
  free energy    TOTEN  =       -33.52789731 eV

  energy without entropy =      -33.52789731  energy(sigma->0) =      -33.52789731


--------------------------------------------------------------------------------------------------------




 average (electrostatic) potential at core
  the test charge radii are     1.1631  1.0808
  (the norm of the test charge is              1.0000)
       1 -36.1993       2 -36.1993       3 -36.1993       4 -36.1993       5 -57.6575
       6 -57.6575       7 -57.6575       8 -57.6575
 
 
 
 E-fermi :   0.5740     XC(G=0):  -6.9136     alpha+bet : -5.6575

 Fermi energy:         0.5740488627

 spin component 1

 k-point     1 :       0.0000    0.0000    0.0000
  band No.  band energies     occupation 
      1     -13.4890      1.00000
      2     -13.4883      1.00000
      3     -12.1209      1.00000
      4     -12.1194      1.00000
      5      -7.1308      1.00000
      6      -7.1245      1.00000
      7      -5.0258      1.00000
      8      -5.0206      1.00000
      9      -3.6778      1.00000
     10      -3.6260      1.00000
     11      -2.8556      1.00000
     12      -2.8403      1.00000
     13      -2.3479      1.00000
     14      -2.3468      1.00000
     15      -1.1610      1.00000
     16      -1.1195      1.00000
     17      -1.0335      1.00000
     18      -1.0314      1.00000
     19       0.3238      1.00000
     20       0.3353      1.00000
     21       1.3911      0.00000
     22       1.9261      0.00000
     23       3.1024      0.00000
     24       3.1169      0.00000
     25       3.4988      0.00000
     26       3.5375      0.00000
     27       4.3422      0.00000
     28       4.4091      0.00000
     29       4.4154      0.00000
     30       5.5925      0.00000
     31       5.7783      0.00000
     32       5.9591      0.00000
     33       5.9704      0.00000
     34       6.1912      0.00000
     35       7.1700      0.00000
     36       7.7478      0.00000
     37       7.8442      0.00000
     38       7.8899      0.00000
     39       8.2300      0.00000
     40       8.6404      0.00000
     41       8.8030      0.00000
     42       9.0448      0.00000
     43       9.0950      0.00000
     44       9.1669      0.00000
     45       9.2950      0.00000
     46       9.8177      0.00000
     47       9.8713      0.00000
     48      10.5119      0.00000
     49      10.5501      0.00000
     50      10.8867      0.00000
     51      10.9858      0.00000
     52      11.3077      0.00000
     53      11.5604      0.00000
     54      11.6138      0.00000
     55      11.6993      0.00000
     56      11.8502      0.00000
     57      12.5086      0.00000
     58      12.6290      0.00000
     59      12.8128      0.00000
     60      13.5022      0.00000
[...]
     50      11.3457      0.00000
     51      11.3457      0.00000
     52      11.3457      0.00000
     53      12.3728      0.00000
     54      12.3728      0.00000
     55      12.3728      0.00000
     56      12.3728      0.00000
     57      14.4481      0.00000
     58      14.4481      0.00000
     59      14.4482      0.00000
     60      14.4482      0.00000
     61      14.5095      0.00000
     62      14.5095      0.00000
     63      14.5095      0.00000
     64      14.5095      0.00000
     65      14.9041      0.00000
     66      14.9041      0.00000
     67      14.9041      0.00000
     68      14.9041      0.00000
     69      15.5931      0.00000
     70      15.5931      0.00000
     71      15.5931      0.00000
     72      15.5931      0.00000
     73      17.0342      0.00000
     74      17.0342      0.00000
     75      17.0342      0.00000
     76      17.0342      0.00000
     77      17.7305      0.00000
     78      17.7305      0.00000
     79      17.7306      0.00000
     80      17.7306      0.00000
     81      18.7894      0.00000
     82      18.7894      0.00000
     83      18.7894      0.00000
     84      18.7894      0.00000
     85      18.9448      0.00000
     86      18.9448      0.00000
     87      18.9448      0.00000
     88      18.9448      0.00000
     89      20.3648      0.00000
     90      20.3648      0.00000
     91      20.3648      0.00000
     92      20.3648      0.00000
     93      20.7713      0.00000
     94      20.7713      0.00000
     95      20.7713      0.00000
     96      20.7713      0.00000
     97      21.3751      0.00000
     98      21.3751      0.00000
     99      21.3751      0.00000
    100      21.3751      0.00000
    101      22.2087      0.00000
    102      22.2087      0.00000
    103      22.2087      0.00000
    104      22.2087      0.00000
    105      23.4012      0.00000
    106      23.4012      0.00000
    107      23.4012      0.00000
    108      23.4012      0.00000
    109      23.9729      0.00000
    110      23.9729      0.00000
    111      23.9729      0.00000
    112      23.9729      0.00000
    113      24.8268      0.00000
    114      24.8268      0.00000
    115      24.8268      0.00000
    116      24.8268      0.00000
    117      25.2308      0.00000
    118      25.2308      0.00000
    119      25.2308      0.00000
    120      25.2308      0.00000
    121      26.4414      0.00000
    122      26.4414      0.00000
    123      26.4414      0.00000
    124      26.4414      0.00000
    125      27.0024      0.00000
    126      27.0024      0.00000
    127      27.0024      0.00000
    128      27.0024      0.00000
    129      27.1954      0.00000
    130      27.1954      0.00000
    131      27.1954      0.00000
    132      27.1954      0.00000
    133      27.7956      0.00000
    134      27.7956      0.00000
    135      27.7956      0.00000
    136      27.7956      0.00000
    137      27.9543      0.00000
    138      27.9543      0.00000
    139      27.9543      0.00000
    140      27.9543      0.00000
    141      28.3390      0.00000
    142      28.3390      0.00000
    143      28.3390      0.00000
    144      28.3390      0.00000
    145      29.2215      0.00000
    146      29.2215      0.00000
    147      29.2215      0.00000
    148      29.2215      0.00000
    149      29.7738      0.00000
    150      29.7738      0.00000
    151      29.7738      0.00000
    152      29.7738      0.00000
    153      30.8471      0.00000
    154      30.8471      0.00000
    155      30.8471      0.00000
    156      30.8471      0.00000
    157      31.4392      0.00000
    158      31.4392      0.00000
    159      31.4392      0.00000
    160      31.4392      0.00000
    161      31.5906      0.00000
    162      31.5906      0.00000
    163      31.5906      0.00000
    164      31.5906      0.00000
    165      32.1543      0.00000
    166      32.1543      0.00000
    167      32.1543      0.00000
    168      32.1543      0.00000
    169      33.4062      0.00000
    170      33.4062      0.00000
    171      33.4062      0.00000
    172      33.4062      0.00000
    173      34.6438      0.00000
    174      34.6438      0.00000
    175      34.6438      0.00000
    176      34.6438      0.00000
    177      35.0662      0.00000
    178      35.0662      0.00000
    179      35.0662      0.00000
    180      35.0662      0.00000
    181      35.5003      0.00000
    182      35.5003      0.00000
    183      35.5003      0.00000
    184      35.5003      0.00000
    185      36.4853      0.00000
    186      36.4853      0.00000
    187      36.4853      0.00000
    188      36.4853      0.00000
    189      36.7104      0.00000
    190      36.7104      0.00000
    191      36.7104      0.00000
    192      36.7104      0.00000
    193      37.2594      0.00000
    194      37.2594      0.00000
    195      37.2594      0.00000
    196      37.2594      0.00000
    197      37.5291      0.00000
    198      37.5291      0.00000
    199      37.5291      0.00000
    200      37.5291      0.00000
    201      38.6150      0.00000
    202      38.6150      0.00000
    203      38.6150      0.00000
    204      38.6150      0.00000
    205      38.7328      0.00000
    206      38.7328      0.00000
    207      38.7329      0.00000
    208      38.7329      0.00000
    209      39.4483      0.00000
    210      39.4483      0.00000
    211      39.4483      0.00000
    212      39.4483      0.00000
    213      39.9387      0.00000
    214      39.9387      0.00000
    215      39.9387      0.00000
    216      39.9387      0.00000
    217      40.6672      0.00000
    218      40.6672      0.00000
    219      40.6672      0.00000
    220      40.6672      0.00000
    221      41.1464      0.00000
    222      41.1464      0.00000
    223      41.1464      0.00000
    224      41.1464      0.00000


--------------------------------------------------------------------------------------------------------


 soft charge-density along one line, spin component            1
         0         1         2         3         4         5         6         7         8         9
 total charge-density along one line
 
 soft charge-density along one line, spin component            2
         0         1         2         3         4         5         6         7         8         9
 total charge-density along one line
 
 pseudopotential strength for first ion, spin component:            1
 15.343  19.168   0.042   0.053  -0.000   0.076   0.095  -0.000
 19.168  23.961   0.053   0.066  -0.000   0.096   0.119  -0.000
  0.042   0.053   3.362  -0.003  -0.000   5.735  -0.005  -0.000
  0.053   0.066  -0.003   3.360  -0.000  -0.005   5.731  -0.000
 -0.000  -0.000  -0.000  -0.000   3.363  -0.000  -0.000   5.737
  0.076   0.096   5.735  -0.005  -0.000   9.843  -0.009  -0.000
  0.095   0.119  -0.005   5.731  -0.000  -0.009   9.836  -0.000
 -0.000  -0.000  -0.000  -0.000   5.737  -0.000  -0.000   9.847
 -0.000  -0.000  -0.000  -0.000   0.007  -0.000  -0.000   0.013
 -0.007  -0.008   0.013   0.013  -0.000   0.024   0.024  -0.000
 -0.003  -0.004  -0.004   0.013   0.000  -0.007   0.025   0.000
 -0.000  -0.000  -0.000  -0.000   0.013  -0.000  -0.000   0.024
  0.001   0.002  -0.013   0.000  -0.000  -0.023   0.000  -0.000
 pseudopotential strength for first ion, spin component:            2
 15.343  19.168   0.042   0.053  -0.000   0.076   0.095  -0.000
 19.168  23.961   0.053   0.066  -0.000   0.096   0.119  -0.000
  0.042   0.053   3.362  -0.003  -0.000   5.735  -0.005  -0.000
  0.053   0.066  -0.003   3.360  -0.000  -0.005   5.731  -0.000
 -0.000  -0.000  -0.000  -0.000   3.363  -0.000  -0.000   5.737
  0.076   0.096   5.735  -0.005  -0.000   9.843  -0.009  -0.000
  0.095   0.119  -0.005   5.731  -0.000  -0.009   9.836  -0.000
 -0.000  -0.000  -0.000  -0.000   5.737  -0.000  -0.000   9.847
 -0.000  -0.000  -0.000  -0.000   0.007  -0.000  -0.000   0.013
 -0.007  -0.008   0.013   0.013  -0.000   0.024   0.024  -0.000
 -0.003  -0.004  -0.004   0.013   0.000  -0.007   0.025   0.000
 -0.000  -0.000  -0.000  -0.000   0.013  -0.000  -0.000   0.024
  0.001   0.002  -0.013   0.000  -0.000  -0.023   0.000  -0.000
 total augmentation occupancy for first ion, spin component:            1
  2.687  -0.651   0.352   0.401   0.000  -0.066  -0.073   0.000   0.000  -0.009  -0.014   0.000   0.009
 -0.651   0.614  -0.445  -0.550   0.000   0.071   0.087   0.000  -0.000   0.002   0.017   0.000  -0.005
  0.352  -0.445   1.226   0.076   0.000  -0.198   0.000   0.000  -0.000   0.051  -0.099   0.000   0.001
  0.401  -0.550   0.076   1.275   0.000   0.000  -0.199   0.000  -0.000  -0.016   0.111   0.000  -0.003
 -0.000   0.000   0.000  -0.000   1.240  -0.000  -0.000  -0.211   0.148   0.000  -0.000   0.045  -0.000
 -0.066   0.071  -0.198   0.000  -0.000   0.036  -0.002  -0.000   0.000  -0.009   0.017  -0.000   0.000
 -0.073   0.087   0.000  -0.199   0.000  -0.002   0.035  -0.000   0.000   0.003  -0.020   0.000   0.001
 -0.000   0.000   0.000   0.000  -0.211   0.000   0.000   0.040  -0.026  -0.000  -0.000  -0.008  -0.000
  0.000  -0.000   0.000  -0.000   0.148   0.000   0.000  -0.026   0.030  -0.000   0.000   0.003  -0.000
 -0.009   0.002   0.051  -0.016  -0.000  -0.009   0.003   0.000   0.000   0.010  -0.007   0.000   0.001
 -0.014   0.017  -0.099   0.111   0.000   0.017  -0.020   0.000   0.000  -0.007   0.028  -0.000  -0.002
 -0.000  -0.000   0.000   0.000   0.045   0.000   0.000  -0.008   0.003   0.000   0.000   0.009   0.000
  0.009  -0.005   0.001  -0.003   0.000   0.000   0.001   0.000   0.000   0.001  -0.002  -0.000   0.008
 total augmentation occupancy for first ion, spin component:            2
  0.000  -0.000   0.000  -0.000   0.000  -0.000   0.000   0.000   0.000   0.000  -0.000  -0.000   0.000
 -0.000  -0.000  -0.000   0.000   0.000   0.000   0.000   0.000  -0.000  -0.000   0.000   0.000   0.000
  0.000  -0.000   0.000   0.000   0.000  -0.000  -0.000   0.000   0.000   0.000  -0.000  -0.000  -0.000
 -0.000   0.000   0.000   0.000   0.000  -0.000  -0.000  -0.000   0.000   0.000  -0.000   0.000  -0.000
  0.000   0.000   0.000   0.000   0.000   0.000   0.000  -0.000   0.000  -0.000  -0.000   0.000   0.000
 -0.000   0.000  -0.000  -0.000   0.000   0.000   0.000   0.000   0.000  -0.000   0.000   0.000   0.000
  0.000   0.000  -0.000  -0.000   0.000   0.000   0.000   0.000   0.000  -0.000  -0.000   0.000  -0.000
  0.000   0.000   0.000  -0.000  -0.000   0.000   0.000   0.000  -0.000   0.000  -0.000  -0.000  -0.000
  0.000  -0.000   0.000   0.000   0.000   0.000   0.000  -0.000   0.000   0.000  -0.000   0.000   0.000
  0.000  -0.000   0.000   0.000  -0.000  -0.000  -0.000   0.000   0.000  -0.000  -0.000   0.000  -0.000
 -0.000   0.000  -0.000  -0.000  -0.000   0.000  -0.000  -0.000  -0.000  -0.000   0.000  -0.000   0.000
 -0.000   0.000  -0.000   0.000   0.000   0.000   0.000  -0.000   0.000   0.000  -0.000  -0.000   0.000
  0.000   0.000  -0.000  -0.000   0.000   0.000  -0.000  -0.000   0.000  -0.000   0.000   0.000  -0.000


------------------------ aborting loop because EDIFF is reached ----------------------------------------





 total charge

# of ion       s       p       d       tot
------------------------------------------
    1        1.318   0.790   0.051   2.158
    2        1.318   0.790   0.051   2.158
    3        1.318   0.790   0.051   2.158
    4        1.318   0.790   0.051   2.158
    5        1.472   2.313   0.029   3.813
    6        1.472   2.313   0.029   3.813
    7        1.472   2.313   0.029   3.813
    8        1.472   2.313   0.029   3.813
--------------------------------------------------
tot         11.157  12.409   0.319  23.885



 magnetization (x)

# of ion       s       p       d       tot
------------------------------------------
    1       -0.000   0.000   0.000   0.000
    2       -0.000   0.000   0.000   0.000
    3       -0.000   0.000   0.000   0.000
    4       -0.000   0.000   0.000   0.000
    5       -0.000   0.000   0.000  -0.000
    6       -0.000   0.000   0.000  -0.000
    7       -0.000   0.000   0.000  -0.000
    8       -0.000   0.000   0.000  -0.000
--------------------------------------------------
tot         -0.000   0.000   0.000   0.000
 
    CHARGE:  cpu time      0.2025: real time      0.2037
    FORLOC:  cpu time      0.0053: real time      0.0053
    FORNL :  cpu time      2.5206: real time      2.5323
    STRESS:  cpu time      5.7338: real time      5.7792
    FORCOR:  cpu time      0.1259: real time      0.1263
    FORHAR:  cpu time      0.0141: real time      0.0141
    MIXING:  cpu time      0.0116: real time      0.0116
    OFIELD:  cpu time      0.0000: real time      0.0000

  FORCE on cell =-STRESS in cart. coord.  units (eV):
  Direction    XX          YY          ZZ          XY          YZ          ZX
  --------------------------------------------------------------------------------------
  Alpha Z    56.78906    56.78906    56.78906
  Ewald     186.96861   130.87300 -1108.51227     0.00000     0.00000    -0.00000
  Hartree   551.33694   528.16962  -452.28960    -0.00000    -0.00000    -0.00000
  E(xc)    -140.50838  -140.54356  -141.78108    -0.00000    -0.00000     0.00000
  Local   -1271.55276 -1198.92565  1016.49894     0.00000    -0.00000    -0.00000
  n-local   240.23874   239.62466   241.73912     0.86165     0.00000    -0.00000
  augment   -11.30575   -11.75017   -12.16342     0.00000     0.00000     0.00000
  Kinetic   388.84558   396.46604   398.01800     6.68731    -0.00000    -0.00000
  Fock        0.00000     0.00000     0.00000     0.00000     0.00000     0.00000
  -------------------------------------------------------------------------------------
  Total       0.81204     0.70298    -1.70124     0.00000     0.00000     0.00000
  in kB       4.36040     3.77480    -9.13511     0.00000     0.00000     0.00000
  external pressure =       -0.33 kB  Pullay stress =        0.00 kB


 VOLUME and BASIS-vectors are now :
 -----------------------------------------------------------------------------
  energy-cutoff  :      520.00
  volume of cell :      298.38
      direct lattice vectors                 reciprocal lattice vectors
     3.858100176  0.000000000  0.000000000     0.259194929  0.000000000  0.000000000
     0.000000000  4.526575088  0.000000000     0.000000000  0.220917577  0.000000000
     0.000000000  0.000000000 17.085176468     0.000000000  0.000000000  0.058530270

  length of vectors
     3.858100176  4.526575088 17.085176468     0.259194929  0.220917577  0.058530270


 FORCES acting on ions
    electron-ion (+dipol)            ewald-force                    non-local-force                 convergence-correction
 -----------------------------------------------------------------------------------------------
   0.384E-09 0.159E+02 0.962E+02   0.206E-08 -.185E+02 -.996E+02   -.694E-16 0.254E+01 0.364E+01   0.686E-13 -.352E-04 0.297E-03
   -.408E-08 -.159E+02 -.962E+02   -.206E-08 0.185E+02 0.996E+02   -.139E-16 -.254E+01 -.364E+01   -.748E-13 0.352E-04 -.297E-03
   -.408E-08 0.159E+02 -.962E+02   -.206E-08 -.185E+02 0.996E+02   0.139E-16 0.254E+01 -.364E+01   -.738E-13 -.352E-04 -.297E-03
   0.384E-09 -.159E+02 0.962E+02   0.206E-08 0.185E+02 -.996E+02   -.139E-16 -.254E+01 0.364E+01   0.687E-13 0.352E-04 0.297E-03
   0.417E-09 0.169E+02 -.114E+03   0.238E-08 -.185E+02 0.116E+03   0.416E-16 0.149E+01 -.185E+01   0.756E-13 0.147E-04 -.517E-03
   -.197E-07 -.169E+02 0.114E+03   -.238E-08 0.185E+02 -.116E+03   -.139E-16 -.149E+01 0.185E+01   -.304E-12 -.147E-04 0.517E-03
   -.197E-07 0.169E+02 0.114E+03   -.238E-08 -.185E+02 -.116E+03   0.000E+00 0.149E+01 0.185E+01   -.305E-12 0.147E-04 0.517E-03
   0.417E-09 -.169E+02 -.114E+03   0.238E-08 0.185E+02 0.116E+03   0.278E-16 -.149E+01 -.185E+01   0.761E-13 -.147E-04 -.517E-03
 -----------------------------------------------------------------------------------------------
   -.461E-07 0.803E-04 -.160E-03   0.991E-15 -.355E-14 0.000E+00   -.278E-16 0.000E+00 0.444E-15   -.468E-12 0.154E-08 0.204E-06
 
 
 POSITION                                       TOTAL-FORCE (eV/Angst)
 -----------------------------------------------------------------------------------
      0.96453      0.52346      1.36947        -0.000000     -0.081468      0.267119
      2.89358      4.00311     12.71571         0.000000      0.081468     -0.267119
      2.89358      2.78675      4.17312         0.000000     -0.081468     -0.267119
      0.96453      1.73983      9.91205        -0.000000      0.081468      0.267119
      0.96453      2.28569     12.45155        -0.000000     -0.081537     -0.021666
      2.89358      2.24089      1.63362         0.000000      0.081537      0.021666
      2.89358      0.02240     10.17621         0.000000     -0.081537      0.021666
      0.96453      4.50417      3.90897        -0.000000      0.081537     -0.021666
 -----------------------------------------------------------------------------------
    total drift:                               -0.000000      0.000080     -0.000160


--------------------------------------------------------------------------------------------------------



  FREE ENERGIE OF THE ION-ELECTRON SYSTEM (eV)
  ---------------------------------------------------
  free  energy   TOTEN  =       -33.52789731 eV

  energy  without entropy=      -33.52789731  energy(sigma->0) =      -33.52789731
 


--------------------------------------------------------------------------------------------------------


    POTLOK:  cpu time      1.2513: real time      1.2543


--------------------------------------------------------------------------------------------------------


 writing wavefunctions
     LOOP+:  cpu time    468.6699: real time    480.1791
    4ORBIT:  cpu time      0.0000: real time      0.0000



 total charge

# of ion       s       p       d       tot
------------------------------------------
    1        1.318   0.790   0.051   2.158
    2        1.318   0.790   0.051   2.158
    3        1.318   0.790   0.051   2.158
    4        1.318   0.790   0.051   2.158
    5        1.472   2.313   0.029   3.813
    6        1.472   2.313   0.029   3.813
    7        1.472   2.313   0.029   3.813
    8        1.472   2.313   0.029   3.813
--------------------------------------------------
tot         11.157  12.409   0.319  23.885



 magnetization (x)

# of ion       s       p       d       tot
------------------------------------------
    1       -0.000   0.000   0.000   0.000
    2       -0.000   0.000   0.000   0.000
    3       -0.000   0.000   0.000   0.000
    4       -0.000   0.000   0.000   0.000
    5       -0.000   0.000   0.000  -0.000
    6       -0.000   0.000   0.000  -0.000
    7       -0.000   0.000   0.000  -0.000
    8       -0.000   0.000   0.000  -0.000
--------------------------------------------------
tot         -0.000   0.000   0.000   0.000
 

 total amount of memory used by VASP MPI-rank0   222764. kBytes
=======================================================================

   base      :      30000. kBytes
   nonl-proj :      54923. kBytes
   fftplans  :       3015. kBytes
   grid      :      17028. kBytes
   one-center:        129. kBytes
   wavefun   :     117669. kBytes
 
  
  
 General timing and accounting informations for this job:
 ========================================================
  
                  Total CPU time used (sec):      479.543
                            User time (sec):      477.560
                          System time (sec):        1.983
                         Elapsed time (sec):      491.784
  
                   Maximum memory used (kb):      383760.
                   Average memory used (kb):          N/A
  
                          Minor page faults:       265093
                          Major page faults:           60
                 Voluntary context switches:        96138
