 running  160 mpi-ranks, with    1 threads/rank, on   10 nodes
 distrk:  each k-point on   80 cores,    2 groups
 distr:  one band on    5 cores,   16 groups
 vasp.6.4.2 20Jul23 (build Oct 12 2023 10:31:02) complex                         
 POSCAR found type information on POSCAR GeSe
 POSCAR found :  2 types and       8 ions
 Reading from existing POTCAR
 scaLAPACK will be used
 Reading from existing POTCAR
 LDA part: xc-table for Pade appr. of Perdew
 POSCAR, INCAR and KPOINTS ok, starting setup
 FFT: planning ... GRIDC
 FFT: planning ... GRID_SOFT
 FFT: planning ... GRID
 WAVECAR not read
 entering main loop
       N       E                     dE             d eps       ncg     rms          rms(c)
DAV:   1     0.132574769674E+03    0.13257E+03   -0.12876E+04  2560   0.772E+02
DAV:   2    -0.251040329869E+02   -0.15768E+03   -0.15299E+03  3696   0.139E+02
DAV:   3    -0.340617190368E+02   -0.89577E+01   -0.89372E+01  3248   0.384E+01
DAV:   4    -0.341251985109E+02   -0.63479E-01   -0.63471E-01  3264   0.371E+00
DAV:   5    -0.341256323917E+02   -0.43388E-03   -0.43387E-03  3200   0.299E-01    0.646E+00
DAV:   6    -0.337348528657E+02    0.39078E+00   -0.82434E-01  3104   0.303E+00    0.407E+00
DAV:   7    -0.337254424922E+02    0.94104E-02   -0.22854E-01  2864   0.170E+00    0.131E+00
DAV:   8    -0.337242279004E+02    0.12146E-02   -0.22178E-02  3040   0.563E-01    0.184E-01
DAV:   9    -0.337246074949E+02   -0.37959E-03   -0.35480E-03  3312   0.261E-01    0.699E-02
DAV:  10    -0.337247328334E+02   -0.12534E-03   -0.30266E-04  3152   0.752E-02    0.255E-02
DAV:  11    -0.337247655861E+02   -0.32753E-04   -0.41930E-05  3088   0.295E-02    0.123E-02
DAV:  12    -0.337247665060E+02   -0.91996E-06   -0.60260E-06  3344   0.104E-02
   1 F= -.33724767E+02 E0= -.33724767E+02  d E =-.972380E-13
