 running  128 mpi-ranks, with    1 threads/rank, on    2 nodes
 distrk:  each k-point on   64 cores,    2 groups
 distr:  one band on    4 cores,   16 groups
 vasp.6.4.2 20Jul23 (build Oct 12 2023 10:31:02) complex                         
 POSCAR found type information on POSCAR GeSe
 POSCAR found :  2 types and       8 ions
 Reading from existing POTCAR
 scaLAPACK will be used
 Reading from existing POTCAR
 LDA part: xc-table for Pade appr. of Perdew
 POSCAR, INCAR and KPOINTS ok, starting setup
 FFT: planning ... GRIDC
 FFT: planning ... GRID_SOFT
 FFT: planning ... GRID
 WAVECAR not read
 entering main loop
       N       E                     dE             d eps       ncg     rms          rms(c)
DAV:   1     0.132097493584E+03    0.13210E+03   -0.12663E+04  2560   0.765E+02
DAV:   2    -0.247348221703E+02   -0.15683E+03   -0.15232E+03  3760   0.137E+02
DAV:   3    -0.339666280117E+02   -0.92318E+01   -0.92108E+01  3152   0.386E+01
DAV:   4    -0.340341740970E+02   -0.67546E-01   -0.67539E-01  3264   0.381E+00
DAV:   5    -0.340345990860E+02   -0.42499E-03   -0.42499E-03  3152   0.295E-01    0.609E+00
DAV:   6    -0.335004471036E+02    0.53415E+00   -0.11732E+00  2960   0.353E+00    0.377E+00
DAV:   7    -0.334913907662E+02    0.90563E-02   -0.26625E-01  3072   0.181E+00    0.155E+00
DAV:   8    -0.334910115326E+02    0.37923E-03   -0.26776E-02  2864   0.634E-01    0.179E-01
DAV:   9    -0.334909746697E+02    0.36863E-04   -0.47203E-03  3072   0.285E-01    0.720E-02
DAV:  10    -0.334911200371E+02   -0.14537E-03   -0.51269E-04  2992   0.993E-02    0.241E-02
DAV:  11    -0.334911434236E+02   -0.23387E-04   -0.44071E-05  2816   0.302E-02    0.138E-02
DAV:  12    -0.334911435302E+02   -0.10656E-06   -0.10067E-05  3152   0.132E-02    0.362E-03
DAV:  13    -0.334911443453E+02   -0.81508E-06   -0.11710E-06  1904   0.412E-03
   1 F= -.33491144E+02 E0= -.33491144E+02  d E =-.874123E-11
