 vasp.6.4.2 20Jul23 (build Oct 12 2023 10:31:02) complex                         
 executed on              LinuxNV date 2025.05.27  21:49:07
 running  128 mpi-ranks, with    1 threads/rank, on    2 nodes
 distrk:  each k-point on   64 cores,    2 groups
 distr:  one band on NCORE=   4 cores,   16 groups


--------------------------------------------------------------------------------------------------------


 INCAR:
   ENCUT = 360.000000
   SIGMA = 0.050000
   EDIFF = 1.00e-06
   ALGO = Normal
   GGA = PE
   PREC = Normal
   SYSTEM = ./
   ICHARG = 2
   ISMEAR = 0
   ISPIN = 1
   ISTART = 0
   ISYM = 0
   KPAR = 2
   LMAXMIX = 4
   NELM = 100
   NPAR = 16
   LASPH = .TRUE.
   LCHARG = .FALSE.
   LWAVE = .FALSE.

 POTCAR:    PAW_PBE Ge 05Jan2001                  
 POTCAR:    PAW_PBE Se 06Sep2000                  
 POTCAR:    PAW_PBE Ge 05Jan2001                  
   VRHFIN =Ge: s2p2                                                                                 
   LEXCH  = PE                                                                                      
   EATOM  =   104.9960 eV,    7.7170 Ry                                                             
                                                                                                    
   TITEL  = PAW_PBE Ge 05Jan2001                                                                    
   LULTRA =        F    use ultrasoft PP ?                                                          
   IUNSCR =        1    unscreen: 0-lin 1-nonlin 2-no                                               
   RPACOR =    2.170    partial core radius                                                         
   POMASS =   72.610; ZVAL   =    4.000    mass and valenz                                          
   RCORE  =    2.300    outmost cutoff radius                                                       
   RWIGS  =    2.300; RWIGS  =    1.217    wigner-seitz radius (au A)                               
   ENMAX  =  173.807; ENMIN  =  130.355 eV                                                          
   ICORE  =        3    local potential                                                             
   LCOR   =        T    correct aug charges                                                         
   LPAW   =        T    paw PP                                                                      
   EAUG   =  385.843                                                                                
   DEXC   =    0.000                                                                                
   RMAX   =    2.342    core radius for proj-oper                                                   
   RAUG   =    1.300    factor for augmentation sphere                                              
   RDEP   =    2.318    radius for radial grids                                                     
   RDEPT  =    2.103    core radius for aug-charge                                                  
                                                                                                    
   Atomic configuration                                                                             
   10 entries                                                                                       
     n  l   j            E        occ.                                                              
     1  0  0.50    -10959.8463   2.0000                                                             
     2  0  0.50     -1371.6056   2.0000                                                             
     2  1  1.50     -1198.4791   6.0000                                                             
     3  0  0.50      -168.4733   2.0000                                                             
     3  1  1.50      -115.6019   6.0000                                                             
     3  2  2.50       -29.3106  10.0000                                                             
     4  0  0.50       -11.7309   2.0000                                                             
     4  1  0.50        -3.8952   2.0000                                                             
     4  2  1.50        -4.0817   0.0000                                                             
     4  3  2.50        -4.0817   0.0000                                                             
   Description                                                                                      
     l       E           TYP  RCUT    TYP  RCUT                                                     
     0    -11.7309493     23  2.300                                                                 
     0     -7.4578696     23  2.300                                                                 
     1     -3.8952261     23  2.300                                                                 
     1      6.1178114     23  2.300                                                                 
     2     -4.0817478     23  2.300                                                                 
     3     -1.3605826      7  2.300                                                                 
  local pseudopotential read in
  partial core-charges read in
  partial kinetic energy density read in
  atomic valenz-charges read in
  non local Contribution for L=            0  read in
    real space projection operators read in
  non local Contribution for L=            0  read in
    real space projection operators read in
  non local Contribution for L=            1  read in
    real space projection operators read in
  non local Contribution for L=            1  read in
    real space projection operators read in
  non local Contribution for L=            2  read in
    real space projection operators read in
    PAW grid and wavefunctions read in
 
   number of l-projection  operators is LMAX  =            5
   number of lm-projection operators is LMMAX =           13
 
 POTCAR:    PAW_PBE Se 06Sep2000                  
   VRHFIN =Se: s2p4                                                                                 
   LEXCH  = PE                                                                                      
   EATOM  =   257.1286 eV,   18.8984 Ry                                                             
                                                                                                    
   TITEL  = PAW_PBE Se 06Sep2000                                                                    
   LULTRA =        F    use ultrasoft PP ?                                                          
   IUNSCR =        1    unscreen: 0-lin 1-nonlin 2-no                                               
   RPACOR =    1.900    partial core radius                                                         
   POMASS =   78.960; ZVAL   =    6.000    mass and valenz                                          
   RCORE  =    2.100    outmost cutoff radius                                                       
   RWIGS  =    2.200; RWIGS  =    1.164    wigner-seitz radius (au A)                               
   ENMAX  =  211.555; ENMIN  =  158.666 eV                                                          
   ICORE  =        3    local potential                                                             
   LCOR   =        T    correct aug charges                                                         
   LPAW   =        T    paw PP                                                                      
   EAUG   =  446.842                                                                                
   DEXC   =    0.000                                                                                
   RMAX   =    2.147    core radius for proj-oper                                                   
   RAUG   =    1.300    factor for augmentation sphere                                              
   RDEP   =    2.177    radius for radial grids                                                     
   RDEPT  =    1.928    core radius for aug-charge                                                  
                                                                                                    
   Atomic configuration                                                                             
   10 entries                                                                                       
     n  l   j            E        occ.                                                              
     1  0  0.50    -12503.4787   2.0000                                                             
     2  0  0.50     -1606.9547   2.0000                                                             
     2  1  1.50     -1413.3140   6.0000                                                             
     3  0  0.50      -213.4885   2.0000                                                             
     3  1  1.50      -152.9538   6.0000                                                             
     3  2  2.50       -53.1221  10.0000                                                             
     4  0  0.50       -17.2865   2.0000                                                             
     4  1  0.50        -6.5110   4.0000                                                             
     4  2  2.50        -6.8029   0.0000                                                             
     4  3  2.50        -6.8029   0.0000                                                             
   Description                                                                                      
     l       E           TYP  RCUT    TYP  RCUT                                                     
     0    -17.2865377     23  2.100                                                                 
     0    -15.3094411     23  2.100                                                                 
     1     -6.5110275     23  2.100                                                                 
     1     -0.0695192     23  2.100                                                                 
     2     -6.8029130     23  2.100                                                                 
     3     -1.3605826      7  2.100                                                                 
  local pseudopotential read in
  partial core-charges read in
  partial kinetic energy density read in
  atomic valenz-charges read in
  non local Contribution for L=            0  read in
    real space projection operators read in
  non local Contribution for L=            0  read in
    real space projection operators read in
  non local Contribution for L=            1  read in
    real space projection operators read in
  non local Contribution for L=            1  read in
    real space projection operators read in
  non local Contribution for L=            2  read in
    real space projection operators read in
    PAW grid and wavefunctions read in
 
   number of l-projection  operators is LMAX  =            5
   number of lm-projection operators is LMMAX =           13
 
  PAW_PBE Ge 05Jan2001                  :
 energy of atom  1       EATOM= -104.9960
 kinetic energy error for atom=    0.0005 (will be added to EATOM!!)
  PAW_PBE Se 06Sep2000                  :
 energy of atom  2       EATOM= -257.1286
 kinetic energy error for atom=    0.0030 (will be added to EATOM!!)
 
 
 POSCAR: Ge Se
  positions in cartesian coordinates
  No initial velocities read in
 exchange correlation table for  LEXCH =        8
   RHO(1)=    0.500       N(1)  =     2000
   RHO(2)=  100.500       N(2)  =     4000
 


--------------------------------------------------------------------------------------------------------


 ion  position               nearest neighbor table
   1  0.250  0.118  0.124-   6 2.58   6 2.58   5 2.60
   2  0.750  0.618  0.376-   5 2.58   5 2.58   6 2.60
   3  0.750  0.882  0.876-   8 2.58   8 2.58   7 2.60
   4  0.250  0.382  0.624-   7 2.58   7 2.58   8 2.60
   5  0.250  0.982  0.350-   2 2.58   2 2.58   1 2.60
   6  0.750  0.482  0.150-   1 2.58   1 2.58   2 2.60
   7  0.750  0.018  0.650-   4 2.58   4 2.58   3 2.60
   8  0.250  0.518  0.850-   3 2.58   3 2.58   4 2.60
 

IMPORTANT INFORMATION: All symmetrisations will be switched off!
NOSYMM: (Re-)initialisation of all symmetry stuff for point group C_1.


----------------------------------------------------------------------------------------

                                     Primitive cell                                     

  volume of cell :     201.1171

  direct lattice vectors                    reciprocal lattice vectors
     3.800000000  0.000000000  0.000000000     0.263157895  0.000000000  0.000000000
     0.000000000  4.750000000  0.000000000     0.000000000  0.210526316  0.000000000
     0.000000000  0.000000000 11.142221000     0.000000000  0.000000000  0.089748713

  length of vectors
     3.800000000  4.750000000 11.142221000     0.263157895  0.210526316  0.089748713

  position of ions in fractional coordinates (direct lattice)
     0.250000000  0.118356414  0.123711320
     0.750000000  0.618356414  0.376288680
     0.750000000  0.881643586  0.876288680
     0.250000000  0.381643586  0.623711320
     0.250000000  0.981705287  0.350047728
     0.750000000  0.481705287  0.149952272
     0.750000000  0.018294713  0.649952272
     0.250000000  0.518294713  0.850047728

  ion indices of the primitive-cell ions
   primitive index   ion index
                 1           1
                 2           2
                 3           3
                 4           4
                 5           5
                 6           6
                 7           7
                 8           8

----------------------------------------------------------------------------------------

 
 
 KPOINTS: KPOINTS created by Atomic Simulation Env

Automatic generation of k-mesh.
 Grid dimensions read from file:
 generate k-points for:    6    6    2

 Generating k-lattice:

  Cartesian coordinates                     Fractional coordinates (reciprocal lattice)
     0.043859649  0.000000000  0.000000000     0.166666667  0.000000000  0.000000000
     0.000000000  0.035087719  0.000000000     0.000000000  0.166666667  0.000000000
     0.000000000  0.000000000  0.044874357     0.000000000  0.000000000  0.500000000

  Length of vectors
     0.043859649  0.035087719  0.044874357

  Shift w.r.t. Gamma in fractional coordinates (k-lattice)
     0.000000000  0.000000000  0.000000000

 
 Subroutine IBZKPT returns following result:
 ===========================================
 
 Found     40 irreducible k-points:
 
 Following reciprocal coordinates:
            Coordinates               Weight
  0.000000  0.000000  0.000000      1.000000
  0.166667  0.000000  0.000000      2.000000
  0.333333  0.000000  0.000000      2.000000
  0.500000  0.000000  0.000000      1.000000
  0.000000  0.166667  0.000000      2.000000
  0.166667  0.166667  0.000000      2.000000
  0.166667 -0.166667  0.000000      2.000000
  0.333333  0.166667  0.000000      2.000000
  0.333333 -0.166667  0.000000      2.000000
  0.500000  0.166667  0.000000      2.000000
  0.000000  0.333333  0.000000      2.000000
  0.166667  0.333333  0.000000      2.000000
  0.166667 -0.333333  0.000000      2.000000
  0.333333  0.333333  0.000000      2.000000
  0.333333 -0.333333  0.000000      2.000000
  0.500000  0.333333  0.000000      2.000000
  0.000000  0.500000  0.000000      1.000000
  0.166667  0.500000  0.000000      2.000000
  0.333333  0.500000  0.000000      2.000000
  0.500000  0.500000  0.000000      1.000000
  0.000000  0.000000  0.500000      1.000000
  0.166667  0.000000  0.500000      2.000000
  0.333333  0.000000  0.500000      2.000000
  0.500000  0.000000  0.500000      1.000000
  0.000000  0.166667  0.500000      2.000000
  0.166667  0.166667  0.500000      2.000000
  0.166667 -0.166667  0.500000      2.000000
  0.333333  0.166667  0.500000      2.000000
  0.333333 -0.166667  0.500000      2.000000
  0.500000  0.166667  0.500000      2.000000
  0.000000  0.333333  0.500000      2.000000
  0.166667  0.333333  0.500000      2.000000
  0.166667 -0.333333  0.500000      2.000000
  0.333333  0.333333  0.500000      2.000000
  0.333333 -0.333333  0.500000      2.000000
  0.500000  0.333333  0.500000      2.000000
  0.000000  0.500000  0.500000      1.000000
  0.166667  0.500000  0.500000      2.000000
  0.333333  0.500000  0.500000      2.000000
  0.500000  0.500000  0.500000      1.000000
 
 Following cartesian coordinates:
            Coordinates               Weight
  0.000000  0.000000  0.000000      1.000000
  0.043860  0.000000  0.000000      2.000000
  0.087719  0.000000  0.000000      2.000000
  0.131579  0.000000  0.000000      1.000000
  0.000000  0.035088  0.000000      2.000000
  0.043860  0.035088  0.000000      2.000000
  0.043860 -0.035088  0.000000      2.000000
  0.087719  0.035088  0.000000      2.000000
  0.087719 -0.035088  0.000000      2.000000
  0.131579  0.035088  0.000000      2.000000
  0.000000  0.070175  0.000000      2.000000
  0.043860  0.070175  0.000000      2.000000
  0.043860 -0.070175  0.000000      2.000000
  0.087719  0.070175  0.000000      2.000000
  0.087719 -0.070175  0.000000      2.000000
  0.131579  0.070175  0.000000      2.000000
  0.000000  0.105263  0.000000      1.000000
  0.043860  0.105263  0.000000      2.000000
  0.087719  0.105263  0.000000      2.000000
  0.131579  0.105263  0.000000      1.000000
  0.000000  0.000000  0.044874      1.000000
  0.043860  0.000000  0.044874      2.000000
  0.087719  0.000000  0.044874      2.000000
  0.131579  0.000000  0.044874      1.000000
  0.000000  0.035088  0.044874      2.000000
  0.043860  0.035088  0.044874      2.000000
  0.043860 -0.035088  0.044874      2.000000
  0.087719  0.035088  0.044874      2.000000
  0.087719 -0.035088  0.044874      2.000000
  0.131579  0.035088  0.044874      2.000000
  0.000000  0.070175  0.044874      2.000000
  0.043860  0.070175  0.044874      2.000000
  0.043860 -0.070175  0.044874      2.000000
  0.087719  0.070175  0.044874      2.000000
  0.087719 -0.070175  0.044874      2.000000
  0.131579  0.070175  0.044874      2.000000
  0.000000  0.105263  0.044874      1.000000
  0.043860  0.105263  0.044874      2.000000
  0.087719  0.105263  0.044874      2.000000
  0.131579  0.105263  0.044874      1.000000
 


--------------------------------------------------------------------------------------------------------




 Dimension of arrays:
   k-points           NKPTS =     40   k-points in BZ     NKDIM =     40   number of bands    NBANDS=     32
   number of dos      NEDOS =    301   number of ions     NIONS =      8
   non local maximal  LDIM  =      5   non local SUM 2l+1 LMDIM =     13
   total plane-waves  NPLWV =  23328
   max r-space proj   IRMAX =      1   max aug-charges    IRDMAX=   6503
   dimension x,y,z NGX =    18 NGY =   24 NGZ =   54
   dimension x,y,z NGXF=    36 NGYF=   48 NGZF=  108
   support grid    NGXF=    36 NGYF=   48 NGZF=  108
   ions per type =               4   4
   NGX,Y,Z   is equivalent  to a cutoff of   7.87,  8.40,  8.06 a.u.
   NGXF,Y,Z  is equivalent  to a cutoff of  15.75, 16.80, 16.11 a.u.

 SYSTEM =  ./                                      
 POSCAR =  Ge Se                                   

 Startparameter for this run:
   NWRITE =      2    write-flag & timer
   PREC   = normal    normal or accurate (medium, high low for compatibility)
   ISTART =      0    job   : 0-new  1-cont  2-samecut
   ICHARG =      2    charge: 1-file 2-atom 10-const
   ISPIN  =      1    spin polarized calculation?
   LNONCOLLINEAR =      F non collinear calculations
   LSORBIT =      F    spin-orbit coupling
   INIWAV =      1    electr: 0-lowe 1-rand  2-diag
   LASPH  =      T    aspherical Exc in radial PAW
 Electronic Relaxation 1
   ENCUT  =  360.0 eV  26.46 Ry    5.14 a.u.   5.88  7.35 17.24*2*pi/ulx,y,z
   ENINI  =  360.0     initial cutoff
   ENAUG  =  446.8 eV  augmentation charge cutoff
   NELM   =    100;   NELMIN=  2; NELMDL= -5     # of ELM steps 
   EDIFF  = 0.1E-05   stopping-criterion for ELM
   LREAL  =      F    real-space projection
   NLSPLINE    = F    spline interpolate recip. space projectors
   LCOMPAT=      F    compatible to vasp.4.4
   GGA_COMPAT  = T    GGA compatible to vasp.4.4-vasp.4.6
   LMAXPAW     = -100 max onsite density
   LMAXMIX     =    4 max onsite mixed and CHGCAR
   VOSKOWN=      0    Vosko Wilk Nusair interpolation
   ROPT   =    0.00000   0.00000
 Ionic relaxation
   EDIFFG = 0.1E-04   stopping-criterion for IOM
   NSW    =      0    number of steps for IOM
   NBLOCK =      1;   KBLOCK =      1    inner block; outer block 
   IBRION =     -1    ionic relax: 0-MD 1-quasi-New 2-CG
   NFREE  =      0    steps in history (QN), initial steepest desc. (CG)
   ISIF   =      2    stress and relaxation
   IWAVPR =     10    prediction:  0-non 1-charg 2-wave 3-comb
   ISYM   =      0    0-nonsym 1-usesym 2-fastsym
   LCORR  =      T    Harris-Foulkes like correction to forces

   POTIM  = 0.5000    time-step for ionic-motion
   TEIN   =    0.0    initial temperature
   TEBEG  =    0.0;   TEEND  =   0.0 temperature during run
   SMASS  =  -3.00    Nose mass-parameter (am)
   estimated Nose-frequenzy (Omega)   =  0.10E-29 period in steps = 0.13E+47 mass=  -0.330E-27a.u.
   SCALEE = 1.0000    scale energy and forces
   NPACO  =    256;   APACO  = 10.0  distance and # of slots for P.C.
   PSTRESS=    0.0 pullay stress

  Mass of Ions in am
   POMASS =  72.61 78.96
  Ionic Valenz
   ZVAL   =   4.00  6.00
  Atomic Wigner-Seitz radii
   RWIGS  =  -1.00 -1.00
  virtual crystal weights 
   VCA    =   1.00  1.00
   NELECT =      40.0000    total number of electrons
   NUPDOWN=      -1.0000    fix difference up-down

 DOS related values:
   EMIN   =  10.00;   EMAX   =-10.00  energy-range for DOS
   EFERMI =   0.00;   METHOD = LEGACY      
   ISMEAR =     0;   SIGMA  =   0.05  broadening in eV -4-tet -1-fermi 0-gaus

 Electronic relaxation 2 (details)
   IALGO  =     38    algorithm
   LDIAG  =      T    sub-space diagonalisation (order eigenvalues)
   LSUBROT=      F    optimize rotation matrix (better conditioning)
   TURBO    =      0    0=normal 1=particle mesh
   IRESTART =      0    0=no restart 2=restart with 2 vectors
   NREBOOT  =      0    no. of reboots
   NMIN     =      0    reboot dimension
   EREF     =   0.00    reference energy to select bands
   IMIX   =      4    mixing-type and parameters
     AMIX     =   0.40;   BMIX     =  1.00
     AMIX_MAG =   1.60;   BMIX_MAG =  1.00
     AMIN     =   0.10
     WC   =   100.;   INIMIX=   1;  MIXPRE=   1;  MAXMIX= -45

 Intra band minimization:
   WEIMIN = 0.0000     energy-eigenvalue tresh-hold
   EBREAK =  0.78E-08  absolut break condition
   DEPER  =   0.30     relativ break condition  

   TIME   =   0.40     timestep for ELM

  volume/ion in A,a.u.               =      25.14       169.65
  Fermi-wavevector in a.u.,A,eV,Ry     =   0.955605  1.805832 12.424586  0.913181
  Thomas-Fermi vector in A             =   2.084458
 
 Write flags
   LWAVE        =      F    write WAVECAR
   LDOWNSAMPLE  =      F    k-point downsampling of WAVECAR
   LCHARG       =      F    write CHGCAR
   LVTOT        =      F    write LOCPOT, total local potential
   LVHAR        =      F    write LOCPOT, Hartree potential only
   LELF         =      F    write electronic localiz. function (ELF)
   LORBIT       =      0    0 simple, 1 ext, 2 COOP (PROOUT), +10 PAW based schemes


 Dipole corrections
   LMONO  =      F    monopole corrections only (constant potential shift)
   LDIPOL =      F    correct potential (dipole corrections)
   IDIPOL =      0    1-x, 2-y, 3-z, 4-all directions 
   EPSILON=  1.0000000 bulk dielectric constant

 Exchange correlation treatment:
   GGA     =    PE    GGA type
   LEXCH   =     8    internal setting for exchange type
   LIBXC   =     F    Libxc                    
   VOSKOWN =     0    Vosko Wilk Nusair interpolation
   LHFCALC =     F    Hartree Fock is set to
   LHFONE  =     F    Hartree Fock one center treatment
   AEXX    =    0.0000 exact exchange contribution

 Linear response parameters
   LEPSILON=     F    determine dielectric tensor
   LRPA    =     F    only Hartree local field effects (RPA)
   LNABLA  =     F    use nabla operator in PAW spheres
   LVEL    =     F    velocity operator in full k-point grid
   CSHIFT  =0.1000    complex shift for real part using Kramers Kronig
   OMEGAMAX=  -1.0    maximum frequency
   DEG_THRESHOLD= 0.2000000E-02 threshold for treating states as degnerate
   RTIME   =   -0.100 relaxation time in fs
  (WPLASMAI=    0.000 imaginary part of plasma frequency in eV, 0.658/RTIME)
   DFIELD  = 0.0000000 0.0000000 0.0000000 field for delta impulse in time
 
  Optional k-point grid parameters
   LKPOINTS_OPT  =     F    use optional k-point grid
   KPOINTS_OPT_MODE=     1    mode for optional k-point grid
 
 Orbital magnetization related:
   ORBITALMAG=     F  switch on orbital magnetization
   LCHIMAG   =     F  perturbation theory with respect to B field
   DQ        =  0.001000  dq finite difference perturbation B field
   LLRAUG    =     F  two centre corrections for induced B field
   LBONE     =     F  B-component reconstruction in AE one-centre
   LVGVCALC  =     T  calculate vGv susceptibility
   LVGVAPPL  =     F  apply vGv susceptibility instead of pGv for G=0

 Random number generation:
   RANDOM_GENERATOR = DEFAULT
   PCG_SEED         = not used


--------------------------------------------------------------------------------------------------------


 Static calculation
 charge density and potential will be updated during run
 non-spin polarized calculation
 Variant of blocked Davidson
 Davidson routine will perform the subspace rotation
 perform sub-space diagonalisation
    after iterative eigenvector-optimisation
 modified Broyden-mixing scheme, WC =      100.0
 initial mixing is a Kerker type mixing with AMIX =  0.4000 and BMIX =      1.0000
 Hartree-type preconditioning will be used
 using additional bands            12
 reciprocal scheme for non local part
 use partial core corrections
 calculate Harris-corrections to forces 
   (improved forces if not selfconsistent)
 use gradient corrections 
 use of overlap-Matrix (Vanderbilt PP)
 Gauss-broadening in eV      SIGMA  =   0.05


--------------------------------------------------------------------------------------------------------


  energy-cutoff  :      360.00
  volume of cell :      201.12
      direct lattice vectors                 reciprocal lattice vectors
     3.800000000  0.000000000  0.000000000     0.263157895  0.000000000  0.000000000
     0.000000000  4.750000000  0.000000000     0.000000000  0.210526316  0.000000000
     0.000000000  0.000000000 11.142221000     0.000000000  0.000000000  0.089748713

  length of vectors
     3.800000000  4.750000000 11.142221000     0.263157895  0.210526316  0.089748713


 
 k-points in units of 2pi/SCALE and weight: KPOINTS created by Atomic Simulation Env
   0.00000000  0.00000000  0.00000000       0.014
   0.04385965  0.00000000  0.00000000       0.028
   0.08771930  0.00000000  0.00000000       0.028
   0.13157895  0.00000000  0.00000000       0.014
   0.00000000  0.03508772  0.00000000       0.028
   0.04385965  0.03508772  0.00000000       0.028
   0.04385965 -0.03508772  0.00000000       0.028
   0.08771930  0.03508772  0.00000000       0.028
   0.08771930 -0.03508772  0.00000000       0.028
   0.13157895  0.03508772  0.00000000       0.028
   0.00000000  0.07017544  0.00000000       0.028
   0.04385965  0.07017544  0.00000000       0.028
   0.04385965 -0.07017544  0.00000000       0.028
   0.08771930  0.07017544  0.00000000       0.028
   0.08771930 -0.07017544  0.00000000       0.028
   0.13157895  0.07017544  0.00000000       0.028
   0.00000000  0.10526316  0.00000000       0.014
   0.04385965  0.10526316  0.00000000       0.028
   0.08771930  0.10526316  0.00000000       0.028
   0.13157895  0.10526316  0.00000000       0.014
   0.00000000  0.00000000  0.04487436       0.014
   0.04385965  0.00000000  0.04487436       0.028
   0.08771930  0.00000000  0.04487436       0.028
   0.13157895  0.00000000  0.04487436       0.014
   0.00000000  0.03508772  0.04487436       0.028
   0.04385965  0.03508772  0.04487436       0.028
   0.04385965 -0.03508772  0.04487436       0.028
   0.08771930  0.03508772  0.04487436       0.028
   0.08771930 -0.03508772  0.04487436       0.028
   0.13157895  0.03508772  0.04487436       0.028
   0.00000000  0.07017544  0.04487436       0.028
   0.04385965  0.07017544  0.04487436       0.028
   0.04385965 -0.07017544  0.04487436       0.028
   0.08771930  0.07017544  0.04487436       0.028
   0.08771930 -0.07017544  0.04487436       0.028
   0.13157895  0.07017544  0.04487436       0.028
   0.00000000  0.10526316  0.04487436       0.014
   0.04385965  0.10526316  0.04487436       0.028
   0.08771930  0.10526316  0.04487436       0.028
   0.13157895  0.10526316  0.04487436       0.014
 
 k-points in reciprocal lattice and weights: KPOINTS created by Atomic Simulation Env
   0.00000000  0.00000000  0.00000000       0.014
   0.16666667  0.00000000  0.00000000       0.028
   0.33333333  0.00000000  0.00000000       0.028
   0.50000000  0.00000000  0.00000000       0.014
   0.00000000  0.16666667  0.00000000       0.028
   0.16666667  0.16666667  0.00000000       0.028
   0.16666667 -0.16666667  0.00000000       0.028
   0.33333333  0.16666667  0.00000000       0.028
   0.33333333 -0.16666667  0.00000000       0.028
   0.50000000  0.16666667  0.00000000       0.028
   0.00000000  0.33333333  0.00000000       0.028
   0.16666667  0.33333333  0.00000000       0.028
   0.16666667 -0.33333333  0.00000000       0.028
   0.33333333  0.33333333  0.00000000       0.028
   0.33333333 -0.33333333  0.00000000       0.028
   0.50000000  0.33333333  0.00000000       0.028
   0.00000000  0.50000000  0.00000000       0.014
   0.16666667  0.50000000  0.00000000       0.028
   0.33333333  0.50000000  0.00000000       0.028
   0.50000000  0.50000000  0.00000000       0.014
   0.00000000  0.00000000  0.50000000       0.014
   0.16666667  0.00000000  0.50000000       0.028
   0.33333333  0.00000000  0.50000000       0.028
   0.50000000  0.00000000  0.50000000       0.014
   0.00000000  0.16666667  0.50000000       0.028
   0.16666667  0.16666667  0.50000000       0.028
   0.16666667 -0.16666667  0.50000000       0.028
   0.33333333  0.16666667  0.50000000       0.028
   0.33333333 -0.16666667  0.50000000       0.028
   0.50000000  0.16666667  0.50000000       0.028
   0.00000000  0.33333333  0.50000000       0.028
   0.16666667  0.33333333  0.50000000       0.028
   0.16666667 -0.33333333  0.50000000       0.028
   0.33333333  0.33333333  0.50000000       0.028
   0.33333333 -0.33333333  0.50000000       0.028
   0.50000000  0.33333333  0.50000000       0.028
   0.00000000  0.50000000  0.50000000       0.014
   0.16666667  0.50000000  0.50000000       0.028
   0.33333333  0.50000000  0.50000000       0.028
   0.50000000  0.50000000  0.50000000       0.014
 
 position of ions in fractional coordinates (direct lattice) 
   0.25000000  0.11835641  0.12371132
   0.75000000  0.61835641  0.37628868
   0.75000000  0.88164359  0.87628868
   0.25000000  0.38164359  0.62371132
   0.25000000  0.98170529  0.35004773
   0.75000000  0.48170529  0.14995227
   0.75000000  0.01829471  0.64995227
   0.25000000  0.51829471  0.85004773
 
 position of ions in cartesian coordinates  (Angst):
   0.95000000  0.56219297  1.37841887
   2.85000000  2.93719297  4.19269163
   2.85000000  4.18780703  9.76380213
   0.95000000  1.81280703  6.94952937
   0.95000000  4.66310011  3.90030914
   2.85000000  2.28810011  1.67080136
   2.85000000  0.08689989  7.24191186
   0.95000000  2.46189989  9.47141964
 


--------------------------------------------------------------------------------------------------------


 k-point   1 :   0.0000 0.0000 0.0000  plane waves:    3131
 k-point   2 :   0.1667 0.0000 0.0000  plane waves:    3118
 k-point   3 :   0.3333 0.0000 0.0000  plane waves:    3120
 k-point   4 :   0.5000 0.0000 0.0000  plane waves:    3112
 k-point   5 :   0.0000 0.1667 0.0000  plane waves:    3111
 k-point   6 :   0.1667 0.1667 0.0000  plane waves:    3120
 k-point   7 :   0.1667-0.1667 0.0000  plane waves:    3120
 k-point   8 :   0.3333 0.1667 0.0000  plane waves:    3132
 k-point   9 :   0.3333-0.1667 0.0000  plane waves:    3132
 k-point  10 :   0.5000 0.1667 0.0000  plane waves:    3124
 k-point  11 :   0.0000 0.3333 0.0000  plane waves:    3093
 k-point  12 :   0.1667 0.3333 0.0000  plane waves:    3104
 k-point  13 :   0.1667-0.3333 0.0000  plane waves:    3104
 k-point  14 :   0.3333 0.3333 0.0000  plane waves:    3119
 k-point  15 :   0.3333-0.3333 0.0000  plane waves:    3119
 k-point  16 :   0.5000 0.3333 0.0000  plane waves:    3124
 k-point  17 :   0.0000 0.5000 0.0000  plane waves:    3090
 k-point  18 :   0.1667 0.5000 0.0000  plane waves:    3098
 k-point  19 :   0.3333 0.5000 0.0000  plane waves:    3132
 k-point  20 :   0.5000 0.5000 0.0000  plane waves:    3140
 k-point  21 :   0.0000 0.0000 0.5000  plane waves:    3114
 k-point  22 :   0.1667 0.0000 0.5000  plane waves:    3124
 k-point  23 :   0.3333 0.0000 0.5000  plane waves:    3132
 k-point  24 :   0.5000 0.0000 0.5000  plane waves:    3148
 k-point  25 :   0.0000 0.1667 0.5000  plane waves:    3130
 k-point  26 :   0.1667 0.1667 0.5000  plane waves:    3116
 k-point  27 :   0.1667-0.1667 0.5000  plane waves:    3116
 k-point  28 :   0.3333 0.1667 0.5000  plane waves:    3112
 k-point  29 :   0.3333-0.1667 0.5000  plane waves:    3112
 k-point  30 :   0.5000 0.1667 0.5000  plane waves:    3128
 k-point  31 :   0.0000 0.3333 0.5000  plane waves:    3114
 k-point  32 :   0.1667 0.3333 0.5000  plane waves:    3106
 k-point  33 :   0.1667-0.3333 0.5000  plane waves:    3106
 k-point  34 :   0.3333 0.3333 0.5000  plane waves:    3128
 k-point  35 :   0.3333-0.3333 0.5000  plane waves:    3128
 k-point  36 :   0.5000 0.3333 0.5000  plane waves:    3128
 k-point  37 :   0.0000 0.5000 0.5000  plane waves:    3096
 k-point  38 :   0.1667 0.5000 0.5000  plane waves:    3112
 k-point  39 :   0.3333 0.5000 0.5000  plane waves:    3112
 k-point  40 :   0.5000 0.5000 0.5000  plane waves:    3144

 maximum and minimum number of plane-waves per node :       822      752

 maximum number of plane-waves:      3148
 maximum index in each direction: 
   IXMAX=    5   IYMAX=    7   IZMAX=   17
   IXMIN=   -6   IYMIN=   -7   IZMIN=  -17


 parallel 3D FFT for wavefunctions:
    minimum data exchange during FFTs selected (reduces bandwidth)
 parallel 3D FFT for charge:
    minimum data exchange during FFTs selected (reduces bandwidth)


 total amount of memory used by VASP MPI-rank0    39072. kBytes
=======================================================================

   base      :      30000. kBytes
   nonl-proj :       7028. kBytes
   fftplans  :        368. kBytes
   grid      :        555. kBytes
   one-center:         16. kBytes
   wavefun   :       1105. kBytes
 
     INWAV:  cpu time      0.0000: real time      0.0001
 Broyden mixing: mesh for mixing (old mesh)
   NGX = 11   NGY = 15   NGZ = 35
  (NGX  = 36   NGY  = 48   NGZ  =108)
  gives a total of   5775 points

 initial charge density was supplied:
 charge density of overlapping atoms calculated
 number of electron      40.0000000 magnetization 
 keeping initial charge density in first step


--------------------------------------------------------------------------------------------------------


 Maximum index for augmentation-charges           140 (set IRDMAX)


--------------------------------------------------------------------------------------------------------


 First call to EWALD:  gamma=   0.303
 Maximum number of real-space cells 4x 3x 2
 Maximum number of reciprocal cells 2x 2x 5

    FEWALD:  cpu time      0.0014: real time      0.0014


--------------------------------------- Ionic step        1  -------------------------------------------




--------------------------------------- Iteration      1(   1)  ---------------------------------------


    POTLOK:  cpu time      0.0060: real time      0.0064
    SETDIJ:  cpu time      0.1393: real time      0.1397
     EDDAV:  cpu time      0.2653: real time      0.2679
       DOS:  cpu time      0.0017: real time      0.0017
    --------------------------------------------
      LOOP:  cpu time      0.4123: real time      0.4158

 eigenvalue-minimisations  :  2560
 total energy-change (2. order) : 0.1297192E+03  (-0.1272043E+04)
 number of electron      40.0000000 magnetization 
 augmentation part       40.0000000 magnetization 

 Free energy of the ion-electron system (eV)
  ---------------------------------------------------
  alpha Z        PSCENC =        84.25164425
  Ewald energy   TEWEN  =     -1392.70956944
  -Hartree energ DENC   =      -139.24357035
  -exchange      EXHF   =         0.00000000
  -V(xc)+E(xc)   XCENC  =       -33.78017604
  PAW double counting   =      1193.78262552    -1080.73714043
  entropy T*S    EENTRO =        -0.00470367
  eigenvalues    EBANDS =        49.67552618
  atomic energy  EATOM  =      1448.48460880
  Solvation  Ediel_sol  =         0.00000000
  ---------------------------------------------------
  free energy    TOTEN  =       129.71924484 eV

  energy without entropy =      129.72394850  energy(sigma->0) =      129.72159667


--------------------------------------------------------------------------------------------------------




--------------------------------------- Iteration      1(   2)  ---------------------------------------


     EDDAV:  cpu time      0.3301: real time      0.3334
       DOS:  cpu time      0.0005: real time      0.0005
    --------------------------------------------
      LOOP:  cpu time      0.3306: real time      0.3339

 eigenvalue-minimisations  :  3760
 total energy-change (2. order) :-0.1552539E+03  (-0.1503952E+03)
 number of electron      40.0000000 magnetization 
 augmentation part       40.0000000 magnetization 

 Free energy of the ion-electron system (eV)
  ---------------------------------------------------
  alpha Z        PSCENC =        84.25164425
  Ewald energy   TEWEN  =     -1392.70956944
  -Hartree energ DENC   =      -139.24357035
  -exchange      EXHF   =         0.00000000
  -V(xc)+E(xc)   XCENC  =       -33.78017604
  PAW double counting   =      1193.78262552    -1080.73714043
  entropy T*S    EENTRO =        -0.00000000
  eigenvalues    EBANDS =      -105.58305753
  atomic energy  EATOM  =      1448.48460880
  Solvation  Ediel_sol  =         0.00000000
  ---------------------------------------------------
  free energy    TOTEN  =       -25.53463522 eV

  energy without entropy =      -25.53463522  energy(sigma->0) =      -25.53463522


--------------------------------------------------------------------------------------------------------




--------------------------------------- Iteration      1(   3)  ---------------------------------------


     EDDAV:  cpu time      0.2992: real time      0.3022
       DOS:  cpu time      0.0005: real time      0.0005
    --------------------------------------------
      LOOP:  cpu time      0.2997: real time      0.3027

 eigenvalue-minimisations  :  3120
 total energy-change (2. order) :-0.8610576E+01  (-0.8593423E+01)
 number of electron      40.0000000 magnetization 
 augmentation part       40.0000000 magnetization 

 Free energy of the ion-electron system (eV)
  ---------------------------------------------------
  alpha Z        PSCENC =        84.25164425
  Ewald energy   TEWEN  =     -1392.70956944
  -Hartree energ DENC   =      -139.24357035
  -exchange      EXHF   =         0.00000000
  -V(xc)+E(xc)   XCENC  =       -33.78017604
  PAW double counting   =      1193.78262552    -1080.73714043
  entropy T*S    EENTRO =        -0.00000000
  eigenvalues    EBANDS =      -114.19363390
  atomic energy  EATOM  =      1448.48460880
  Solvation  Ediel_sol  =         0.00000000
  ---------------------------------------------------
  free energy    TOTEN  =       -34.14521158 eV

  energy without entropy =      -34.14521158  energy(sigma->0) =      -34.14521158


--------------------------------------------------------------------------------------------------------




--------------------------------------- Iteration      1(   4)  ---------------------------------------


     EDDAV:  cpu time      0.3037: real time      0.3068
       DOS:  cpu time      0.0006: real time      0.0006
    --------------------------------------------
      LOOP:  cpu time      0.3043: real time      0.3073

 eigenvalue-minimisations  :  3264
 total energy-change (2. order) :-0.5981931E-01  (-0.5980865E-01)
 number of electron      40.0000000 magnetization 
 augmentation part       40.0000000 magnetization 

 Free energy of the ion-electron system (eV)
  ---------------------------------------------------
  alpha Z        PSCENC =        84.25164425
  Ewald energy   TEWEN  =     -1392.70956944
  -Hartree energ DENC   =      -139.24357035
  -exchange      EXHF   =         0.00000000
  -V(xc)+E(xc)   XCENC  =       -33.78017604
  PAW double counting   =      1193.78262552    -1080.73714043
  entropy T*S    EENTRO =        -0.00000000
  eigenvalues    EBANDS =      -114.25345321
  atomic energy  EATOM  =      1448.48460880
  Solvation  Ediel_sol  =         0.00000000
  ---------------------------------------------------
  free energy    TOTEN  =       -34.20503089 eV

  energy without entropy =      -34.20503089  energy(sigma->0) =      -34.20503089


--------------------------------------------------------------------------------------------------------




--------------------------------------- Iteration      1(   5)  ---------------------------------------


     EDDAV:  cpu time      0.2960: real time      0.2993
       DOS:  cpu time      0.0005: real time      0.0005
    CHARGE:  cpu time      0.0049: real time      0.0049
    MIXING:  cpu time      0.0007: real time      0.0007
    --------------------------------------------
      LOOP:  cpu time      0.3021: real time      0.3054

 eigenvalue-minimisations  :  3136
 total energy-change (2. order) :-0.3776053E-03  (-0.3776028E-03)
 number of electron      39.9999972 magnetization 
 augmentation part       -7.3979835 magnetization 

 Broyden mixing:
  rms(total) = 0.64510E+00    rms(broyden)= 0.64509E+00
  rms(prec ) = 0.73224E+00
  weight for this iteration     100.00

 Free energy of the ion-electron system (eV)
  ---------------------------------------------------
  alpha Z        PSCENC =        84.25164425
  Ewald energy   TEWEN  =     -1392.70956944
  -Hartree energ DENC   =      -139.24357035
  -exchange      EXHF   =         0.00000000
  -V(xc)+E(xc)   XCENC  =       -33.78017604
  PAW double counting   =      1193.78262552    -1080.73714043
  entropy T*S    EENTRO =        -0.00000000
  eigenvalues    EBANDS =      -114.25383081
  atomic energy  EATOM  =      1448.48460880
  Solvation  Ediel_sol  =         0.00000000
  ---------------------------------------------------
  free energy    TOTEN  =       -34.20540849 eV

  energy without entropy =      -34.20540849  energy(sigma->0) =      -34.20540849


--------------------------------------------------------------------------------------------------------




--------------------------------------- Iteration      1(   6)  ---------------------------------------


    POTLOK:  cpu time      0.0069: real time      0.0072
    SETDIJ:  cpu time      0.1368: real time      0.1374
     EDDAV:  cpu time      0.3152: real time      0.3181
       DOS:  cpu time      0.0011: real time      0.0011
    CHARGE:  cpu time      0.0057: real time      0.0058
    MIXING:  cpu time      0.0011: real time      0.0011
    --------------------------------------------
      LOOP:  cpu time      0.4668: real time      0.4705

 eigenvalue-minimisations  :  3072
 total energy-change (2. order) : 0.3903440E+00  (-0.8027696E-01)
 number of electron      39.9999972 magnetization 
 augmentation part       -7.3393492 magnetization 

 Broyden mixing:
  rms(total) = 0.40645E+00    rms(broyden)= 0.40645E+00
  rms(prec ) = 0.42980E+00
  weight for this iteration     100.00

 eigenvalues of (default mixing * dielectric matrix)
  average eigenvalue GAMMA=   2.1803
  2.1803

 Free energy of the ion-electron system (eV)
  ---------------------------------------------------
  alpha Z        PSCENC =        84.25164425
  Ewald energy   TEWEN  =     -1392.70956944
  -Hartree energ DENC   =      -145.35585210
  -exchange      EXHF   =         0.00000000
  -V(xc)+E(xc)   XCENC  =       -33.15367212
  PAW double counting   =      1455.52219264    -1342.79739368
  entropy T*S    EENTRO =        -0.00000000
  eigenvalues    EBANDS =      -108.05702286
  atomic energy  EATOM  =      1448.48460880
  Solvation  Ediel_sol  =         0.00000000
  ---------------------------------------------------
  free energy    TOTEN  =       -33.81506451 eV

  energy without entropy =      -33.81506451  energy(sigma->0) =      -33.81506451


--------------------------------------------------------------------------------------------------------




--------------------------------------- Iteration      1(   7)  ---------------------------------------


    POTLOK:  cpu time      0.0056: real time      0.0059
    SETDIJ:  cpu time      0.1388: real time      0.1394
     EDDAV:  cpu time      0.2809: real time      0.2839
       DOS:  cpu time      0.0006: real time      0.0006
    CHARGE:  cpu time      0.0046: real time      0.0046
    MIXING:  cpu time      0.0006: real time      0.0006
    --------------------------------------------
      LOOP:  cpu time      0.4312: real time      0.4350

 eigenvalue-minimisations  :  2880
 total energy-change (2. order) : 0.1399358E-01  (-0.2342735E-01)
 number of electron      39.9999972 magnetization 
 augmentation part       -7.3261005 magnetization 

 Broyden mixing:
  rms(total) = 0.13291E+00    rms(broyden)= 0.13291E+00
  rms(prec ) = 0.14209E+00
  weight for this iteration     100.00

 eigenvalues of (default mixing * dielectric matrix)
  average eigenvalue GAMMA=   1.7851
  1.1795  2.3907

 Free energy of the ion-electron system (eV)
  ---------------------------------------------------
  alpha Z        PSCENC =        84.25164425
  Ewald energy   TEWEN  =     -1392.70956944
  -Hartree energ DENC   =      -148.07421692
  -exchange      EXHF   =         0.00000000
  -V(xc)+E(xc)   XCENC  =       -32.66314247
  PAW double counting   =      1775.48452628    -1662.99458357
  entropy T*S    EENTRO =        -0.00000000
  eigenvalues    EBANDS =      -105.58033786
  atomic energy  EATOM  =      1448.48460880
  Solvation  Ediel_sol  =         0.00000000
  ---------------------------------------------------
  free energy    TOTEN  =       -33.80107092 eV

  energy without entropy =      -33.80107092  energy(sigma->0) =      -33.80107092


--------------------------------------------------------------------------------------------------------




--------------------------------------- Iteration      1(   8)  ---------------------------------------


    POTLOK:  cpu time      0.0055: real time      0.0057
    SETDIJ:  cpu time      0.1377: real time      0.1383
     EDDAV:  cpu time      0.2753: real time      0.2779
       DOS:  cpu time      0.0006: real time      0.0006
    CHARGE:  cpu time      0.0044: real time      0.0045
    MIXING:  cpu time      0.0005: real time      0.0005
    --------------------------------------------
      LOOP:  cpu time      0.4240: real time      0.4274

 eigenvalue-minimisations  :  2928
 total energy-change (2. order) : 0.1170300E-02  (-0.2206489E-02)
 number of electron      39.9999972 magnetization 
 augmentation part       -7.3339970 magnetization 

 Broyden mixing:
  rms(total) = 0.18582E-01    rms(broyden)= 0.18582E-01
  rms(prec ) = 0.22764E-01
  weight for this iteration     100.00

 eigenvalues of (default mixing * dielectric matrix)
  average eigenvalue GAMMA=   1.6871
  2.4980  1.2816  1.2816

 Free energy of the ion-electron system (eV)
  ---------------------------------------------------
  alpha Z        PSCENC =        84.25164425
  Ewald energy   TEWEN  =     -1392.70956944
  -Hartree energ DENC   =      -148.30026779
  -exchange      EXHF   =         0.00000000
  -V(xc)+E(xc)   XCENC  =       -32.50370123
  PAW double counting   =      1918.27956376    -1805.85361877
  entropy T*S    EENTRO =        -0.00000000
  eigenvalues    EBANDS =      -105.44856021
  atomic energy  EATOM  =      1448.48460880
  Solvation  Ediel_sol  =         0.00000000
  ---------------------------------------------------
  free energy    TOTEN  =       -33.79990062 eV

  energy without entropy =      -33.79990062  energy(sigma->0) =      -33.79990062


--------------------------------------------------------------------------------------------------------




--------------------------------------- Iteration      1(   9)  ---------------------------------------


    POTLOK:  cpu time      0.0054: real time      0.0056
    SETDIJ:  cpu time      0.1376: real time      0.1386
     EDDAV:  cpu time      0.2924: real time      0.2952
       DOS:  cpu time      0.0006: real time      0.0006
    CHARGE:  cpu time      0.0044: real time      0.0044
    MIXING:  cpu time      0.0005: real time      0.0005
    --------------------------------------------
      LOOP:  cpu time      0.4408: real time      0.4449

 eigenvalue-minimisations  :  3104
 total energy-change (2. order) :-0.2836932E-03  (-0.3843594E-03)
 number of electron      39.9999972 magnetization 
 augmentation part       -7.3318863 magnetization 

 Broyden mixing:
  rms(total) = 0.67058E-02    rms(broyden)= 0.67058E-02
  rms(prec ) = 0.75560E-02
  weight for this iteration     100.00

 eigenvalues of (default mixing * dielectric matrix)
  average eigenvalue GAMMA=   1.7344
  2.3025  2.3025  1.1664  1.1664

 Free energy of the ion-electron system (eV)
  ---------------------------------------------------
  alpha Z        PSCENC =        84.25164425
  Ewald energy   TEWEN  =     -1392.70956944
  -Hartree energ DENC   =      -148.67074917
  -exchange      EXHF   =         0.00000000
  -V(xc)+E(xc)   XCENC  =       -32.46281607
  PAW double counting   =      1931.94094408    -1819.52402732
  entropy T*S    EENTRO =        -0.00000000
  eigenvalues    EBANDS =      -105.11021945
  atomic energy  EATOM  =      1448.48460880
  Solvation  Ediel_sol  =         0.00000000
  ---------------------------------------------------
  free energy    TOTEN  =       -33.80018432 eV

  energy without entropy =      -33.80018432  energy(sigma->0) =      -33.80018432


--------------------------------------------------------------------------------------------------------




--------------------------------------- Iteration      1(  10)  ---------------------------------------


    POTLOK:  cpu time      0.0054: real time      0.0056
    SETDIJ:  cpu time      0.1373: real time      0.1382
     EDDAV:  cpu time      0.2094: real time      0.2106
       DOS:  cpu time      0.0003: real time      0.0003
    CHARGE:  cpu time      0.0037: real time      0.0037
    MIXING:  cpu time      0.0003: real time      0.0003
    --------------------------------------------
      LOOP:  cpu time      0.3564: real time      0.3587

 eigenvalue-minimisations  :  2960
 total energy-change (2. order) :-0.1127571E-03  (-0.3106219E-04)
 number of electron      39.9999972 magnetization 
 augmentation part       -7.3317745 magnetization 

 Broyden mixing:
  rms(total) = 0.23762E-02    rms(broyden)= 0.23762E-02
  rms(prec ) = 0.29432E-02
  weight for this iteration     100.00

 eigenvalues of (default mixing * dielectric matrix)
  average eigenvalue GAMMA=   1.7417
  2.6588  2.4388  1.1523  1.2292  1.2292

 Free energy of the ion-electron system (eV)
  ---------------------------------------------------
  alpha Z        PSCENC =        84.25164425
  Ewald energy   TEWEN  =     -1392.70956944
  -Hartree energ DENC   =      -148.70663843
  -exchange      EXHF   =         0.00000000
  -V(xc)+E(xc)   XCENC  =       -32.45896124
  PAW double counting   =      1925.84465348    -1813.42286232
  entropy T*S    EENTRO =        -0.00000000
  eigenvalues    EBANDS =      -105.08317218
  atomic energy  EATOM  =      1448.48460880
  Solvation  Ediel_sol  =         0.00000000
  ---------------------------------------------------
  free energy    TOTEN  =       -33.80029707 eV

  energy without entropy =      -33.80029707  energy(sigma->0) =      -33.80029707


--------------------------------------------------------------------------------------------------------




--------------------------------------- Iteration      1(  11)  ---------------------------------------


    POTLOK:  cpu time      0.0037: real time      0.0039
    SETDIJ:  cpu time      0.1370: real time      0.1373
     EDDAV:  cpu time      0.1864: real time      0.1873
       DOS:  cpu time      0.0003: real time      0.0003
    CHARGE:  cpu time      0.0035: real time      0.0035
    MIXING:  cpu time      0.0003: real time      0.0003
    --------------------------------------------
      LOOP:  cpu time      0.3313: real time      0.3326

 eigenvalue-minimisations  :  2896
 total energy-change (2. order) :-0.2779828E-04  (-0.4098550E-05)
 number of electron      39.9999972 magnetization 
 augmentation part       -7.3320280 magnetization 

 Broyden mixing:
  rms(total) = 0.12478E-02    rms(broyden)= 0.12477E-02
  rms(prec ) = 0.13879E-02
  weight for this iteration     100.00

 eigenvalues of (default mixing * dielectric matrix)
  average eigenvalue GAMMA=   1.7262
  2.4970  2.4970  2.0770  0.9457  1.1701  1.1701

 Free energy of the ion-electron system (eV)
  ---------------------------------------------------
  alpha Z        PSCENC =        84.25164425
  Ewald energy   TEWEN  =     -1392.70956944
  -Hartree energ DENC   =      -148.73098201
  -exchange      EXHF   =         0.00000000
  -V(xc)+E(xc)   XCENC  =       -32.45252243
  PAW double counting   =      1927.27659140    -1814.85515184
  entropy T*S    EENTRO =        -0.00000000
  eigenvalues    EBANDS =      -105.06494360
  atomic energy  EATOM  =      1448.48460880
  Solvation  Ediel_sol  =         0.00000000
  ---------------------------------------------------
  free energy    TOTEN  =       -33.80032487 eV

  energy without entropy =      -33.80032487  energy(sigma->0) =      -33.80032487


--------------------------------------------------------------------------------------------------------




--------------------------------------- Iteration      1(  12)  ---------------------------------------


    POTLOK:  cpu time      0.0037: real time      0.0038
    SETDIJ:  cpu time      0.1170: real time      0.1173
     EDDAV:  cpu time      0.2052: real time      0.2064
       DOS:  cpu time      0.0003: real time      0.0003
    --------------------------------------------
      LOOP:  cpu time      0.3262: real time      0.3279

 eigenvalue-minimisations  :  3344
 total energy-change (2. order) :-0.8227764E-06  (-0.6284762E-06)
 number of electron      39.9999972 magnetization 
 augmentation part       -7.3320280 magnetization 

 Free energy of the ion-electron system (eV)
  ---------------------------------------------------
  alpha Z        PSCENC =        84.25164425
  Ewald energy   TEWEN  =     -1392.70956944
  -Hartree energ DENC   =      -148.74500056
  -exchange      EXHF   =         0.00000000
  -V(xc)+E(xc)   XCENC  =       -32.45144456
  PAW double counting   =      1926.42453068    -1814.00283971
  entropy T*S    EENTRO =        -0.00000000
  eigenvalues    EBANDS =      -105.05225516
  atomic energy  EATOM  =      1448.48460880
  Solvation  Ediel_sol  =         0.00000000
  ---------------------------------------------------
  free energy    TOTEN  =       -33.80032569 eV

  energy without entropy =      -33.80032569  energy(sigma->0) =      -33.80032569


--------------------------------------------------------------------------------------------------------




 average (electrostatic) potential at core
  the test charge radii are     1.1631  1.0808
  (the norm of the test charge is              1.0000)
       1 -33.7766       2 -33.7766       3 -33.7766       4 -33.7766       5 -55.2610
       6 -55.2610       7 -55.2610       8 -55.2610
 
 
 
 E-fermi :   3.2744     XC(G=0):  -9.1104     alpha+bet : -8.3934

 Fermi energy:         3.2744454915

 k-point     1 :       0.0000    0.0000    0.0000
  band No.  band energies     occupation 
      1     -11.1855      2.00000
      2     -10.9049      2.00000
      3      -9.9664      2.00000
      4      -9.5579      2.00000
      5      -5.1646      2.00000
      6      -4.6578      2.00000
      7      -3.0895      2.00000
      8      -2.5874      2.00000
      9      -1.9701      2.00000
     10      -0.7480      2.00000
     11      -0.6465      2.00000
     12      -0.2595      2.00000
     13       0.1204      2.00000
     14       0.4540      2.00000
     15       1.1496      2.00000
     16       1.2781      2.00000
     17       1.7532      2.00000
     18       2.0439      2.00000
     19       2.1606      2.00000
     20       3.0332      2.00000
     21       3.9191      0.00000
     22       5.2093      0.00000
     23       5.4540      0.00000
     24       5.5530      0.00000
     25       5.8166      0.00000
     26       5.9780      0.00000
     27       6.3593      0.00000
     28       6.9377      0.00000
     29       7.7735      0.00000
     30       8.2063      0.00000
     31       8.2656      0.00000
     32       8.6136      0.00000

 k-point     2 :       0.1667    0.0000    0.0000
  band No.  band energies     occupation 
      1     -10.9915      2.00000
      2     -10.7250      2.00000
      3      -9.8454      2.00000
      4      -9.4869      2.00000
      5      -5.2732      2.00000
      6      -4.8129      2.00000
      7      -3.3002      2.00000
      8      -3.1260      2.00000
      9      -1.7779      2.00000
     10      -0.5397      2.00000
     11      -0.5136      2.00000
     12      -0.4927      2.00000
     13      -0.1050      2.00000
     14       0.0458      2.00000
     15       1.0115      2.00000
     16       1.0414      2.00000
     17       1.2940      2.00000
     18       2.0894      2.00000
     19       2.3172      2.00000
     20       2.8204      2.00000
     21       4.0842      0.00000
     22       4.9277      0.00000
     23       5.3957      0.00000
     24       5.5437      0.00000
     25       6.2110      0.00000
     26       6.3528      0.00000
     27       6.6166      0.00000
     28       6.6380      0.00000
     29       6.9343      0.00000
     30       7.9138      0.00000
     31       7.9230      0.00000
     32       8.1220      0.00000

 k-point     3 :       0.3333    0.0000    0.0000
  band No.  band energies     occupation 
      1     -10.4632      2.00000
      2     -10.2520      2.00000
      3      -9.6330      2.00000
      4      -9.4506      2.00000
      5      -5.5274      2.00000
      6      -5.1212      2.00000
      7      -4.3473      2.00000
      8      -4.0606      2.00000
      9      -1.2062      2.00000
     10      -0.7187      2.00000
     11      -0.5298      2.00000
     12      -0.1149      2.00000
     13       0.1596      2.00000
     14       0.3462      2.00000
     15       0.5770      2.00000
     16       1.0905      2.00000
     17       1.2662      2.00000
     18       1.9613      2.00000
     19       1.9968      2.00000
     20       2.0101      2.00000
     21       3.9014      0.00000
     22       4.3036      0.00000
     23       4.4152      0.00000
     24       4.9629      0.00000
     25       5.1843      0.00000
     26       5.6413      0.00000
     27       5.8767      0.00000
     28       6.2849      0.00000
     29       6.7754      0.00000
     30       6.8342      0.00000
     31       7.4858      0.00000
     32       7.8548      0.00000

 k-point     4 :       0.5000    0.0000    0.0000
  band No.  band energies     occupation 
      1      -9.8132      2.00000
      2      -9.8132      2.00000
      3      -9.7472      2.00000
      4      -9.7472      2.00000
      5      -5.3394      2.00000
      6      -5.3394      2.00000
      7      -4.9108      2.00000
      8      -4.9108      2.00000
      9      -0.6023      2.00000
     10      -0.6023      2.00000
     11      -0.1509      2.00000
     12      -0.1509      2.00000
     13       0.4488      2.00000
     14       0.4488      2.00000
     15       0.9126      2.00000
     16       0.9126      2.00000
     17       1.2559      2.00000
     18       1.2559      2.00000
     19       1.6708      2.00000
     20       1.6708      2.00000
     21       3.8912      0.00000
     22       3.8912      0.00000
     23       4.3579      0.00000
     24       4.3579      0.00000
     25       5.1143      0.00000
     26       5.1143      0.00000
     27       5.4867      0.00000
     28       5.4867      0.00000
     29       6.5813      0.00000
     30       6.5813      0.00000
     31       7.2143      0.00000
     32       7.2143      0.00000

 k-point     5 :       0.0000    0.1667    0.0000
  band No.  band energies     occupation 
      1     -11.0861      2.00000
      2     -10.8121      2.00000
      3     -10.0011      2.00000
      4      -9.6326      2.00000
      5      -5.3831      2.00000
      6      -4.6849      2.00000
      7      -3.7020      2.00000
      8      -3.0149      2.00000
      9      -1.7668      2.00000
     10      -0.4132      2.00000
     11      -0.0504      2.00000
     12       0.1850      2.00000
     13       0.2374      2.00000
     14       0.5571      2.00000
     15       1.2855      2.00000
     16       1.5552      2.00000
     17       1.5818      2.00000
     18       1.7041      2.00000
     19       2.4430      2.00000
     20       2.8582      2.00000
     21       4.0731      0.00000
     22       4.8855      0.00000
     23       5.4735      0.00000
     24       5.4929      0.00000
     25       5.6152      0.00000
     26       6.0443      0.00000
     27       6.3078      0.00000
     28       6.7572      0.00000
     29       7.2738      0.00000
     30       7.6556      0.00000
     31       8.2117      0.00000
     32       8.3457      0.00000

 k-point     6 :       0.1667    0.1667    0.0000
  band No.  band energies     occupation 
      1     -10.8969      2.00000
      2     -10.6374      2.00000
      3      -9.8793      2.00000
      4      -9.5535      2.00000
      5      -5.4060      2.00000
      6      -4.7737      2.00000
      7      -3.7821      2.00000
      8      -3.3276      2.00000
      9      -1.6115      2.00000
     10      -0.9629      2.00000
     11      -0.6228      2.00000
     12      -0.1926      2.00000
     13       0.5158      2.00000
     14       0.5683      2.00000
     15       0.7427      2.00000
     16       0.9626      2.00000
     17       1.6798      2.00000
     18       1.7179      2.00000
     19       2.4281      2.00000
     20       2.7314      2.00000
     21       4.2092      0.00000
     22       4.9186      0.00000
     23       5.2729      0.00000
     24       5.4361      0.00000
     25       5.9347      0.00000
     26       6.1624      0.00000
     27       6.7295      0.00000
     28       6.8937      0.00000
     29       7.1928      0.00000
     30       7.4046      0.00000
     31       7.6658      0.00000
     32       8.4906      0.00000

 k-point     7 :       0.1667   -0.1667    0.0000
  band No.  band energies     occupation 
      1     -10.8969      2.00000
      2     -10.6374      2.00000
      3      -9.8793      2.00000
      4      -9.5535      2.00000
      5      -5.4060      2.00000
      6      -4.7737      2.00000
      7      -3.7821      2.00000
      8      -3.3276      2.00000
      9      -1.6115      2.00000
     10      -0.9629      2.00000
     11      -0.6228      2.00000
     12      -0.1926      2.00000
     13       0.5158      2.00000
     14       0.5683      2.00000
     15       0.7427      2.00000
     16       0.9626      2.00000
     17       1.6798      2.00000
     18       1.7179      2.00000
     19       2.4281      2.00000
     20       2.7314      2.00000
     21       4.2092      0.00000
     22       4.9186      0.00000
     23       5.2729      0.00000
     24       5.4361      0.00000
     25       5.9347      0.00000
     26       6.1624      0.00000
     27       6.7295      0.00000
     28       6.8937      0.00000
     29       7.1928      0.00000
     30       7.4046      0.00000
     31       7.6658      0.00000
     32       8.4906      0.00000

 k-point     8 :       0.3333    0.1667    0.0000
  band No.  band energies     occupation 
      1     -10.3872      2.00000
      2     -10.1845      2.00000
      3      -9.6551      2.00000
      4      -9.4818      2.00000
      5      -5.4958      2.00000
      6      -5.0298      2.00000
      7      -4.3911      2.00000
      8      -4.1742      2.00000
      9      -1.3390      2.00000
     10      -1.1110      2.00000
     11      -0.9953      2.00000
     12      -0.4430      2.00000
     13       0.3091      2.00000
     14       0.5865      2.00000
     15       0.6333      2.00000
     16       0.8564      2.00000
     17       1.0779      2.00000
     18       1.8845      2.00000
     19       1.9550      2.00000
     20       1.9732      2.00000
     21       3.9882      0.00000
     22       4.6031      0.00000
     23       4.6872      0.00000
     24       4.9402      0.00000
     25       5.7859      0.00000
     26       5.9885      0.00000
     27       6.5479      0.00000
     28       6.5640      0.00000
     29       7.0322      0.00000
     30       7.0610      0.00000
     31       7.9316      0.00000
     32       8.0787      0.00000

 k-point     9 :       0.3333   -0.1667    0.0000
  band No.  band energies     occupation 
      1     -10.3872      2.00000
      2     -10.1845      2.00000
      3      -9.6551      2.00000
      4      -9.4818      2.00000
      5      -5.4958      2.00000
      6      -5.0298      2.00000
      7      -4.3911      2.00000
      8      -4.1742      2.00000
      9      -1.3390      2.00000
     10      -1.1110      2.00000
     11      -0.9953      2.00000
     12      -0.4430      2.00000
     13       0.3091      2.00000
     14       0.5865      2.00000
     15       0.6333      2.00000
     16       0.8564      2.00000
     17       1.0779      2.00000
     18       1.8845      2.00000
     19       1.9550      2.00000
     20       1.9732      2.00000
     21       3.9882      0.00000
     22       4.6031      0.00000
     23       4.6872      0.00000
     24       4.9402      0.00000
     25       5.7859      0.00000
     26       5.9885      0.00000
     27       6.5479      0.00000
     28       6.5640      0.00000
     29       7.0322      0.00000
     30       7.0610      0.00000
     31       7.9316      0.00000
     32       8.0787      0.00000

 k-point    10 :       0.5000    0.1667    0.0000
  band No.  band energies     occupation 
      1      -9.7819      2.00000
      2      -9.7819      2.00000
      3      -9.7240      2.00000
      4      -9.7240      2.00000
      5      -5.2650      2.00000
      6      -5.2650      2.00000
      7      -4.8977      2.00000
      8      -4.8977      2.00000
      9      -0.8996      2.00000
     10      -0.8996      2.00000
     11      -0.4954      2.00000
     12      -0.4954      2.00000
     13      -0.0158      2.00000
     14      -0.0158      2.00000
     15       0.5822      2.00000
     16       0.5822      2.00000
     17       1.2375      2.00000
     18       1.2375      2.00000
     19       1.9591      2.00000
     20       1.9591      2.00000
     21       3.8886      0.00000
     22       3.8886      0.00000
     23       4.9965      0.00000
     24       4.9965      0.00000
     25       5.8195      0.00000
     26       5.8195      0.00000
     27       6.3151      0.00000
     28       6.3151      0.00000
     29       6.9201      0.00000
     30       6.9201      0.00000
     31       7.0852      0.00000
     32       7.0852      0.00000

 k-point    11 :       0.0000    0.3333    0.0000
  band No.  band energies     occupation 
      1     -10.8132      2.00000
      2     -10.5561      2.00000
      3     -10.1497      2.00000
      4      -9.8623      2.00000
      5      -5.5825      2.00000
      6      -4.6803      2.00000
      7      -4.6619      2.00000
      8      -3.7615      2.00000
      9      -1.3141      2.00000
     10       0.0590      2.00000
     11       0.5567      2.00000
     12       0.8339      2.00000
     13       0.8394      2.00000
     14       0.9056      2.00000
     15       1.2292      2.00000
     16       1.2980      2.00000
     17       1.5140      2.00000
     18       2.3804      2.00000
     19       2.4353      2.00000
     20       2.7671      2.00000
     21       4.1707      0.00000
     22       4.6183      0.00000
     23       4.6837      0.00000
     24       5.1337      0.00000
     25       5.6532      0.00000
     26       5.7375      0.00000
     27       6.3835      0.00000
     28       6.5331      0.00000
     29       6.5975      0.00000
     30       7.2475      0.00000
     31       7.3947      0.00000
     32       8.6071      0.00000

 k-point    12 :       0.1667    0.3333    0.0000
  band No.  band energies     occupation 
      1     -10.6388      2.00000
      2     -10.3972      2.00000
      3     -10.0198      2.00000
      4      -9.7594      2.00000
      5      -5.5025      2.00000
      6      -4.6675      2.00000
      7      -4.6031      2.00000
      8      -3.8498      2.00000
      9      -1.1602      2.00000
     10      -0.9495      2.00000
     11      -0.5769      2.00000
     12      -0.0140      2.00000
     13       0.2107      2.00000
     14       0.5686      2.00000
     15       0.9894      2.00000
     16       1.4373      2.00000
     17       1.7317      2.00000
     18       1.8939      2.00000
     19       2.4828      2.00000
     20       2.5010      2.00000
     21       4.4054      0.00000
     22       5.0398      0.00000
     23       5.3240      0.00000
     24       5.4755      0.00000
     25       5.8184      0.00000
     26       6.0122      0.00000
     27       6.4889      0.00000
     28       7.0930      0.00000
     29       7.1148      0.00000
     30       7.3385      0.00000
     31       7.7246      0.00000
     32       8.4746      0.00000

 k-point    13 :       0.1667   -0.3333    0.0000
  band No.  band energies     occupation 
      1     -10.6388      2.00000
      2     -10.3972      2.00000
      3     -10.0198      2.00000
      4      -9.7594      2.00000
      5      -5.5025      2.00000
      6      -4.6675      2.00000
      7      -4.6031      2.00000
      8      -3.8498      2.00000
      9      -1.1602      2.00000
     10      -0.9495      2.00000
     11      -0.5769      2.00000
     12      -0.0140      2.00000
     13       0.2107      2.00000
     14       0.5686      2.00000
     15       0.9894      2.00000
     16       1.4373      2.00000
     17       1.7317      2.00000
     18       1.8939      2.00000
     19       2.4828      2.00000
     20       2.5010      2.00000
     21       4.4054      0.00000
     22       5.0398      0.00000
     23       5.3240      0.00000
     24       5.4755      0.00000
     25       5.8184      0.00000
     26       6.0122      0.00000
     27       6.4889      0.00000
     28       7.0930      0.00000
     29       7.1148      0.00000
     30       7.3385      0.00000
     31       7.7246      0.00000
     32       8.4746      0.00000

 k-point    14 :       0.3333    0.3333    0.0000
  band No.  band energies     occupation 
      1     -10.1860      2.00000
      2     -10.0058      2.00000
      3      -9.7469      2.00000
      4      -9.5902      2.00000
      5      -5.3663      2.00000
      6      -4.8063      2.00000
      7      -4.6727      2.00000
      8      -4.3478      2.00000
      9      -1.7909      2.00000
     10      -1.3114      2.00000
     11      -1.1650      2.00000
     12      -0.7790      2.00000
     13      -0.3753      2.00000
     14       0.2337      2.00000
     15       0.2920      2.00000
     16       0.8430      2.00000
     17       1.0236      2.00000
     18       1.5407      2.00000
     19       1.9840      2.00000
     20       2.1019      2.00000
     21       4.0284      0.00000
     22       5.4611      0.00000
     23       5.8949      0.00000
     24       5.9538      0.00000
     25       6.2346      0.00000
     26       6.3704      0.00000
     27       6.9310      0.00000
     28       7.3899      0.00000
     29       7.6662      0.00000
     30       7.9273      0.00000
     31       7.9858      0.00000
     32       9.0900      0.00000

 k-point    15 :       0.3333   -0.3333    0.0000
  band No.  band energies     occupation 
      1     -10.1860      2.00000
      2     -10.0058      2.00000
      3      -9.7469      2.00000
      4      -9.5902      2.00000
      5      -5.3663      2.00000
      6      -4.8063      2.00000
      7      -4.6727      2.00000
      8      -4.3478      2.00000
      9      -1.7909      2.00000
     10      -1.3114      2.00000
     11      -1.1650      2.00000
     12      -0.7790      2.00000
     13      -0.3753      2.00000
     14       0.2337      2.00000
     15       0.2920      2.00000
     16       0.8430      2.00000
     17       1.0236      2.00000
     18       1.5407      2.00000
     19       1.9840      2.00000
     20       2.1019      2.00000
     21       4.0284      0.00000
     22       5.4611      0.00000
     23       5.8949      0.00000
     24       5.9538      0.00000
     25       6.2346      0.00000
     26       6.3704      0.00000
     27       6.9310      0.00000
     28       7.3899      0.00000
     29       7.6662      0.00000
     30       7.9273      0.00000
     31       7.9858      0.00000
     32       9.0899      0.00000

 k-point    16 :       0.5000    0.3333    0.0000
  band No.  band energies     occupation 
      1      -9.7145      2.00000
      2      -9.7145      2.00000
      3      -9.6787      2.00000
      4      -9.6787      2.00000
      5      -5.0951      2.00000
      6      -5.0951      2.00000
      7      -4.8866      2.00000
      8      -4.8866      2.00000
      9      -1.4433      2.00000
     10      -1.4433      2.00000
     11      -0.9924      2.00000
     12      -0.9924      2.00000
     13      -0.5431      2.00000
     14      -0.5431      2.00000
     15       0.1060      2.00000
     16       0.1060      2.00000
     17       1.0616      2.00000
     18       1.0616      2.00000
     19       1.8558      2.00000
     20       1.8558      2.00000
     21       4.8328      0.00000
     22       4.8328      0.00000
     23       6.1749      0.00000
     24       6.1749      0.00000
     25       6.6236      0.00000
     26       6.6236      0.00000
     27       7.0661      0.00000
     28       7.0661      0.00000
     29       7.3663      0.00000
     30       7.3663      0.00000
     31       8.5350      0.00000
     32       8.5350      0.00000

 k-point    17 :       0.0000    0.5000    0.0000
  band No.  band energies     occupation 
      1     -10.4525      2.00000
      2     -10.4525      2.00000
      3     -10.2050      2.00000
      4     -10.2050      2.00000
      5      -5.3519      2.00000
      6      -5.3519      2.00000
      7      -4.3839      2.00000
      8      -4.3839      2.00000
      9      -0.6167      2.00000
     10      -0.6167      2.00000
     11       0.9618      2.00000
     12       0.9618      2.00000
     13       1.1888      2.00000
     14       1.1888      2.00000
     15       1.4907      2.00000
     16       1.4907      2.00000
     17       1.9021      2.00000
     18       1.9021      2.00000
     19       2.5186      2.00000
     20       2.5186      2.00000
     21       4.3644      0.00000
     22       4.3644      0.00000
     23       4.9925      0.00000
     24       4.9925      0.00000
     25       5.5731      0.00000
     26       5.5731      0.00000
     27       5.7480      0.00000
     28       5.7480      0.00000
     29       6.7344      0.00000
     30       6.7344      0.00000
     31       8.2680      0.00000
     32       8.2680      0.00000

 k-point    18 :       0.1667    0.5000    0.0000
  band No.  band energies     occupation 
      1     -10.3014      2.00000
      2     -10.3014      2.00000
      3     -10.0717      2.00000
      4     -10.0717      2.00000
      5      -5.2443      2.00000
      6      -5.2443      2.00000
      7      -4.3647      2.00000
      8      -4.3647      2.00000
      9      -0.7027      2.00000
     10      -0.7027      2.00000
     11      -0.2955      2.00000
     12      -0.2955      2.00000
     13      -0.0680      2.00000
     14      -0.0680      2.00000
     15       1.3565      2.00000
     16       1.3565      2.00000
     17       2.0503      2.00000
     18       2.0503      2.00000
     19       2.4701      2.00000
     20       2.4701      2.00000
     21       4.5922      0.00000
     22       4.5922      0.00000
     23       5.5306      0.00000
     24       5.5306      0.00000
     25       6.2726      0.00000
     26       6.2726      0.00000
     27       6.5982      0.00000
     28       6.5982      0.00000
     29       7.1266      0.00000
     30       7.1266      0.00000
     31       8.0884      0.00000
     32       8.0884      0.00000

 k-point    19 :       0.3333    0.5000    0.0000
  band No.  band energies     occupation 
      1      -9.9388      2.00000
      2      -9.9388      2.00000
      3      -9.7812      2.00000
      4      -9.7812      2.00000
      5      -5.0797      2.00000
      6      -5.0797      2.00000
      7      -4.5507      2.00000
      8      -4.5507      2.00000
      9      -1.6921      2.00000
     10      -1.6921      2.00000
     11      -1.0703      2.00000
     12      -1.0703      2.00000
     13      -0.3373      2.00000
     14      -0.3373      2.00000
     15       0.5594      2.00000
     16       0.5594      2.00000
     17       1.0492      2.00000
     18       1.0492      2.00000
     19       2.0661      2.00000
     20       2.0661      2.00000
     21       4.9392      0.00000
     22       4.9392      0.00000
     23       6.4833      0.00000
     24       6.4833      0.00000
     25       6.9557      0.00000
     26       6.9557      0.00000
     27       7.4278      0.00000
     28       7.4278      0.00000
     29       7.8491      0.00000
     30       7.8491      0.00000
     31       8.7859      0.00000
     32       8.7859      0.00000

 k-point    20 :       0.5000    0.5000    0.0000
  band No.  band energies     occupation 
      1      -9.6748      2.00000
      2      -9.6748      2.00000
      3      -9.6604      2.00000
      4      -9.6604      2.00000
      5      -4.9839      2.00000
      6      -4.9839      2.00000
      7      -4.9035      2.00000
      8      -4.9035      2.00000
      9      -1.6308      2.00000
     10      -1.6308      2.00000
     11      -1.3037      2.00000
     12      -1.3037      2.00000
     13      -0.5934      2.00000
     14      -0.5934      2.00000
     15      -0.2757      2.00000
     16      -0.2757      2.00000
     17       1.1557      2.00000
     18       1.1557      2.00000
[...]
     32       7.6979      0.00000

 k-point    32 :       0.1667    0.3333    0.5000
  band No.  band energies     occupation 
      1     -10.5418      2.00000
      2     -10.5418      2.00000
      3      -9.8664      2.00000
      4      -9.8664      2.00000
      5      -5.2109      2.00000
      6      -5.2109      2.00000
      7      -4.1418      2.00000
      8      -4.1418      2.00000
      9      -0.8911      2.00000
     10      -0.8911      2.00000
     11      -0.2816      2.00000
     12      -0.2816      2.00000
     13       0.2533      2.00000
     14       0.2533      2.00000
     15       1.1964      2.00000
     16       1.1964      2.00000
     17       1.8954      2.00000
     18       1.8954      2.00000
     19       2.2013      2.00000
     20       2.2013      2.00000
     21       5.1104      0.00000
     22       5.1104      0.00000
     23       5.4460      0.00000
     24       5.4460      0.00000
     25       6.1403      0.00000
     26       6.1403      0.00000
     27       6.3971      0.00000
     28       6.3971      0.00000
     29       7.2461      0.00000
     30       7.2461      0.00000
     31       7.8415      0.00000
     32       7.8415      0.00000

 k-point    33 :       0.1667   -0.3333    0.5000
  band No.  band energies     occupation 
      1     -10.5418      2.00000
      2     -10.5418      2.00000
      3      -9.8664      2.00000
      4      -9.8664      2.00000
      5      -5.2109      2.00000
      6      -5.2109      2.00000
      7      -4.1418      2.00000
      8      -4.1418      2.00000
      9      -0.8911      2.00000
     10      -0.8911      2.00000
     11      -0.2816      2.00000
     12      -0.2816      2.00000
     13       0.2533      2.00000
     14       0.2533      2.00000
     15       1.1964      2.00000
     16       1.1964      2.00000
     17       1.8954      2.00000
     18       1.8954      2.00000
     19       2.2013      2.00000
     20       2.2013      2.00000
     21       5.1104      0.00000
     22       5.1104      0.00000
     23       5.4460      0.00000
     24       5.4460      0.00000
     25       6.1403      0.00000
     26       6.1403      0.00000
     27       6.3971      0.00000
     28       6.3971      0.00000
     29       7.2461      0.00000
     30       7.2461      0.00000
     31       7.8415      0.00000
     32       7.8415      0.00000

 k-point    34 :       0.3333    0.3333    0.5000
  band No.  band energies     occupation 
      1     -10.1123      2.00000
      2     -10.1123      2.00000
      3      -9.6525      2.00000
      4      -9.6525      2.00000
      5      -5.1492      2.00000
      6      -5.1492      2.00000
      7      -4.4604      2.00000
      8      -4.4604      2.00000
      9      -1.5913      2.00000
     10      -1.5913      2.00000
     11      -0.9028      2.00000
     12      -0.9028      2.00000
     13      -0.1244      2.00000
     14      -0.1244      2.00000
     15       0.5748      2.00000
     16       0.5748      2.00000
     17       1.2591      2.00000
     18       1.2591      2.00000
     19       2.0087      2.00000
     20       2.0087      2.00000
     21       5.0982      0.00000
     22       5.0982      0.00000
     23       5.7563      0.00000
     24       5.7563      0.00000
     25       6.0630      0.00000
     26       6.0630      0.00000
     27       7.0893      0.00000
     28       7.0893      0.00000
     29       7.4528      0.00000
     30       7.4528      0.00000
     31       8.8315      0.00000
     32       8.8315      0.00000

 k-point    35 :       0.3333   -0.3333    0.5000
  band No.  band energies     occupation 
      1     -10.1123      2.00000
      2     -10.1123      2.00000
      3      -9.6525      2.00000
      4      -9.6525      2.00000
      5      -5.1492      2.00000
      6      -5.1492      2.00000
      7      -4.4604      2.00000
      8      -4.4604      2.00000
      9      -1.5913      2.00000
     10      -1.5913      2.00000
     11      -0.9028      2.00000
     12      -0.9028      2.00000
     13      -0.1244      2.00000
     14      -0.1244      2.00000
     15       0.5748      2.00000
     16       0.5748      2.00000
     17       1.2591      2.00000
     18       1.2591      2.00000
     19       2.0087      2.00000
     20       2.0087      2.00000
     21       5.0982      0.00000
     22       5.0982      0.00000
     23       5.7563      0.00000
     24       5.7563      0.00000
     25       6.0630      0.00000
     26       6.0630      0.00000
     27       7.0893      0.00000
     28       7.0893      0.00000
     29       7.4528      0.00000
     30       7.4528      0.00000
     31       8.8315      0.00000
     32       8.8315      0.00000

 k-point    36 :       0.5000    0.3333    0.5000
  band No.  band energies     occupation 
      1      -9.6968      2.00000
      2      -9.6968      2.00000
      3      -9.6968      2.00000
      4      -9.6968      2.00000
      5      -4.9946      2.00000
      6      -4.9946      2.00000
      7      -4.9946      2.00000
      8      -4.9946      2.00000
      9      -1.1840      2.00000
     10      -1.1840      2.00000
     11      -1.1840      2.00000
     12      -1.1840      2.00000
     13      -0.3730      2.00000
     14      -0.3730      2.00000
     15      -0.3730      2.00000
     16      -0.3730      2.00000
     17       1.6081      2.00000
     18       1.6081      2.00000
     19       1.6081      2.00000
     20       1.6081      2.00000
     21       5.4536      0.00000
     22       5.4536      0.00000
     23       5.4536      0.00000
     24       5.4536      0.00000
     25       6.4927      0.00000
     26       6.4927      0.00000
     27       6.4927      0.00000
     28       6.4927      0.00000
     29       8.0864      0.00000
     30       8.0864      0.00000
     31       8.0864      0.00000
     32       8.0864      0.00000

 k-point    37 :       0.0000    0.5000    0.5000
  band No.  band energies     occupation 
      1     -10.4479      2.00000
      2     -10.4479      2.00000
      3     -10.2110      2.00000
      4     -10.2110      2.00000
      5      -5.2562      2.00000
      6      -5.2562      2.00000
      7      -4.5439      2.00000
      8      -4.5439      2.00000
      9       0.0790      2.00000
     10       0.0790      2.00000
     11       0.4406      2.00000
     12       0.4406      2.00000
     13       0.9680      2.00000
     14       0.9680      2.00000
     15       1.1811      2.00000
     16       1.1811      2.00000
     17       2.1938      2.00000
     18       2.1938      2.00000
     19       2.4687      2.00000
     20       2.4687      2.00000
     21       4.4066      0.00000
     22       4.4066      0.00000
     23       4.9129      0.00000
     24       4.9129      0.00000
     25       5.7988      0.00000
     26       5.7988      0.00000
     27       6.3719      0.00000
     28       6.3719      0.00000
     29       6.6586      0.00000
     30       6.6586      0.00000
     31       7.5521      0.00000
     32       7.5521      0.00000

 k-point    38 :       0.1667    0.5000    0.5000
  band No.  band energies     occupation 
      1     -10.2971      2.00000
      2     -10.2971      2.00000
      3     -10.0772      2.00000
      4     -10.0772      2.00000
      5      -5.1636      2.00000
      6      -5.1636      2.00000
      7      -4.4921      2.00000
      8      -4.4921      2.00000
      9      -0.5506      2.00000
     10      -0.5506      2.00000
     11      -0.4060      2.00000
     12      -0.4060      2.00000
     13       0.5568      2.00000
     14       0.5568      2.00000
     15       0.6365      2.00000
     16       0.6365      2.00000
     17       2.1435      2.00000
     18       2.1435      2.00000
     19       2.1683      2.00000
     20       2.1683      2.00000
     21       5.3712      0.00000
     22       5.3712      0.00000
     23       5.5150      0.00000
     24       5.5150      0.00000
     25       6.2301      0.00000
     26       6.2301      0.00000
     27       6.4063      0.00000
     28       6.4063      0.00000
     29       7.0725      0.00000
     30       7.0725      0.00000
     31       7.6461      0.00000
     32       7.6461      0.00000

 k-point    39 :       0.3333    0.5000    0.5000
  band No.  band energies     occupation 
      1      -9.9357      2.00000
      2      -9.9357      2.00000
      3      -9.7848      2.00000
      4      -9.7848      2.00000
      5      -5.0425      2.00000
      6      -5.0425      2.00000
      7      -4.5987      2.00000
      8      -4.5987      2.00000
      9      -1.4662      2.00000
     10      -1.4662      2.00000
     11      -1.4132      2.00000
     12      -1.4132      2.00000
     13       0.0711      2.00000
     14       0.0711      2.00000
     15       0.1360      2.00000
     16       0.1360      2.00000
     17       1.4901      2.00000
     18       1.4901      2.00000
     19       1.7038      2.00000
     20       1.7038      2.00000
     21       5.4972      0.00000
     22       5.4972      0.00000
     23       6.0219      0.00000
     24       6.0219      0.00000
     25       6.7844      0.00000
     26       6.7844      0.00000
     27       6.8213      0.00000
     28       6.8213      0.00000
     29       8.4826      0.00000
     30       8.4826      0.00000
     31       8.5889      0.00000
     32       8.5889      0.00000

 k-point    40 :       0.5000    0.5000    0.5000
  band No.  band energies     occupation 
      1      -9.6676      2.00000
      2      -9.6676      2.00000
      3      -9.6676      2.00000
      4      -9.6676      2.00000
      5      -4.9468      2.00000
      6      -4.9468      2.00000
      7      -4.9468      2.00000
      8      -4.9468      2.00000
      9      -1.3100      2.00000
     10      -1.3100      2.00000
     11      -1.3100      2.00000
     12      -1.3100      2.00000
     13      -0.7514      2.00000
     14      -0.7514      2.00000
     15      -0.7514      2.00000
     16      -0.7514      2.00000
     17       1.6813      2.00000
     18       1.6813      2.00000
     19       1.6813      2.00000
     20       1.6813      2.00000
     21       5.4592      0.00000
     22       5.4592      0.00000
     23       5.4592      0.00000
     24       5.4592      0.00000
     25       7.2057      0.00000
     26       7.2057      0.00000
     27       7.2057      0.00000
     28       7.2057      0.00000
     29       9.0546      0.00000
     30       9.0546      0.00000
     31       9.0546      0.00000
     32       9.0546      0.00000


--------------------------------------------------------------------------------------------------------


 soft charge-density along one line, spin component            1
         0         1         2         3         4         5         6         7         8         9
 total charge-density along one line
 
 pseudopotential strength for first ion, spin component:            1
 14.608  18.228   0.043   0.047   0.000   0.077   0.085   0.000
 18.228  22.760   0.054   0.060   0.000   0.098   0.108   0.000
  0.043   0.054   3.239  -0.003   0.000   5.515  -0.005   0.000
  0.047   0.060  -0.003   3.237  -0.000  -0.005   5.512  -0.000
  0.000   0.000   0.000  -0.000   3.241   0.000  -0.000   5.518
  0.077   0.098   5.515  -0.005   0.000   9.448  -0.009   0.000
  0.085   0.108  -0.005   5.512  -0.000  -0.009   9.443  -0.000
  0.000   0.000   0.000  -0.000   5.518   0.000  -0.000   9.454
  0.000   0.000   0.000   0.000   0.007   0.000   0.000   0.013
 -0.006  -0.008   0.012   0.014   0.000   0.022   0.024   0.000
 -0.003  -0.004  -0.003   0.013  -0.000  -0.007   0.023  -0.000
 -0.000  -0.000   0.000  -0.000   0.012   0.000  -0.000   0.022
  0.002   0.003  -0.013   0.000   0.000  -0.023   0.000   0.000
 total augmentation occupancy for first ion, spin component:            1
  2.714  -0.681   0.354   0.374  -0.000  -0.067  -0.068   0.000  -0.000  -0.008  -0.007  -0.000   0.009
 -0.681   0.635  -0.455  -0.492   0.000   0.073   0.077  -0.000   0.000   0.005   0.005   0.000  -0.005
  0.354  -0.455   1.265   0.082  -0.000  -0.207  -0.002   0.000   0.000   0.052  -0.106   0.000  -0.002
  0.374  -0.492   0.082   1.294  -0.000  -0.002  -0.207   0.000   0.000  -0.024   0.094   0.000  -0.007
 -0.000   0.000  -0.000  -0.000   1.261   0.000  -0.000  -0.217   0.153   0.000   0.000   0.043   0.000
 -0.067   0.073  -0.207  -0.002   0.000   0.038  -0.001  -0.000  -0.000  -0.009   0.018  -0.000   0.001
 -0.068   0.077  -0.002  -0.207  -0.000  -0.001   0.037  -0.000  -0.000   0.004  -0.016  -0.000   0.001
  0.000  -0.000   0.000   0.000  -0.217  -0.000  -0.000   0.042  -0.027   0.000   0.000  -0.007  -0.000
 -0.000   0.000   0.000   0.000   0.153  -0.000  -0.000  -0.027   0.030   0.000  -0.000   0.004  -0.000
 -0.008   0.005   0.052  -0.024   0.000  -0.009   0.004   0.000   0.000   0.012  -0.008   0.000   0.002
 -0.007   0.005  -0.106   0.094   0.000   0.018  -0.016   0.000  -0.000  -0.008   0.028   0.000  -0.002
 -0.000   0.000   0.000   0.000   0.043  -0.000  -0.000  -0.007   0.004   0.000   0.000   0.010  -0.000
  0.009  -0.005  -0.002  -0.007   0.000   0.001   0.001  -0.000  -0.000   0.002  -0.002  -0.000   0.009


------------------------ aborting loop because EDIFF is reached ----------------------------------------


    CHARGE:  cpu time      0.0034: real time      0.0034
    FORLOC:  cpu time      0.0002: real time      0.0002
    FORNL :  cpu time      0.0193: real time      0.0194
    STRESS:  cpu time      0.1912: real time      0.1918
    FORCOR:  cpu time      0.0040: real time      0.0040
    FORHAR:  cpu time      0.0010: real time      0.0010
    MIXING:  cpu time      0.0005: real time      0.0005
    OFIELD:  cpu time      0.0000: real time      0.0000

  FORCE on cell =-STRESS in cart. coord.  units (eV):
  Direction    XX          YY          ZZ          XY          YZ          ZX
  --------------------------------------------------------------------------------------
  Alpha Z    84.25164    84.25164    84.25164
  Ewald    -413.95323  -473.36380  -505.39443     0.00000    -0.00000     0.00000
  Hartree    74.40444    45.69930    28.64855    -0.00000     0.00000     0.00000
  E(xc)    -141.01759  -141.08315  -141.21837     0.00000    -0.00000    -0.00000
  Local    -221.53563  -139.79375   -95.30522     0.00000    -0.00000     0.00000
  n-local   240.77929   240.46472   241.19952    -0.00000    -0.00000    -0.00000
  augment   -11.38053   -11.78914   -12.17373    -0.00000    -0.00000     0.00000
  Kinetic   389.30068   395.26512   399.94576     0.00000     0.00000     0.00000
  Fock        0.00000     0.00000     0.00000     0.00000     0.00000     0.00000
  -------------------------------------------------------------------------------------
  Total       0.84909    -0.34906    -0.04628     0.00000    -0.00000     0.00000
  in kB       6.76418    -2.78076    -0.36869     0.00001    -0.00000     0.00000
  external pressure =        1.20 kB  Pullay stress =        0.00 kB


 VOLUME and BASIS-vectors are now :
 -----------------------------------------------------------------------------
  energy-cutoff  :      360.00
  volume of cell :      201.12
      direct lattice vectors                 reciprocal lattice vectors
     3.800000000  0.000000000  0.000000000     0.263157895  0.000000000  0.000000000
     0.000000000  4.750000000  0.000000000     0.000000000  0.210526316  0.000000000
     0.000000000  0.000000000 11.142221000     0.000000000  0.000000000  0.089748713

  length of vectors
     3.800000000  4.750000000 11.142221000     0.263157895  0.210526316  0.089748713


 FORCES acting on ions
    electron-ion (+dipol)            ewald-force                    non-local-force                 convergence-correction
 -----------------------------------------------------------------------------------------------
   -.155E-06 0.182E+02 0.282E+02   -.434E-14 -.209E+02 -.312E+02   -.125E-07 0.265E+01 0.302E+01   0.172E-06 0.472E-04 -.135E-02
   0.563E-06 0.182E+02 -.282E+02   0.109E-14 -.209E+02 0.312E+02   -.223E-06 0.265E+01 -.302E+01   -.350E-06 0.469E-04 0.135E-02
   0.364E-06 -.182E+02 -.282E+02   0.225E-14 0.209E+02 0.312E+02   -.840E-07 -.265E+01 -.302E+01   -.268E-06 -.468E-04 0.135E-02
   -.107E-05 -.182E+02 0.282E+02   0.492E-14 0.209E+02 -.312E+02   0.505E-06 -.265E+01 0.302E+01   0.598E-06 -.478E-04 -.135E-02
   -.224E-05 -.167E+02 -.252E+02   -.229E-15 0.185E+02 0.269E+02   0.876E-06 -.170E+01 -.165E+01   0.151E-05 0.340E-03 0.292E-02
   -.514E-06 -.167E+02 0.252E+02   0.705E-15 0.185E+02 -.269E+02   0.447E-06 -.170E+01 0.165E+01   0.769E-08 0.340E-03 -.292E-02
   0.318E-05 0.167E+02 0.252E+02   -.506E-14 -.185E+02 -.269E+02   -.123E-05 0.170E+01 0.165E+01   -.189E-05 -.341E-03 -.292E-02
   -.536E-06 0.167E+02 -.252E+02   0.223E-14 -.185E+02 0.269E+02   0.172E-06 0.170E+01 -.165E+01   0.512E-06 -.337E-03 0.292E-02
 -----------------------------------------------------------------------------------------------
   -.402E-06 -.317E-05 0.448E-05   0.156E-14 0.178E-13 0.355E-14   0.447E-06 0.959E-06 -.183E-05   0.296E-06 0.212E-05 -.191E-05
 
 
 POSITION                                       TOTAL-FORCE (eV/Angst)
 -----------------------------------------------------------------------------------
      0.95000      0.56219      1.37842        -0.000000     -0.023814      0.016774
      2.85000      2.93719      4.19269        -0.000000     -0.023814     -0.016773
      2.85000      4.18781      9.76380        -0.000000      0.023814     -0.016774
      0.95000      1.81281      6.94953        -0.000000      0.023814      0.016773
      0.95000      4.66310      3.90031         0.000000      0.046611     -0.005458
      2.85000      2.28810      1.67080        -0.000000      0.046611      0.005459
      2.85000      0.08690      7.24191         0.000000     -0.046611      0.005458
      0.95000      2.46190      9.47142         0.000000     -0.046611     -0.005459
 -----------------------------------------------------------------------------------
    total drift:                                0.000000     -0.000000      0.000001


--------------------------------------------------------------------------------------------------------



  FREE ENERGIE OF THE ION-ELECTRON SYSTEM (eV)
  ---------------------------------------------------
  free  energy   TOTEN  =       -33.80032569 eV

  energy  without entropy=      -33.80032569  energy(sigma->0) =      -33.80032569
 


--------------------------------------------------------------------------------------------------------


    POTLOK:  cpu time      0.1133: real time      0.1137


--------------------------------------------------------------------------------------------------------


     LOOP+:  cpu time      4.8709: real time      4.9096
    4ORBIT:  cpu time      0.0000: real time      0.0000

 total amount of memory used by VASP MPI-rank0    39072. kBytes
=======================================================================

   base      :      30000. kBytes
   nonl-proj :       7028. kBytes
   fftplans  :        368. kBytes
   grid      :        555. kBytes
   one-center:         16. kBytes
   wavefun   :       1105. kBytes
 
  
  
 General timing and accounting informations for this job:
 ========================================================
  
                  Total CPU time used (sec):        5.677
                            User time (sec):        5.353
                          System time (sec):        0.324
                         Elapsed time (sec):        7.134
  
                   Maximum memory used (kb):      190728.
                   Average memory used (kb):          N/A
  
                          Minor page faults:        20878
                          Major page faults:           40
                 Voluntary context switches:         3689
