 running  128 mpi-ranks, with    1 threads/rank, on    2 nodes
 distrk:  each k-point on   64 cores,    2 groups
 distr:  one band on    4 cores,   16 groups
 vasp.6.4.2 20Jul23 (build Oct 12 2023 10:31:02) complex                         
 POSCAR found type information on POSCAR GeSe
 POSCAR found :  2 types and       8 ions
 Reading from existing POTCAR
 scaLAPACK will be used
 Reading from existing POTCAR
 LDA part: xc-table for Pade appr. of Perdew
 POSCAR, INCAR and KPOINTS ok, starting setup
 FFT: planning ... GRIDC
 FFT: planning ... GRID_SOFT
 FFT: planning ... GRID
 WAVECAR not read
 entering main loop
       N       E                     dE             d eps       ncg     rms          rms(c)
DAV:   1     0.125815122197E+03    0.12582E+03   -0.13384E+04  2560   0.796E+02
DAV:   2    -0.254534624024E+02   -0.15127E+03   -0.14661E+03  3728   0.143E+02
DAV:   3    -0.325422995859E+02   -0.70888E+01   -0.70602E+01  3136   0.351E+01
DAV:   4    -0.325790521167E+02   -0.36753E-01   -0.36748E-01  3360   0.288E+00
DAV:   5    -0.325792479997E+02   -0.19588E-03   -0.19587E-03  3056   0.199E-01    0.744E+00
DAV:   6    -0.323242354196E+02    0.25501E+00   -0.48765E-01  3248   0.240E+00    0.467E+00
DAV:   7    -0.323156856584E+02    0.85498E-02   -0.18421E-01  3216   0.154E+00    0.960E-01
DAV:   8    -0.323128655524E+02    0.28201E-02   -0.17504E-02  3008   0.508E-01    0.156E-01
DAV:   9    -0.323130163264E+02   -0.15077E-03   -0.21615E-03  3120   0.184E-01    0.523E-02
DAV:  10    -0.323130335952E+02   -0.17269E-04   -0.12486E-04  3424   0.441E-02    0.198E-02
DAV:  11    -0.323130477885E+02   -0.14193E-04   -0.23408E-05  2784   0.233E-02    0.575E-03
DAV:  12    -0.323130478521E+02   -0.63577E-07   -0.16072E-06  2400   0.641E-03
   1 F= -.32313048E+02 E0= -.32311744E+02  d E =-.260692E-02
