 vasp.6.4.2 20Jul23 (build Oct 12 2023 10:31:02) complex                         
 executed on              LinuxNV date 2025.05.19  03:47:13
 running  160 mpi-ranks, with    1 threads/rank, on   10 nodes
 distrk:  each k-point on   80 cores,    2 groups
 distr:  one band on NCORE=   5 cores,   16 groups


--------------------------------------------------------------------------------------------------------


 INCAR:
   ENCUT = 360.000000
   SIGMA = 0.050000
   EDIFF = 1.00e-06
   ALGO = Normal
   GGA = PE
   PREC = Normal
   SYSTEM = ./
   ICHARG = 2
   ISMEAR = 0
   ISPIN = 1
   ISTART = 0
   ISYM = 0
   KPAR = 2
   LMAXMIX = 4
   NELM = 100
   NPAR = 16
   LASPH = .TRUE.
   LCHARG = .FALSE.
   LWAVE = .FALSE.

 POTCAR:    PAW_PBE Ge 05Jan2001                  
 POTCAR:    PAW_PBE Se 06Sep2000                  
 POTCAR:    PAW_PBE Ge 05Jan2001                  
   VRHFIN =Ge: s2p2                                                                                 
   LEXCH  = PE                                                                                      
   EATOM  =   104.9960 eV,    7.7170 Ry                                                             
                                                                                                    
   TITEL  = PAW_PBE Ge 05Jan2001                                                                    
   LULTRA =        F    use ultrasoft PP ?                                                          
   IUNSCR =        1    unscreen: 0-lin 1-nonlin 2-no                                               
   RPACOR =    2.170    partial core radius                                                         
   POMASS =   72.610; ZVAL   =    4.000    mass and valenz                                          
   RCORE  =    2.300    outmost cutoff radius                                                       
   RWIGS  =    2.300; RWIGS  =    1.217    wigner-seitz radius (au A)                               
   ENMAX  =  173.807; ENMIN  =  130.355 eV                                                          
   ICORE  =        3    local potential                                                             
   LCOR   =        T    correct aug charges                                                         
   LPAW   =        T    paw PP                                                                      
   EAUG   =  385.843                                                                                
   DEXC   =    0.000                                                                                
   RMAX   =    2.342    core radius for proj-oper                                                   
   RAUG   =    1.300    factor for augmentation sphere                                              
   RDEP   =    2.318    radius for radial grids                                                     
   RDEPT  =    2.103    core radius for aug-charge                                                  
                                                                                                    
   Atomic configuration                                                                             
   10 entries                                                                                       
     n  l   j            E        occ.                                                              
     1  0  0.50    -10959.8463   2.0000                                                             
     2  0  0.50     -1371.6056   2.0000                                                             
     2  1  1.50     -1198.4791   6.0000                                                             
     3  0  0.50      -168.4733   2.0000                                                             
     3  1  1.50      -115.6019   6.0000                                                             
     3  2  2.50       -29.3106  10.0000                                                             
     4  0  0.50       -11.7309   2.0000                                                             
     4  1  0.50        -3.8952   2.0000                                                             
     4  2  1.50        -4.0817   0.0000                                                             
     4  3  2.50        -4.0817   0.0000                                                             
   Description                                                                                      
     l       E           TYP  RCUT    TYP  RCUT                                                     
     0    -11.7309493     23  2.300                                                                 
     0     -7.4578696     23  2.300                                                                 
     1     -3.8952261     23  2.300                                                                 
     1      6.1178114     23  2.300                                                                 
     2     -4.0817478     23  2.300                                                                 
     3     -1.3605826      7  2.300                                                                 
  local pseudopotential read in
  partial core-charges read in
  partial kinetic energy density read in
  atomic valenz-charges read in
  non local Contribution for L=            0  read in
    real space projection operators read in
  non local Contribution for L=            0  read in
    real space projection operators read in
  non local Contribution for L=            1  read in
    real space projection operators read in
  non local Contribution for L=            1  read in
    real space projection operators read in
  non local Contribution for L=            2  read in
    real space projection operators read in
    PAW grid and wavefunctions read in
 
   number of l-projection  operators is LMAX  =            5
   number of lm-projection operators is LMMAX =           13
 
 POTCAR:    PAW_PBE Se 06Sep2000                  
   VRHFIN =Se: s2p4                                                                                 
   LEXCH  = PE                                                                                      
   EATOM  =   257.1286 eV,   18.8984 Ry                                                             
                                                                                                    
   TITEL  = PAW_PBE Se 06Sep2000                                                                    
   LULTRA =        F    use ultrasoft PP ?                                                          
   IUNSCR =        1    unscreen: 0-lin 1-nonlin 2-no                                               
   RPACOR =    1.900    partial core radius                                                         
   POMASS =   78.960; ZVAL   =    6.000    mass and valenz                                          
   RCORE  =    2.100    outmost cutoff radius                                                       
   RWIGS  =    2.200; RWIGS  =    1.164    wigner-seitz radius (au A)                               
   ENMAX  =  211.555; ENMIN  =  158.666 eV                                                          
   ICORE  =        3    local potential                                                             
   LCOR   =        T    correct aug charges                                                         
   LPAW   =        T    paw PP                                                                      
   EAUG   =  446.842                                                                                
   DEXC   =    0.000                                                                                
   RMAX   =    2.147    core radius for proj-oper                                                   
   RAUG   =    1.300    factor for augmentation sphere                                              
   RDEP   =    2.177    radius for radial grids                                                     
   RDEPT  =    1.928    core radius for aug-charge                                                  
                                                                                                    
   Atomic configuration                                                                             
   10 entries                                                                                       
     n  l   j            E        occ.                                                              
     1  0  0.50    -12503.4787   2.0000                                                             
     2  0  0.50     -1606.9547   2.0000                                                             
     2  1  1.50     -1413.3140   6.0000                                                             
     3  0  0.50      -213.4885   2.0000                                                             
     3  1  1.50      -152.9538   6.0000                                                             
     3  2  2.50       -53.1221  10.0000                                                             
     4  0  0.50       -17.2865   2.0000                                                             
     4  1  0.50        -6.5110   4.0000                                                             
     4  2  2.50        -6.8029   0.0000                                                             
     4  3  2.50        -6.8029   0.0000                                                             
   Description                                                                                      
     l       E           TYP  RCUT    TYP  RCUT                                                     
     0    -17.2865377     23  2.100                                                                 
     0    -15.3094411     23  2.100                                                                 
     1     -6.5110275     23  2.100                                                                 
     1     -0.0695192     23  2.100                                                                 
     2     -6.8029130     23  2.100                                                                 
     3     -1.3605826      7  2.100                                                                 
  local pseudopotential read in
  partial core-charges read in
  partial kinetic energy density read in
  atomic valenz-charges read in
  non local Contribution for L=            0  read in
    real space projection operators read in
  non local Contribution for L=            0  read in
    real space projection operators read in
  non local Contribution for L=            1  read in
    real space projection operators read in
  non local Contribution for L=            1  read in
    real space projection operators read in
  non local Contribution for L=            2  read in
    real space projection operators read in
    PAW grid and wavefunctions read in
 
   number of l-projection  operators is LMAX  =            5
   number of lm-projection operators is LMMAX =           13
 
  PAW_PBE Ge 05Jan2001                  :
 energy of atom  1       EATOM= -104.9960
 kinetic energy error for atom=    0.0005 (will be added to EATOM!!)
  PAW_PBE Se 06Sep2000                  :
 energy of atom  2       EATOM= -257.1286
 kinetic energy error for atom=    0.0030 (will be added to EATOM!!)
 
 
 POSCAR: Ge Se
  positions in cartesian coordinates
  No initial velocities read in
 exchange correlation table for  LEXCH =        8
   RHO(1)=    0.500       N(1)  =     2000
   RHO(2)=  100.500       N(2)  =     4000
 


--------------------------------------------------------------------------------------------------------


 ion  position               nearest neighbor table
   1  0.453  0.966  0.132-   5 2.59   6 2.60   6 2.60
   2  0.953  0.466  0.368-   6 2.59   5 2.60   5 2.60
   3  0.750  0.904  0.868-   7 2.59   8 2.60   8 2.60
   4  0.250  0.404  0.632-   8 2.59   7 2.60   7 2.60
   5  0.453  0.849  0.351-   1 2.59   2 2.60   2 2.60
   6  0.953  0.349  0.149-   2 2.59   1 2.60   1 2.60
   7  0.750  0.021  0.649-   3 2.59   4 2.60   4 2.60
   8  0.250  0.521  0.851-   4 2.59   3 2.60   3 2.60
 

IMPORTANT INFORMATION: All symmetrisations will be switched off!
NOSYMM: (Re-)initialisation of all symmetry stuff for point group C_1.


----------------------------------------------------------------------------------------

                                     Primitive cell                                     

  volume of cell :     202.3233

  direct lattice vectors                    reciprocal lattice vectors
     3.858100176  0.000000000  0.000000000     0.259194929  0.000000000  0.000000000
     0.000000000  4.526575088  0.000000000     0.000000000  0.220917577  0.000000000
     0.000000000  0.000000000 11.585176468     0.000000000  0.000000000  0.086317200

  length of vectors
     3.858100176  4.526575088 11.585176468     0.259194929  0.220917577  0.086317200

  position of ions in fractional coordinates (direct lattice)
     0.452898554  0.965808575  0.131971745
     0.952898518  0.465808562  0.368028228
     0.749999855  0.903756548  0.868028249
     0.249999781  0.403756501  0.631971759
     0.452898538  0.849030922  0.351109927
     0.952898554  0.349030943  0.148890049
     0.749999761  0.020534152  0.648890076
     0.249999838  0.520534176  0.851109946

  ion indices of the primitive-cell ions
   primitive index   ion index
                 1           1
                 2           2
                 3           3
                 4           4
                 5           5
                 6           6
                 7           7
                 8           8

----------------------------------------------------------------------------------------

 
 
 KPOINTS: KPOINTS created by Atomic Simulation Env

Automatic generation of k-mesh.
 Grid dimensions read from file:
 generate k-points for:    6    6    2

 Generating k-lattice:

  Cartesian coordinates                     Fractional coordinates (reciprocal lattice)
     0.043199155  0.000000000  0.000000000     0.166666667  0.000000000  0.000000000
     0.000000000  0.036819596  0.000000000     0.000000000  0.166666667  0.000000000
     0.000000000  0.000000000  0.043158600     0.000000000  0.000000000  0.500000000

  Length of vectors
     0.043199155  0.036819596  0.043158600

  Shift w.r.t. Gamma in fractional coordinates (k-lattice)
     0.000000000  0.000000000  0.000000000

 
 Subroutine IBZKPT returns following result:
 ===========================================
 
 Found     40 irreducible k-points:
 
 Following reciprocal coordinates:
            Coordinates               Weight
  0.000000  0.000000  0.000000      1.000000
  0.166667  0.000000  0.000000      2.000000
  0.333333  0.000000  0.000000      2.000000
  0.500000  0.000000  0.000000      1.000000
  0.000000  0.166667  0.000000      2.000000
  0.166667  0.166667  0.000000      2.000000
  0.166667 -0.166667  0.000000      2.000000
  0.333333  0.166667  0.000000      2.000000
  0.333333 -0.166667  0.000000      2.000000
  0.500000  0.166667  0.000000      2.000000
  0.000000  0.333333  0.000000      2.000000
  0.166667  0.333333  0.000000      2.000000
  0.166667 -0.333333  0.000000      2.000000
  0.333333  0.333333  0.000000      2.000000
  0.333333 -0.333333  0.000000      2.000000
  0.500000  0.333333  0.000000      2.000000
  0.000000  0.500000  0.000000      1.000000
  0.166667  0.500000  0.000000      2.000000
  0.333333  0.500000  0.000000      2.000000
  0.500000  0.500000  0.000000      1.000000
  0.000000  0.000000  0.500000      1.000000
  0.166667  0.000000  0.500000      2.000000
  0.333333  0.000000  0.500000      2.000000
  0.500000  0.000000  0.500000      1.000000
  0.000000  0.166667  0.500000      2.000000
  0.166667  0.166667  0.500000      2.000000
  0.166667 -0.166667  0.500000      2.000000
  0.333333  0.166667  0.500000      2.000000
  0.333333 -0.166667  0.500000      2.000000
  0.500000  0.166667  0.500000      2.000000
  0.000000  0.333333  0.500000      2.000000
  0.166667  0.333333  0.500000      2.000000
  0.166667 -0.333333  0.500000      2.000000
  0.333333  0.333333  0.500000      2.000000
  0.333333 -0.333333  0.500000      2.000000
  0.500000  0.333333  0.500000      2.000000
  0.000000  0.500000  0.500000      1.000000
  0.166667  0.500000  0.500000      2.000000
  0.333333  0.500000  0.500000      2.000000
  0.500000  0.500000  0.500000      1.000000
 
 Following cartesian coordinates:
            Coordinates               Weight
  0.000000  0.000000  0.000000      1.000000
  0.043199  0.000000  0.000000      2.000000
  0.086398  0.000000  0.000000      2.000000
  0.129597  0.000000  0.000000      1.000000
  0.000000  0.036820  0.000000      2.000000
  0.043199  0.036820  0.000000      2.000000
  0.043199 -0.036820  0.000000      2.000000
  0.086398  0.036820  0.000000      2.000000
  0.086398 -0.036820  0.000000      2.000000
  0.129597  0.036820  0.000000      2.000000
  0.000000  0.073639  0.000000      2.000000
  0.043199  0.073639  0.000000      2.000000
  0.043199 -0.073639  0.000000      2.000000
  0.086398  0.073639  0.000000      2.000000
  0.086398 -0.073639  0.000000      2.000000
  0.129597  0.073639  0.000000      2.000000
  0.000000  0.110459  0.000000      1.000000
  0.043199  0.110459  0.000000      2.000000
  0.086398  0.110459  0.000000      2.000000
  0.129597  0.110459  0.000000      1.000000
  0.000000  0.000000  0.043159      1.000000
  0.043199  0.000000  0.043159      2.000000
  0.086398  0.000000  0.043159      2.000000
  0.129597  0.000000  0.043159      1.000000
  0.000000  0.036820  0.043159      2.000000
  0.043199  0.036820  0.043159      2.000000
  0.043199 -0.036820  0.043159      2.000000
  0.086398  0.036820  0.043159      2.000000
  0.086398 -0.036820  0.043159      2.000000
  0.129597  0.036820  0.043159      2.000000
  0.000000  0.073639  0.043159      2.000000
  0.043199  0.073639  0.043159      2.000000
  0.043199 -0.073639  0.043159      2.000000
  0.086398  0.073639  0.043159      2.000000
  0.086398 -0.073639  0.043159      2.000000
  0.129597  0.073639  0.043159      2.000000
  0.000000  0.110459  0.043159      1.000000
  0.043199  0.110459  0.043159      2.000000
  0.086398  0.110459  0.043159      2.000000
  0.129597  0.110459  0.043159      1.000000
 


--------------------------------------------------------------------------------------------------------




 Dimension of arrays:
   k-points           NKPTS =     40   k-points in BZ     NKDIM =     40   number of bands    NBANDS=     32
   number of dos      NEDOS =    301   number of ions     NIONS =      8
   non local maximal  LDIM  =      5   non local SUM 2l+1 LMDIM =     13
   total plane-waves  NPLWV =  23328
   max r-space proj   IRMAX =      1   max aug-charges    IRDMAX=   6465
   dimension x,y,z NGX =    18 NGY =   24 NGZ =   54
   dimension x,y,z NGXF=    36 NGYF=   48 NGZF=  108
   support grid    NGXF=    36 NGYF=   48 NGZF=  108
   ions per type =               4   4
   NGX,Y,Z   is equivalent  to a cutoff of   7.76,  8.81,  7.75 a.u.
   NGXF,Y,Z  is equivalent  to a cutoff of  15.51, 17.63, 15.50 a.u.

 SYSTEM =  ./                                      
 POSCAR =  Ge Se                                   

 Startparameter for this run:
   NWRITE =      2    write-flag & timer
   PREC   = normal    normal or accurate (medium, high low for compatibility)
   ISTART =      0    job   : 0-new  1-cont  2-samecut
   ICHARG =      2    charge: 1-file 2-atom 10-const
   ISPIN  =      1    spin polarized calculation?
   LNONCOLLINEAR =      F non collinear calculations
   LSORBIT =      F    spin-orbit coupling
   INIWAV =      1    electr: 0-lowe 1-rand  2-diag
   LASPH  =      T    aspherical Exc in radial PAW
 Electronic Relaxation 1
   ENCUT  =  360.0 eV  26.46 Ry    5.14 a.u.   5.97  7.00 17.92*2*pi/ulx,y,z
   ENINI  =  360.0     initial cutoff
   ENAUG  =  446.8 eV  augmentation charge cutoff
   NELM   =    100;   NELMIN=  2; NELMDL= -5     # of ELM steps 
   EDIFF  = 0.1E-05   stopping-criterion for ELM
   LREAL  =      F    real-space projection
   NLSPLINE    = F    spline interpolate recip. space projectors
   LCOMPAT=      F    compatible to vasp.4.4
   GGA_COMPAT  = T    GGA compatible to vasp.4.4-vasp.4.6
   LMAXPAW     = -100 max onsite density
   LMAXMIX     =    4 max onsite mixed and CHGCAR
   VOSKOWN=      0    Vosko Wilk Nusair interpolation
   ROPT   =    0.00000   0.00000
 Ionic relaxation
   EDIFFG = 0.1E-04   stopping-criterion for IOM
   NSW    =      0    number of steps for IOM
   NBLOCK =      1;   KBLOCK =      1    inner block; outer block 
   IBRION =     -1    ionic relax: 0-MD 1-quasi-New 2-CG
   NFREE  =      0    steps in history (QN), initial steepest desc. (CG)
   ISIF   =      2    stress and relaxation
   IWAVPR =     10    prediction:  0-non 1-charg 2-wave 3-comb
   ISYM   =      0    0-nonsym 1-usesym 2-fastsym
   LCORR  =      T    Harris-Foulkes like correction to forces

   POTIM  = 0.5000    time-step for ionic-motion
   TEIN   =    0.0    initial temperature
   TEBEG  =    0.0;   TEEND  =   0.0 temperature during run
   SMASS  =  -3.00    Nose mass-parameter (am)
   estimated Nose-frequenzy (Omega)   =  0.10E-29 period in steps = 0.13E+47 mass=  -0.340E-27a.u.
   SCALEE = 1.0000    scale energy and forces
   NPACO  =    256;   APACO  = 10.0  distance and # of slots for P.C.
   PSTRESS=    0.0 pullay stress

  Mass of Ions in am
   POMASS =  72.61 78.96
  Ionic Valenz
   ZVAL   =   4.00  6.00
  Atomic Wigner-Seitz radii
   RWIGS  =  -1.00 -1.00
  virtual crystal weights 
   VCA    =   1.00  1.00
   NELECT =      40.0000    total number of electrons
   NUPDOWN=      -1.0000    fix difference up-down

 DOS related values:
   EMIN   =  10.00;   EMAX   =-10.00  energy-range for DOS
   EFERMI =   0.00;   METHOD = LEGACY      
   ISMEAR =     0;   SIGMA  =   0.05  broadening in eV -4-tet -1-fermi 0-gaus

 Electronic relaxation 2 (details)
   IALGO  =     38    algorithm
   LDIAG  =      T    sub-space diagonalisation (order eigenvalues)
   LSUBROT=      F    optimize rotation matrix (better conditioning)
   TURBO    =      0    0=normal 1=particle mesh
   IRESTART =      0    0=no restart 2=restart with 2 vectors
   NREBOOT  =      0    no. of reboots
   NMIN     =      0    reboot dimension
   EREF     =   0.00    reference energy to select bands
   IMIX   =      4    mixing-type and parameters
     AMIX     =   0.40;   BMIX     =  1.00
     AMIX_MAG =   1.60;   BMIX_MAG =  1.00
     AMIN     =   0.10
     WC   =   100.;   INIMIX=   1;  MIXPRE=   1;  MAXMIX= -45

 Intra band minimization:
   WEIMIN = 0.0000     energy-eigenvalue tresh-hold
   EBREAK =  0.78E-08  absolut break condition
   DEPER  =   0.30     relativ break condition  

   TIME   =   0.40     timestep for ELM

  volume/ion in A,a.u.               =      25.29       170.67
  Fermi-wavevector in a.u.,A,eV,Ry     =   0.953702  1.802236 12.375155  0.909548
  Thomas-Fermi vector in A             =   2.082382
 
 Write flags
   LWAVE        =      F    write WAVECAR
   LDOWNSAMPLE  =      F    k-point downsampling of WAVECAR
   LCHARG       =      F    write CHGCAR
   LVTOT        =      F    write LOCPOT, total local potential
   LVHAR        =      F    write LOCPOT, Hartree potential only
   LELF         =      F    write electronic localiz. function (ELF)
   LORBIT       =      0    0 simple, 1 ext, 2 COOP (PROOUT), +10 PAW based schemes


 Dipole corrections
   LMONO  =      F    monopole corrections only (constant potential shift)
   LDIPOL =      F    correct potential (dipole corrections)
   IDIPOL =      0    1-x, 2-y, 3-z, 4-all directions 
   EPSILON=  1.0000000 bulk dielectric constant

 Exchange correlation treatment:
   GGA     =    PE    GGA type
   LEXCH   =     8    internal setting for exchange type
   LIBXC   =     F    Libxc                    
   VOSKOWN =     0    Vosko Wilk Nusair interpolation
   LHFCALC =     F    Hartree Fock is set to
   LHFONE  =     F    Hartree Fock one center treatment
   AEXX    =    0.0000 exact exchange contribution

 Linear response parameters
   LEPSILON=     F    determine dielectric tensor
   LRPA    =     F    only Hartree local field effects (RPA)
   LNABLA  =     F    use nabla operator in PAW spheres
   LVEL    =     F    velocity operator in full k-point grid
   CSHIFT  =0.1000    complex shift for real part using Kramers Kronig
   OMEGAMAX=  -1.0    maximum frequency
   DEG_THRESHOLD= 0.2000000E-02 threshold for treating states as degnerate
   RTIME   =   -0.100 relaxation time in fs
  (WPLASMAI=    0.000 imaginary part of plasma frequency in eV, 0.658/RTIME)
   DFIELD  = 0.0000000 0.0000000 0.0000000 field for delta impulse in time
 
  Optional k-point grid parameters
   LKPOINTS_OPT  =     F    use optional k-point grid
   KPOINTS_OPT_MODE=     1    mode for optional k-point grid
 
 Orbital magnetization related:
   ORBITALMAG=     F  switch on orbital magnetization
   LCHIMAG   =     F  perturbation theory with respect to B field
   DQ        =  0.001000  dq finite difference perturbation B field
   LLRAUG    =     F  two centre corrections for induced B field
   LBONE     =     F  B-component reconstruction in AE one-centre
   LVGVCALC  =     T  calculate vGv susceptibility
   LVGVAPPL  =     F  apply vGv susceptibility instead of pGv for G=0

 Random number generation:
   RANDOM_GENERATOR = DEFAULT
   PCG_SEED         = not used


--------------------------------------------------------------------------------------------------------


 Static calculation
 charge density and potential will be updated during run
 non-spin polarized calculation
 Variant of blocked Davidson
 Davidson routine will perform the subspace rotation
 perform sub-space diagonalisation
    after iterative eigenvector-optimisation
 modified Broyden-mixing scheme, WC =      100.0
 initial mixing is a Kerker type mixing with AMIX =  0.4000 and BMIX =      1.0000
 Hartree-type preconditioning will be used
 using additional bands            12
 reciprocal scheme for non local part
 use partial core corrections
 calculate Harris-corrections to forces 
   (improved forces if not selfconsistent)
 use gradient corrections 
 use of overlap-Matrix (Vanderbilt PP)
 Gauss-broadening in eV      SIGMA  =   0.05


--------------------------------------------------------------------------------------------------------


  energy-cutoff  :      360.00
  volume of cell :      202.32
      direct lattice vectors                 reciprocal lattice vectors
     3.858100176  0.000000000  0.000000000     0.259194929  0.000000000  0.000000000
     0.000000000  4.526575088  0.000000000     0.000000000  0.220917577  0.000000000
     0.000000000  0.000000000 11.585176468     0.000000000  0.000000000  0.086317200

  length of vectors
     3.858100176  4.526575088 11.585176468     0.259194929  0.220917577  0.086317200


 
 k-points in units of 2pi/SCALE and weight: KPOINTS created by Atomic Simulation Env
   0.00000000  0.00000000  0.00000000       0.014
   0.04319915  0.00000000  0.00000000       0.028
   0.08639831  0.00000000  0.00000000       0.028
   0.12959746  0.00000000  0.00000000       0.014
   0.00000000  0.03681960  0.00000000       0.028
   0.04319915  0.03681960  0.00000000       0.028
   0.04319915 -0.03681960  0.00000000       0.028
   0.08639831  0.03681960  0.00000000       0.028
   0.08639831 -0.03681960  0.00000000       0.028
   0.12959746  0.03681960  0.00000000       0.028
   0.00000000  0.07363919  0.00000000       0.028
   0.04319915  0.07363919  0.00000000       0.028
   0.04319915 -0.07363919  0.00000000       0.028
   0.08639831  0.07363919  0.00000000       0.028
   0.08639831 -0.07363919  0.00000000       0.028
   0.12959746  0.07363919  0.00000000       0.028
   0.00000000  0.11045879  0.00000000       0.014
   0.04319915  0.11045879  0.00000000       0.028
   0.08639831  0.11045879  0.00000000       0.028
   0.12959746  0.11045879  0.00000000       0.014
   0.00000000  0.00000000  0.04315860       0.014
   0.04319915  0.00000000  0.04315860       0.028
   0.08639831  0.00000000  0.04315860       0.028
   0.12959746  0.00000000  0.04315860       0.014
   0.00000000  0.03681960  0.04315860       0.028
   0.04319915  0.03681960  0.04315860       0.028
   0.04319915 -0.03681960  0.04315860       0.028
   0.08639831  0.03681960  0.04315860       0.028
   0.08639831 -0.03681960  0.04315860       0.028
   0.12959746  0.03681960  0.04315860       0.028
   0.00000000  0.07363919  0.04315860       0.028
   0.04319915  0.07363919  0.04315860       0.028
   0.04319915 -0.07363919  0.04315860       0.028
   0.08639831  0.07363919  0.04315860       0.028
   0.08639831 -0.07363919  0.04315860       0.028
   0.12959746  0.07363919  0.04315860       0.028
   0.00000000  0.11045879  0.04315860       0.014
   0.04319915  0.11045879  0.04315860       0.028
   0.08639831  0.11045879  0.04315860       0.028
   0.12959746  0.11045879  0.04315860       0.014
 
 k-points in reciprocal lattice and weights: KPOINTS created by Atomic Simulation Env
   0.00000000  0.00000000  0.00000000       0.014
   0.16666667  0.00000000  0.00000000       0.028
   0.33333333  0.00000000  0.00000000       0.028
   0.50000000  0.00000000  0.00000000       0.014
   0.00000000  0.16666667  0.00000000       0.028
   0.16666667  0.16666667  0.00000000       0.028
   0.16666667 -0.16666667  0.00000000       0.028
   0.33333333  0.16666667  0.00000000       0.028
   0.33333333 -0.16666667  0.00000000       0.028
   0.50000000  0.16666667  0.00000000       0.028
   0.00000000  0.33333333  0.00000000       0.028
   0.16666667  0.33333333  0.00000000       0.028
   0.16666667 -0.33333333  0.00000000       0.028
   0.33333333  0.33333333  0.00000000       0.028
   0.33333333 -0.33333333  0.00000000       0.028
   0.50000000  0.33333333  0.00000000       0.028
   0.00000000  0.50000000  0.00000000       0.014
   0.16666667  0.50000000  0.00000000       0.028
   0.33333333  0.50000000  0.00000000       0.028
   0.50000000  0.50000000  0.00000000       0.014
   0.00000000  0.00000000  0.50000000       0.014
   0.16666667  0.00000000  0.50000000       0.028
   0.33333333  0.00000000  0.50000000       0.028
   0.50000000  0.00000000  0.50000000       0.014
   0.00000000  0.16666667  0.50000000       0.028
   0.16666667  0.16666667  0.50000000       0.028
   0.16666667 -0.16666667  0.50000000       0.028
   0.33333333  0.16666667  0.50000000       0.028
   0.33333333 -0.16666667  0.50000000       0.028
   0.50000000  0.16666667  0.50000000       0.028
   0.00000000  0.33333333  0.50000000       0.028
   0.16666667  0.33333333  0.50000000       0.028
   0.16666667 -0.33333333  0.50000000       0.028
   0.33333333  0.33333333  0.50000000       0.028
   0.33333333 -0.33333333  0.50000000       0.028
   0.50000000  0.33333333  0.50000000       0.028
   0.00000000  0.50000000  0.50000000       0.014
   0.16666667  0.50000000  0.50000000       0.028
   0.33333333  0.50000000  0.50000000       0.028
   0.50000000  0.50000000  0.50000000       0.014
 
 position of ions in fractional coordinates (direct lattice) 
   0.45289855  0.96580857  0.13197174
   0.95289852  0.46580856  0.36802823
   0.74999985  0.90375655  0.86802825
   0.24999978  0.40375650  0.63197176
   0.45289854  0.84903092  0.35110993
   0.95289855  0.34903094  0.14889005
   0.74999976  0.02053415  0.64889008
   0.24999984  0.52053418  0.85110995
 
 position of ions in cartesian coordinates  (Angst):
   1.74732799  4.37180503  1.52891595
   3.67637794  2.10851743  4.26367197
   2.89357457  4.09092188 10.05626045
   0.96452420  1.82763412  7.32150435
   1.74732793  3.84320222  4.06767047
   3.67637808  1.57991477  1.72491749
   2.89357421  0.09294938  7.51750603
   0.96452442  2.35623703  9.86025892
 


--------------------------------------------------------------------------------------------------------


 k-point   1 :   0.0000 0.0000 0.0000  plane waves:    3119
 k-point   2 :   0.1667 0.0000 0.0000  plane waves:    3116
 k-point   3 :   0.3333 0.0000 0.0000  plane waves:    3142
 k-point   4 :   0.5000 0.0000 0.0000  plane waves:    3148
 k-point   5 :   0.0000 0.1667 0.0000  plane waves:    3108
 k-point   6 :   0.1667 0.1667 0.0000  plane waves:    3123
 k-point   7 :   0.1667-0.1667 0.0000  plane waves:    3123
 k-point   8 :   0.3333 0.1667 0.0000  plane waves:    3135
 k-point   9 :   0.3333-0.1667 0.0000  plane waves:    3135
 k-point  10 :   0.5000 0.1667 0.0000  plane waves:    3138
 k-point  11 :   0.0000 0.3333 0.0000  plane waves:    3116
 k-point  12 :   0.1667 0.3333 0.0000  plane waves:    3133
 k-point  13 :   0.1667-0.3333 0.0000  plane waves:    3133
 k-point  14 :   0.3333 0.3333 0.0000  plane waves:    3155
 k-point  15 :   0.3333-0.3333 0.0000  plane waves:    3155
 k-point  16 :   0.5000 0.3333 0.0000  plane waves:    3152
 k-point  17 :   0.0000 0.5000 0.0000  plane waves:    3134
 k-point  18 :   0.1667 0.5000 0.0000  plane waves:    3140
 k-point  19 :   0.3333 0.5000 0.0000  plane waves:    3144
 k-point  20 :   0.5000 0.5000 0.0000  plane waves:    3144
 k-point  21 :   0.0000 0.0000 0.5000  plane waves:    3092
 k-point  22 :   0.1667 0.0000 0.5000  plane waves:    3124
 k-point  23 :   0.3333 0.0000 0.5000  plane waves:    3140
 k-point  24 :   0.5000 0.0000 0.5000  plane waves:    3132
 k-point  25 :   0.0000 0.1667 0.5000  plane waves:    3112
 k-point  26 :   0.1667 0.1667 0.5000  plane waves:    3140
 k-point  27 :   0.1667-0.1667 0.5000  plane waves:    3140
 k-point  28 :   0.3333 0.1667 0.5000  plane waves:    3134
 k-point  29 :   0.3333-0.1667 0.5000  plane waves:    3134
 k-point  30 :   0.5000 0.1667 0.5000  plane waves:    3144
 k-point  31 :   0.0000 0.3333 0.5000  plane waves:    3130
 k-point  32 :   0.1667 0.3333 0.5000  plane waves:    3148
 k-point  33 :   0.1667-0.3333 0.5000  plane waves:    3148
 k-point  34 :   0.3333 0.3333 0.5000  plane waves:    3142
 k-point  35 :   0.3333-0.3333 0.5000  plane waves:    3142
 k-point  36 :   0.5000 0.3333 0.5000  plane waves:    3152
 k-point  37 :   0.0000 0.5000 0.5000  plane waves:    3132
 k-point  38 :   0.1667 0.5000 0.5000  plane waves:    3148
 k-point  39 :   0.3333 0.5000 0.5000  plane waves:    3140
 k-point  40 :   0.5000 0.5000 0.5000  plane waves:    3160

 maximum and minimum number of plane-waves per node :       659      606

 maximum number of plane-waves:      3160
 maximum index in each direction: 
   IXMAX=    5   IYMAX=    7   IZMAX=   17
   IXMIN=   -6   IYMIN=   -7   IZMIN=  -18


 parallel 3D FFT for wavefunctions:
    minimum data exchange during FFTs selected (reduces bandwidth)
 parallel 3D FFT for charge:
    minimum data exchange during FFTs selected (reduces bandwidth)


 total amount of memory used by VASP MPI-rank0    37119. kBytes
=======================================================================

   base      :      30000. kBytes
   nonl-proj :       5406. kBytes
   fftplans  :        334. kBytes
   grid      :        503. kBytes
   one-center:         16. kBytes
   wavefun   :        860. kBytes
 
     INWAV:  cpu time      0.0000: real time      0.0001
 Broyden mixing: mesh for mixing (old mesh)
   NGX = 11   NGY = 15   NGZ = 35
  (NGX  = 36   NGY  = 48   NGZ  =108)
  gives a total of   5775 points

 initial charge density was supplied:
 charge density of overlapping atoms calculated
 number of electron      40.0000000 magnetization 
 keeping initial charge density in first step


--------------------------------------------------------------------------------------------------------


 Maximum index for augmentation-charges           408 (set IRDMAX)


--------------------------------------------------------------------------------------------------------


 First call to EWALD:  gamma=   0.302
 Maximum number of real-space cells 4x 3x 2
 Maximum number of reciprocal cells 2x 2x 5

    FEWALD:  cpu time      0.0013: real time      0.0013


--------------------------------------- Ionic step        1  -------------------------------------------




--------------------------------------- Iteration      1(   1)  ---------------------------------------


    POTLOK:  cpu time      0.0096: real time      0.0097
    SETDIJ:  cpu time      0.2154: real time      0.2158
     EDDAV:  cpu time      0.3065: real time      0.3081
       DOS:  cpu time      0.0012: real time      0.0012
    --------------------------------------------
      LOOP:  cpu time      0.5326: real time      0.5348

 eigenvalue-minimisations  :  2560
 total energy-change (2. order) : 0.1326958E+03  (-0.1287598E+04)
 number of electron      40.0000000 magnetization 
 augmentation part       40.0000000 magnetization 

 Free energy of the ion-electron system (eV)
  ---------------------------------------------------
  alpha Z        PSCENC =        83.74935623
  Ewald energy   TEWEN  =     -1384.35989280
  -Hartree energ DENC   =      -145.11564708
  -exchange      EXHF   =         0.00000000
  -V(xc)+E(xc)   XCENC  =       -33.77028027
  PAW double counting   =      1193.78262552    -1080.73714043
  entropy T*S    EENTRO =        -0.00320181
  eigenvalues    EBANDS =        50.66541568
  atomic energy  EATOM  =      1448.48460880
  Solvation  Ediel_sol  =         0.00000000
  ---------------------------------------------------
  free energy    TOTEN  =       132.69584384 eV

  energy without entropy =      132.69904566  energy(sigma->0) =      132.69744475


--------------------------------------------------------------------------------------------------------




--------------------------------------- Iteration      1(   2)  ---------------------------------------


     EDDAV:  cpu time      0.4359: real time      0.4403
       DOS:  cpu time      0.0007: real time      0.0007
    --------------------------------------------
      LOOP:  cpu time      0.4366: real time      0.4410

 eigenvalue-minimisations  :  3744
 total energy-change (2. order) :-0.1578638E+03  (-0.1532523E+03)
 number of electron      40.0000000 magnetization 
 augmentation part       40.0000000 magnetization 

 Free energy of the ion-electron system (eV)
  ---------------------------------------------------
  alpha Z        PSCENC =        83.74935623
  Ewald energy   TEWEN  =     -1384.35989280
  -Hartree energ DENC   =      -145.11564708
  -exchange      EXHF   =         0.00000000
  -V(xc)+E(xc)   XCENC  =       -33.77028027
  PAW double counting   =      1193.78262552    -1080.73714043
  entropy T*S    EENTRO =        -0.00000000
  eigenvalues    EBANDS =      -107.20157028
  atomic energy  EATOM  =      1448.48460880
  Solvation  Ediel_sol  =         0.00000000
  ---------------------------------------------------
  free energy    TOTEN  =       -25.16794030 eV

  energy without entropy =      -25.16794030  energy(sigma->0) =      -25.16794030


--------------------------------------------------------------------------------------------------------




--------------------------------------- Iteration      1(   3)  ---------------------------------------


     EDDAV:  cpu time      0.3754: real time      0.3774
       DOS:  cpu time      0.0006: real time      0.0006
    --------------------------------------------
      LOOP:  cpu time      0.3759: real time      0.3779

 eigenvalue-minimisations  :  3248
 total energy-change (2. order) :-0.8895332E+01  (-0.8876858E+01)
 number of electron      40.0000000 magnetization 
 augmentation part       40.0000000 magnetization 

 Free energy of the ion-electron system (eV)
  ---------------------------------------------------
  alpha Z        PSCENC =        83.74935623
  Ewald energy   TEWEN  =     -1384.35989280
  -Hartree energ DENC   =      -145.11564708
  -exchange      EXHF   =         0.00000000
  -V(xc)+E(xc)   XCENC  =       -33.77028027
  PAW double counting   =      1193.78262552    -1080.73714043
  entropy T*S    EENTRO =        -0.00000000
  eigenvalues    EBANDS =      -116.09690272
  atomic energy  EATOM  =      1448.48460880
  Solvation  Ediel_sol  =         0.00000000
  ---------------------------------------------------
  free energy    TOTEN  =       -34.06327275 eV

  energy without entropy =      -34.06327275  energy(sigma->0) =      -34.06327275


--------------------------------------------------------------------------------------------------------




--------------------------------------- Iteration      1(   4)  ---------------------------------------


     EDDAV:  cpu time      0.3797: real time      0.3817
       DOS:  cpu time      0.0007: real time      0.0007
    --------------------------------------------
      LOOP:  cpu time      0.3804: real time      0.3824

 eigenvalue-minimisations  :  3264
 total energy-change (2. order) :-0.6245333E-01  (-0.6244574E-01)
 number of electron      40.0000000 magnetization 
 augmentation part       40.0000000 magnetization 

 Free energy of the ion-electron system (eV)
  ---------------------------------------------------
  alpha Z        PSCENC =        83.74935623
  Ewald energy   TEWEN  =     -1384.35989280
  -Hartree energ DENC   =      -145.11564708
  -exchange      EXHF   =         0.00000000
  -V(xc)+E(xc)   XCENC  =       -33.77028027
  PAW double counting   =      1193.78262552    -1080.73714043
  entropy T*S    EENTRO =        -0.00000000
  eigenvalues    EBANDS =      -116.15935606
  atomic energy  EATOM  =      1448.48460880
  Solvation  Ediel_sol  =         0.00000000
  ---------------------------------------------------
  free energy    TOTEN  =       -34.12572608 eV

  energy without entropy =      -34.12572608  energy(sigma->0) =      -34.12572608


--------------------------------------------------------------------------------------------------------




--------------------------------------- Iteration      1(   5)  ---------------------------------------


     EDDAV:  cpu time      0.3849: real time      0.3873
       DOS:  cpu time      0.0006: real time      0.0006
    CHARGE:  cpu time      0.0056: real time      0.0056
    MIXING:  cpu time      0.0004: real time      0.0004
    --------------------------------------------
      LOOP:  cpu time      0.3915: real time      0.3938

 eigenvalue-minimisations  :  3248
 total energy-change (2. order) :-0.4358531E-03  (-0.4358464E-03)
 number of electron      39.9999968 magnetization 
 augmentation part       -7.4100654 magnetization 

 Broyden mixing:
  rms(total) = 0.64689E+00    rms(broyden)= 0.64687E+00
  rms(prec ) = 0.72684E+00
  weight for this iteration     100.00

 Free energy of the ion-electron system (eV)
  ---------------------------------------------------
  alpha Z        PSCENC =        83.74935623
  Ewald energy   TEWEN  =     -1384.35989280
  -Hartree energ DENC   =      -145.11564708
  -exchange      EXHF   =         0.00000000
  -V(xc)+E(xc)   XCENC  =       -33.77028027
  PAW double counting   =      1193.78262552    -1080.73714043
  entropy T*S    EENTRO =        -0.00000000
  eigenvalues    EBANDS =      -116.15979191
  atomic energy  EATOM  =      1448.48460880
  Solvation  Ediel_sol  =         0.00000000
  ---------------------------------------------------
  free energy    TOTEN  =       -34.12616193 eV

  energy without entropy =      -34.12616193  energy(sigma->0) =      -34.12616193


--------------------------------------------------------------------------------------------------------




--------------------------------------- Iteration      1(   6)  ---------------------------------------


    POTLOK:  cpu time      0.0079: real time      0.0080
    SETDIJ:  cpu time      0.2177: real time      0.2182
     EDDAV:  cpu time      0.3672: real time      0.3690
       DOS:  cpu time      0.0005: real time      0.0005
    CHARGE:  cpu time      0.0054: real time      0.0055
    MIXING:  cpu time      0.0006: real time      0.0006
    --------------------------------------------
      LOOP:  cpu time      0.5993: real time      0.6017

 eigenvalue-minimisations  :  3104
 total energy-change (2. order) : 0.3876240E+00  (-0.8187459E-01)
 number of electron      39.9999969 magnetization 
 augmentation part       -7.3509211 magnetization 

 Broyden mixing:
  rms(total) = 0.40722E+00    rms(broyden)= 0.40722E+00
  rms(prec ) = 0.42771E+00
  weight for this iteration     100.00

 eigenvalues of (default mixing * dielectric matrix)
  average eigenvalue GAMMA=   2.1755
  2.1755

 Free energy of the ion-electron system (eV)
  ---------------------------------------------------
  alpha Z        PSCENC =        83.74935623
  Ewald energy   TEWEN  =     -1384.35989280
  -Hartree energ DENC   =      -151.32509569
  -exchange      EXHF   =         0.00000000
  -V(xc)+E(xc)   XCENC  =       -33.14537697
  PAW double counting   =      1455.01995934    -1342.28987670
  entropy T*S    EENTRO =        -0.00000000
  eigenvalues    EBANDS =      -109.87222012
  atomic energy  EATOM  =      1448.48460880
  Solvation  Ediel_sol  =         0.00000000
  ---------------------------------------------------
  free energy    TOTEN  =       -33.73853791 eV

  energy without entropy =      -33.73853791  energy(sigma->0) =      -33.73853791


--------------------------------------------------------------------------------------------------------




--------------------------------------- Iteration      1(   7)  ---------------------------------------


    POTLOK:  cpu time      0.0076: real time      0.0077
    SETDIJ:  cpu time      0.2167: real time      0.2173
     EDDAV:  cpu time      0.3591: real time      0.3608
       DOS:  cpu time      0.0007: real time      0.0007
    CHARGE:  cpu time      0.0056: real time      0.0057
    MIXING:  cpu time      0.0004: real time      0.0004
    --------------------------------------------
      LOOP:  cpu time      0.5901: real time      0.5927

 eigenvalue-minimisations  :  2912
 total energy-change (2. order) : 0.9436541E-02  (-0.2282533E-01)
 number of electron      39.9999969 magnetization 
 augmentation part       -7.3351707 magnetization 

 Broyden mixing:
  rms(total) = 0.12990E+00    rms(broyden)= 0.12990E+00
  rms(prec ) = 0.13839E+00
  weight for this iteration     100.00

 eigenvalues of (default mixing * dielectric matrix)
  average eigenvalue GAMMA=   1.7776
  1.1824  2.3727

 Free energy of the ion-electron system (eV)
  ---------------------------------------------------
  alpha Z        PSCENC =        83.74935623
  Ewald energy   TEWEN  =     -1384.35989280
  -Hartree energ DENC   =      -154.19250811
  -exchange      EXHF   =         0.00000000
  -V(xc)+E(xc)   XCENC  =       -32.66033537
  PAW double counting   =      1775.64328695    -1663.14297433
  entropy T*S    EENTRO =        -0.00000000
  eigenvalues    EBANDS =      -107.25064274
  atomic energy  EATOM  =      1448.48460880
  Solvation  Ediel_sol  =         0.00000000
  ---------------------------------------------------
  free energy    TOTEN  =       -33.72910137 eV

  energy without entropy =      -33.72910137  energy(sigma->0) =      -33.72910137


--------------------------------------------------------------------------------------------------------




--------------------------------------- Iteration      1(   8)  ---------------------------------------


    POTLOK:  cpu time      0.0075: real time      0.0077
    SETDIJ:  cpu time      0.2164: real time      0.2171
     EDDAV:  cpu time      0.3811: real time      0.3832
       DOS:  cpu time      0.0006: real time      0.0006
    CHARGE:  cpu time      0.0055: real time      0.0055
    MIXING:  cpu time      0.0005: real time      0.0005
    --------------------------------------------
      LOOP:  cpu time      0.6116: real time      0.6146

 eigenvalue-minimisations  :  3088
 total energy-change (2. order) : 0.1077251E-02  (-0.2189878E-02)
 number of electron      39.9999969 magnetization 
 augmentation part       -7.3428487 magnetization 

 Broyden mixing:
  rms(total) = 0.18447E-01    rms(broyden)= 0.18447E-01
  rms(prec ) = 0.22320E-01
  weight for this iteration     100.00

 eigenvalues of (default mixing * dielectric matrix)
  average eigenvalue GAMMA=   1.6889
  2.5186  1.2740  1.2740

 Free energy of the ion-electron system (eV)
  ---------------------------------------------------
  alpha Z        PSCENC =        83.74935623
  Ewald energy   TEWEN  =     -1384.35989280
  -Hartree energ DENC   =      -154.40545359
  -exchange      EXHF   =         0.00000000
  -V(xc)+E(xc)   XCENC  =       -32.51121768
  PAW double counting   =      1913.28520258    -1800.84361452
  entropy T*S    EENTRO =        -0.00000000
  eigenvalues    EBANDS =      -107.12701315
  atomic energy  EATOM  =      1448.48460880
  Solvation  Ediel_sol  =         0.00000000
  ---------------------------------------------------
  free energy    TOTEN  =       -33.72802412 eV

  energy without entropy =      -33.72802412  energy(sigma->0) =      -33.72802412


--------------------------------------------------------------------------------------------------------




--------------------------------------- Iteration      1(   9)  ---------------------------------------


    POTLOK:  cpu time      0.0079: real time      0.0080
    SETDIJ:  cpu time      0.2170: real time      0.2177
     EDDAV:  cpu time      0.4020: real time      0.4038
       DOS:  cpu time      0.0006: real time      0.0006
    CHARGE:  cpu time      0.0054: real time      0.0055
    MIXING:  cpu time      0.0005: real time      0.0005
    --------------------------------------------
      LOOP:  cpu time      0.6334: real time      0.6361

 eigenvalue-minimisations  :  3296
 total energy-change (2. order) :-0.3984229E-03  (-0.3549527E-03)
 number of electron      39.9999969 magnetization 
 augmentation part       -7.3411439 magnetization 

 Broyden mixing:
  rms(total) = 0.70109E-02    rms(broyden)= 0.70109E-02
  rms(prec ) = 0.77839E-02
  weight for this iteration     100.00

 eigenvalues of (default mixing * dielectric matrix)
  average eigenvalue GAMMA=   1.7372
  2.3100  2.3100  1.1644  1.1644

 Free energy of the ion-electron system (eV)
  ---------------------------------------------------
  alpha Z        PSCENC =        83.74935623
  Ewald energy   TEWEN  =     -1384.35989280
  -Hartree energ DENC   =      -154.79133714
  -exchange      EXHF   =         0.00000000
  -V(xc)+E(xc)   XCENC  =       -32.46578864
  PAW double counting   =      1929.22189928    -1816.79052509
  entropy T*S    EENTRO =        -0.00000000
  eigenvalues    EBANDS =      -106.77674318
  atomic energy  EATOM  =      1448.48460880
  Solvation  Ediel_sol  =         0.00000000
  ---------------------------------------------------
  free energy    TOTEN  =       -33.72842254 eV

  energy without entropy =      -33.72842254  energy(sigma->0) =      -33.72842254


--------------------------------------------------------------------------------------------------------




--------------------------------------- Iteration      1(  10)  ---------------------------------------


    POTLOK:  cpu time      0.0078: real time      0.0079
    SETDIJ:  cpu time      0.2158: real time      0.2164
     EDDAV:  cpu time      0.3668: real time      0.3693
       DOS:  cpu time      0.0005: real time      0.0005
    CHARGE:  cpu time      0.0053: real time      0.0053
    MIXING:  cpu time      0.0006: real time      0.0006
    --------------------------------------------
      LOOP:  cpu time      0.5969: real time      0.6001

 eigenvalue-minimisations  :  3184
 total energy-change (2. order) :-0.1293600E-03  (-0.3032285E-04)
 number of electron      39.9999969 magnetization 
 augmentation part       -7.3410526 magnetization 

 Broyden mixing:
  rms(total) = 0.25677E-02    rms(broyden)= 0.25677E-02
  rms(prec ) = 0.30923E-02
  weight for this iteration     100.00

 eigenvalues of (default mixing * dielectric matrix)
  average eigenvalue GAMMA=   1.7506
  2.7194  2.4697  1.1050  1.2294  1.2294

 Free energy of the ion-electron system (eV)
  ---------------------------------------------------
  alpha Z        PSCENC =        83.74935623
  Ewald energy   TEWEN  =     -1384.35989280
  -Hartree energ DENC   =      -154.82953598
  -exchange      EXHF   =         0.00000000
  -V(xc)+E(xc)   XCENC  =       -32.46238287
  PAW double counting   =      1921.72987416    -1809.29273848
  entropy T*S    EENTRO =        -0.00000000
  eigenvalues    EBANDS =      -106.74784096
  atomic energy  EATOM  =      1448.48460880
  Solvation  Ediel_sol  =         0.00000000
  ---------------------------------------------------
  free energy    TOTEN  =       -33.72855190 eV

  energy without entropy =      -33.72855190  energy(sigma->0) =      -33.72855190


--------------------------------------------------------------------------------------------------------




--------------------------------------- Iteration      1(  11)  ---------------------------------------


    POTLOK:  cpu time      0.0076: real time      0.0077
    SETDIJ:  cpu time      0.2150: real time      0.2154
     EDDAV:  cpu time      0.3610: real time      0.3629
       DOS:  cpu time      0.0005: real time      0.0005
    CHARGE:  cpu time      0.0054: real time      0.0054
    MIXING:  cpu time      0.0005: real time      0.0005
    --------------------------------------------
      LOOP:  cpu time      0.5899: real time      0.5925

 eigenvalue-minimisations  :  3088
 total energy-change (2. order) :-0.3554005E-04  (-0.4493457E-05)
 number of electron      39.9999969 magnetization 
 augmentation part       -7.3412248 magnetization 

 Broyden mixing:
  rms(total) = 0.12385E-02    rms(broyden)= 0.12385E-02
  rms(prec ) = 0.13776E-02
  weight for this iteration     100.00

 eigenvalues of (default mixing * dielectric matrix)
  average eigenvalue GAMMA=   1.7152
  2.5011  2.5011  2.0280  1.1692  1.1692  0.9229

 Free energy of the ion-electron system (eV)
  ---------------------------------------------------
  alpha Z        PSCENC =        83.74935623
  Ewald energy   TEWEN  =     -1384.35989280
  -Hartree energ DENC   =      -154.86373351
  -exchange      EXHF   =         0.00000000
  -V(xc)+E(xc)   XCENC  =       -32.45510641
  PAW double counting   =      1923.47724143    -1811.04046689
  entropy T*S    EENTRO =        -0.00000000
  eigenvalues    EBANDS =      -106.72059431
  atomic energy  EATOM  =      1448.48460880
  Solvation  Ediel_sol  =         0.00000000
  ---------------------------------------------------
  free energy    TOTEN  =       -33.72858744 eV

  energy without entropy =      -33.72858744  energy(sigma->0) =      -33.72858744


--------------------------------------------------------------------------------------------------------




--------------------------------------- Iteration      1(  12)  ---------------------------------------


    POTLOK:  cpu time      0.0076: real time      0.0077
    SETDIJ:  cpu time      0.2181: real time      0.2189
     EDDAV:  cpu time      0.4227: real time      0.4252
       DOS:  cpu time      0.0112: real time      0.0113
    --------------------------------------------
      LOOP:  cpu time      0.6596: real time      0.6631

 eigenvalue-minimisations  :  3312
 total energy-change (2. order) :-0.9530595E-06  (-0.6153512E-06)
 number of electron      39.9999969 magnetization 
 augmentation part       -7.3412248 magnetization 

 Free energy of the ion-electron system (eV)
  ---------------------------------------------------
  alpha Z        PSCENC =        83.74935623
  Ewald energy   TEWEN  =     -1384.35989280
  -Hartree energ DENC   =      -154.87836492
  -exchange      EXHF   =         0.00000000
  -V(xc)+E(xc)   XCENC  =       -32.45408202
  PAW double counting   =      1922.76491959    -1810.32801319
  entropy T*S    EENTRO =        -0.00000000
  eigenvalues    EBANDS =      -106.70712009
  atomic energy  EATOM  =      1448.48460880
  Solvation  Ediel_sol  =         0.00000000
  ---------------------------------------------------
  free energy    TOTEN  =       -33.72858840 eV

  energy without entropy =      -33.72858840  energy(sigma->0) =      -33.72858840


--------------------------------------------------------------------------------------------------------




 average (electrostatic) potential at core
  the test charge radii are     1.1631  1.0808
  (the norm of the test charge is              1.0000)
       1 -33.8134       2 -33.8134       3 -33.8134       4 -33.8134       5 -55.3069
       6 -55.3069       7 -55.3069       8 -55.3069
 
 
 
 E-fermi :   3.1427     XC(G=0):  -9.0650     alpha+bet : -8.3433

 Fermi energy:         3.1427115797

 k-point     1 :       0.0000    0.0000    0.0000
  band No.  band energies     occupation 
      1     -11.2124      2.00000
      2     -11.0073      2.00000
      3      -9.9411      2.00000
      4      -9.6351      2.00000
      5      -5.0364      2.00000
      6      -4.4323      2.00000
      7      -3.0896      2.00000
      8      -2.4909      2.00000
      9      -2.0250      2.00000
     10      -0.6720      2.00000
     11      -0.5892      2.00000
     12      -0.4324      2.00000
     13      -0.0120      2.00000
     14       0.0640      2.00000
     15       1.1150      2.00000
     16       1.2731      2.00000
     17       1.3718      2.00000
     18       1.6460      2.00000
     19       2.1792      2.00000
     20       2.9416      2.00000
     21       3.3416      0.00000
     22       5.3335      0.00000
     23       5.5138      0.00000
     24       5.8528      0.00000
     25       5.9365      0.00000
     26       6.5798      0.00000
     27       6.5821      0.00000
     28       6.8082      0.00000
     29       7.5353      0.00000
     30       8.1610      0.00000
     31       8.3975      0.00000
     32       8.8488      0.00000

 k-point     2 :       0.1667    0.0000    0.0000
  band No.  band energies     occupation 
      1     -11.0269      2.00000
      2     -10.8294      2.00000
      3      -9.8385      2.00000
      4      -9.5649      2.00000
      5      -5.2403      2.00000
      6      -4.6750      2.00000
      7      -3.4952      2.00000
      8      -2.9984      2.00000
      9      -1.8335      2.00000
     10      -0.5404      2.00000
     11      -0.4738      2.00000
     12      -0.4228      2.00000
     13      -0.1958      2.00000
     14       0.0006      2.00000
     15       0.8589      2.00000
     16       1.0807      2.00000
     17       1.4551      2.00000
     18       1.9416      2.00000
     19       1.9893      2.00000
     20       2.8109      2.00000
     21       3.5763      0.00000
     22       5.1141      0.00000
     23       5.6209      0.00000
     24       5.8586      0.00000
     25       6.1274      0.00000
     26       6.3455      0.00000
     27       6.3509      0.00000
     28       6.8179      0.00000
     29       7.2487      0.00000
     30       7.4659      0.00000
     31       7.7023      0.00000
     32       8.5229      0.00000

 k-point     3 :       0.3333    0.0000    0.0000
  band No.  band energies     occupation 
      1     -10.5242      2.00000
      2     -10.3539      2.00000
      3      -9.6904      2.00000
      4      -9.5154      2.00000
      5      -5.6414      2.00000
      6      -5.1111      2.00000
      7      -4.5672      2.00000
      8      -4.0712      2.00000
      9      -1.2465      2.00000
     10      -0.4872      2.00000
     11      -0.3630      2.00000
     12       0.0058      2.00000
     13       0.2131      2.00000
     14       0.4472      2.00000
     15       0.7094      2.00000
     16       1.0736      2.00000
     17       1.3887      2.00000
     18       1.5578      2.00000
     19       2.2241      2.00000
     20       2.4050      2.00000
     21       3.8644      0.00000
     22       4.0912      0.00000
     23       4.4718      0.00000
     24       4.9951      0.00000
     25       5.0775      0.00000
     26       5.3233      0.00000
     27       5.8906      0.00000
     28       6.0518      0.00000
     29       6.4888      0.00000
     30       6.8640      0.00000
     31       6.9314      0.00000
     32       8.2150      0.00000

 k-point     4 :       0.5000    0.0000    0.0000
  band No.  band energies     occupation 
      1      -9.9261      2.00000
      2      -9.9261      2.00000
      3      -9.8016      2.00000
      4      -9.8016      2.00000
      5      -5.4997      2.00000
      6      -5.4997      2.00000
      7      -4.9660      2.00000
      8      -4.9660      2.00000
      9      -0.5041      2.00000
     10      -0.5041      2.00000
     11       0.0905      2.00000
     12       0.0905      2.00000
     13       0.5516      2.00000
     14       0.5516      2.00000
     15       0.9762      2.00000
     16       0.9762      2.00000
     17       1.2131      2.00000
     18       1.2131      2.00000
     19       2.0715      2.00000
     20       2.0715      2.00000
     21       3.9013      0.00000
     22       3.9013      0.00000
     23       4.4153      0.00000
     24       4.4153      0.00000
     25       4.8822      0.00000
     26       4.8822      0.00000
     27       5.1985      0.00000
     28       5.1985      0.00000
     29       5.8480      0.00000
     30       5.8480      0.00000
     31       7.4683      0.00000
     32       7.4683      0.00000

 k-point     5 :       0.0000    0.1667    0.0000
  band No.  band energies     occupation 
      1     -11.0965      2.00000
      2     -10.9009      2.00000
      3      -9.9510      2.00000
      4      -9.6903      2.00000
      5      -5.2831      2.00000
      6      -4.6444      2.00000
      7      -3.7055      2.00000
      8      -3.0369      2.00000
      9      -1.8107      2.00000
     10      -0.3010      2.00000
     11      -0.1062      2.00000
     12       0.0746      2.00000
     13       0.1408      2.00000
     14       0.2044      2.00000
     15       1.2757      2.00000
     16       1.3543      2.00000
     17       1.6728      2.00000
     18       1.6831      2.00000
     19       2.0520      2.00000
     20       2.7125      2.00000
     21       3.6794      0.00000
     22       5.1320      0.00000
     23       5.5229      0.00000
     24       5.5350      0.00000
     25       5.6269      0.00000
     26       6.2074      0.00000
     27       6.3569      0.00000
     28       6.8005      0.00000
     29       7.2275      0.00000
     30       7.5530      0.00000
     31       7.8153      0.00000
     32       8.8109      0.00000

 k-point     6 :       0.1667    0.1667    0.0000
  band No.  band energies     occupation 
      1     -10.9154      2.00000
      2     -10.7299      2.00000
      3      -9.8469      2.00000
      4      -9.6178      2.00000
      5      -5.3464      2.00000
      6      -4.7708      2.00000
      7      -3.8985      2.00000
      8      -3.2986      2.00000
      9      -1.6405      2.00000
     10      -1.0366      2.00000
     11      -0.8143      2.00000
     12      -0.2757      2.00000
     13       0.5101      2.00000
     14       0.5919      2.00000
     15       0.8416      2.00000
     16       0.8543      2.00000
     17       1.6316      2.00000
     18       1.9611      2.00000
     19       2.1911      2.00000
     20       2.7465      2.00000
     21       3.8862      0.00000
     22       4.8863      0.00000
     23       5.0834      0.00000
     24       5.4653      0.00000
     25       5.8870      0.00000
     26       6.3607      0.00000
     27       6.5467      0.00000
     28       6.5962      0.00000
     29       7.3897      0.00000
     30       7.4588      0.00000
     31       7.5334      0.00000
     32       8.6347      0.00000

 k-point     7 :       0.1667   -0.1667    0.0000
  band No.  band energies     occupation 
      1     -10.9178      2.00000
      2     -10.7274      2.00000
      3      -9.8518      2.00000
      4      -9.6114      2.00000
      5      -5.3812      2.00000
      6      -4.7355      2.00000
      7      -3.8578      2.00000
      8      -3.3513      2.00000
      9      -1.6483      2.00000
     10      -0.9804      2.00000
     11      -0.8793      2.00000
     12      -0.2578      2.00000
     13       0.5230      2.00000
     14       0.6125      2.00000
     15       0.8507      2.00000
     16       0.8833      2.00000
     17       1.7126      2.00000
     18       1.8350      2.00000
     19       2.3175      2.00000
     20       2.5699      2.00000
     21       3.8166      0.00000
     22       4.7647      0.00000
     23       5.1897      0.00000
     24       5.2884      0.00000
     25       6.0686      0.00000
     26       6.5104      0.00000
     27       6.8561      0.00000
     28       6.9643      0.00000
     29       7.0673      0.00000
     30       7.2193      0.00000
     31       7.4925      0.00000
     32       8.5659      0.00000

 k-point     8 :       0.3333    0.1667    0.0000
  band No.  band energies     occupation 
      1     -10.4327      2.00000
      2     -10.2770      2.00000
      3      -9.6896      2.00000
      4      -9.5416      2.00000
      5      -5.5477      2.00000
      6      -5.0596      2.00000
      7      -4.6173      2.00000
      8      -4.1213      2.00000
      9      -1.2247      2.00000
     10      -1.1588      2.00000
     11      -1.1290      2.00000
     12      -0.3774      2.00000
     13       0.3466      2.00000
     14       0.5504      2.00000
     15       0.6426      2.00000
     16       0.9371      2.00000
     17       1.1489      2.00000
     18       1.6009      2.00000
     19       1.8039      2.00000
     20       2.6117      2.00000
     21       3.9039      0.00000
     22       4.5924      0.00000
     23       4.7969      0.00000
     24       5.0250      0.00000
     25       5.3577      0.00000
     26       5.9655      0.00000
     27       6.2190      0.00000
     28       6.2827      0.00000
     29       6.9315      0.00000
     30       7.4590      0.00000
     31       7.9437      0.00000
     32       8.1154      0.00000

 k-point     9 :       0.3333   -0.1667    0.0000
  band No.  band energies     occupation 
      1     -10.4383      2.00000
      2     -10.2711      2.00000
      3      -9.6980      2.00000
      4      -9.5310      2.00000
      5      -5.6018      2.00000
      6      -5.0046      2.00000
      7      -4.5836      2.00000
      8      -4.1566      2.00000
      9      -1.2830      2.00000
     10      -1.1449      2.00000
     11      -1.1047      2.00000
     12      -0.3550      2.00000
     13       0.2321      2.00000
     14       0.5928      2.00000
     15       0.7425      2.00000
     16       0.9738      2.00000
     17       1.1223      2.00000
     18       1.6449      2.00000
     19       1.9665      2.00000
     20       2.3154      2.00000
     21       3.8520      0.00000
     22       4.5221      0.00000
     23       4.6517      0.00000
     24       5.2747      0.00000
     25       5.3170      0.00000
     26       5.7482      0.00000
     27       6.3982      0.00000
     28       6.8317      0.00000
     29       7.0319      0.00000
     30       7.3602      0.00000
     31       7.8560      0.00000
     32       7.9083      0.00000

 k-point    10 :       0.5000    0.1667    0.0000
  band No.  band energies     occupation 
      1      -9.8868      2.00000
      2      -9.8828      2.00000
      3      -9.7675      2.00000
      4      -9.7638      2.00000
      5      -5.4240      2.00000
      6      -5.3907      2.00000
      7      -4.9211      2.00000
      8      -4.8889      2.00000
      9      -0.8241      2.00000
     10      -0.7355      2.00000
     11      -0.5798      2.00000
     12      -0.4588      2.00000
     13       0.1347      2.00000
     14       0.1406      2.00000
     15       0.2610      2.00000
     16       0.3781      2.00000
     17       1.2617      2.00000
     18       1.3072      2.00000
     19       2.0273      2.00000
     20       2.2286      2.00000
     21       4.0393      0.00000
     22       4.0674      0.00000
     23       4.8906      0.00000
     24       4.9206      0.00000
     25       5.8346      0.00000
     26       5.8436      0.00000
     27       6.0627      0.00000
     28       6.1607      0.00000
     29       6.6509      0.00000
     30       6.6837      0.00000
     31       7.0143      0.00000
     32       7.4693      0.00000

 k-point    11 :       0.0000    0.3333    0.0000
  band No.  band energies     occupation 
      1     -10.7776      2.00000
      2     -10.6131      2.00000
      3     -10.0519      2.00000
      4      -9.8955      2.00000
      5      -5.5727      2.00000
      6      -4.8711      2.00000
      7      -4.6919      2.00000
      8      -3.9556      2.00000
      9      -1.3023      2.00000
     10       0.2151      2.00000
     11       0.4881      2.00000
     12       0.5486      2.00000
     13       0.6033      2.00000
     14       1.0556      2.00000
     15       1.1696      2.00000
     16       1.2527      2.00000
     17       1.3006      2.00000
     18       2.3182      2.00000
     19       2.6004      2.00000
     20       2.7719      2.00000
     21       4.1797      0.00000
     22       4.2630      0.00000
     23       4.5217      0.00000
     24       5.3398      0.00000
     25       5.5235      0.00000
     26       5.6195      0.00000
     27       5.7975      0.00000
     28       6.3459      0.00000
     29       6.5117      0.00000
     30       6.6728      0.00000
     31       7.5548      0.00000
     32       8.7552      0.00000

 k-point    12 :       0.1667    0.3333    0.0000
  band No.  band energies     occupation 
      1     -10.6136      2.00000
      2     -10.4604      2.00000
      3      -9.9429      2.00000
      4      -9.8014      2.00000
      5      -5.4889      2.00000
      6      -4.8303      2.00000
      7      -4.6656      2.00000
      8      -3.9846      2.00000
      9      -1.1357      2.00000
     10      -1.0529      2.00000
     11      -0.7264      2.00000
     12      -0.1283      2.00000
     13       0.2127      2.00000
     14       0.4565      2.00000
     15       0.7801      2.00000
     16       1.4353      2.00000
     17       1.8403      2.00000
     18       1.9384      2.00000
     19       2.3321      2.00000
     20       2.6414      2.00000
     21       4.2200      0.00000
     22       4.8705      0.00000
     23       5.2415      0.00000
     24       5.3979      0.00000
     25       5.5204      0.00000
     26       5.8567      0.00000
     27       6.4774      0.00000
     28       6.8522      0.00000
     29       6.9792      0.00000
     30       7.4760      0.00000
     31       7.7539      0.00000
     32       8.4808      0.00000

 k-point    13 :       0.1667   -0.3333    0.0000
  band No.  band energies     occupation 
      1     -10.6183      2.00000
      2     -10.4555      2.00000
      3      -9.9481      2.00000
      4      -9.7949      2.00000
      5      -5.5153      2.00000
      6      -4.8082      2.00000
      7      -4.6455      2.00000
      8      -4.0044      2.00000
      9      -1.1501      2.00000
     10      -0.9546      2.00000
     11      -0.8397      2.00000
     12      -0.1064      2.00000
     13       0.1355      2.00000
     14       0.6140      2.00000
     15       0.7662      2.00000
     16       1.4985      2.00000
     17       1.7390      2.00000
     18       1.9945      2.00000
     19       2.3195      2.00000
     20       2.5392      2.00000
     21       4.2095      0.00000
     22       4.7757      0.00000
     23       5.2997      0.00000
     24       5.4371      0.00000
     25       5.5907      0.00000
     26       5.7079      0.00000
     27       6.4413      0.00000
     28       6.9610      0.00000
     29       7.3619      0.00000
     30       7.5355      0.00000
     31       7.5908      0.00000
     32       8.3817      0.00000

 k-point    14 :       0.3333    0.3333    0.0000
  band No.  band energies     occupation 
      1     -10.1974      2.00000
      2     -10.0725      2.00000
      3      -9.7451      2.00000
      4      -9.6324      2.00000
      5      -5.3608      2.00000
      6      -4.8633      2.00000
      7      -4.8071      2.00000
      8      -4.3041      2.00000
      9      -1.8311      2.00000
     10      -1.5973      2.00000
     11      -1.0770      2.00000
     12      -0.8277      2.00000
     13      -0.5770      2.00000
     14       0.1438      2.00000
     15       0.3021      2.00000
     16       0.6009      2.00000
     17       0.6065      2.00000
     18       1.5937      2.00000
     19       1.6979      2.00000
     20       2.5063      2.00000
     21       4.0957      0.00000
     22       5.4839      0.00000
     23       5.6290      0.00000
     24       6.0884      0.00000
     25       6.2857      0.00000
     26       6.6035      0.00000
     27       6.7369      0.00000
     28       7.3318      0.00000
     29       7.7665      0.00000
     30       7.9967      0.00000
     31       8.6927      0.00000
     32       8.9805      0.00000

 k-point    15 :       0.3333   -0.3333    0.0000
  band No.  band energies     occupation 
      1     -10.2081      2.00000
      2     -10.0613      2.00000
      3      -9.7513      2.00000
      4      -9.6242      2.00000
      5      -5.4306      2.00000
      6      -4.7943      2.00000
      7      -4.7614      2.00000
      8      -4.3455      2.00000
      9      -1.8181      2.00000
     10      -1.6144      2.00000
     11      -1.1049      2.00000
     12      -0.8342      2.00000
     13      -0.5461      2.00000
     14      -0.0902      2.00000
     15       0.3636      2.00000
     16       0.7395      2.00000
     17       0.8893      2.00000
     18       1.3794      2.00000
     19       1.9073      2.00000
     20       2.1694      2.00000
     21       4.0554      0.00000
     22       5.4356      0.00000
     23       5.8484      0.00000
     24       6.0455      0.00000
     25       6.1021      0.00000
     26       6.9993      0.00000
     27       7.1640      0.00000
     28       7.2532      0.00000
     29       7.7234      0.00000
     30       7.7513      0.00000
     31       8.3277      0.00000
     32       8.9573      0.00000

 k-point    16 :       0.5000    0.3333    0.0000
  band No.  band energies     occupation 
      1      -9.8026      2.00000
      2      -9.7935      2.00000
      3      -9.6959      2.00000
      4      -9.6873      2.00000
      5      -5.2374      2.00000
      6      -5.1609      2.00000
      7      -4.8171      2.00000
      8      -4.7434      2.00000
      9      -1.4728      2.00000
     10      -1.4303      2.00000
     11      -1.2709      2.00000
     12      -1.2280      2.00000
     13      -0.5697      2.00000
     14      -0.5063      2.00000
     15      -0.2014      2.00000
     16      -0.1316      2.00000
     17       0.7574      2.00000
     18       0.8450      2.00000
     19       1.7781      2.00000
     20       2.1983      2.00000
     21       4.8770      0.00000
     22       4.9847      0.00000
     23       5.9334      0.00000
     24       6.3005      0.00000
     25       6.6652      0.00000
     26       6.8101      0.00000
     27       6.9554      0.00000
     28       7.2870      0.00000
     29       7.9240      0.00000
     30       8.0641      0.00000
     31       8.5273      0.00000
     32       8.5709      0.00000

 k-point    17 :       0.0000    0.5000    0.0000
  band No.  band energies     occupation 
      1     -10.3599      2.00000
      2     -10.3599      2.00000
      3     -10.2395      2.00000
      4     -10.2395      2.00000
      5      -5.3948      2.00000
      6      -5.3948      2.00000
      7      -4.6497      2.00000
      8      -4.6497      2.00000
      9      -0.5401      2.00000
     10      -0.5401      2.00000
     11       0.9724      2.00000
     12       0.9724      2.00000
     13       0.9765      2.00000
     14       0.9765      2.00000
     15       1.2306      2.00000
     16       1.2306      2.00000
     17       2.0927      2.00000
     18       2.0927      2.00000
     19       2.5963      2.00000
     20       2.5963      2.00000
     21       4.4727      0.00000
     22       4.4727      0.00000
     23       4.6782      0.00000
     24       4.6782      0.00000
     25       5.1573      0.00000
     26       5.1573      0.00000
     27       5.8194      0.00000
     28       5.8194      0.00000
     29       5.9452      0.00000
     30       5.9452      0.00000
     31       8.2558      0.00000
     32       8.2558      0.00000

 k-point    18 :       0.1667    0.5000    0.0000
  band No.  band energies     occupation 
      1     -10.2306      2.00000
      2     -10.2269      2.00000
      3     -10.1125      2.00000
      4     -10.1090      2.00000
      5      -5.2938      2.00000
      6      -5.2790      2.00000
      7      -4.5831      2.00000
      8      -4.5735      2.00000
      9      -0.6348      2.00000
     10      -0.6064      2.00000
     11      -0.3861      2.00000
     12      -0.3614      2.00000
     13      -0.2620      2.00000
     14      -0.1741      2.00000
     15       1.0649      2.00000
     16       1.1860      2.00000
     17       1.8123      2.00000
     18       2.1876      2.00000
     19       2.4606      2.00000
     20       2.5364      2.00000
     21       4.5077      0.00000
     22       4.5546      0.00000
     23       5.3915      0.00000
     24       5.4355      0.00000
     25       5.8048      0.00000
     26       5.8869      0.00000
     27       6.7867      0.00000
     28       6.8186      0.00000
     29       6.9652      0.00000
     30       6.9733      0.00000
     31       7.9222      0.00000
     32       8.0796      0.00000

 k-point    19 :       0.3333    0.5000    0.0000
  band No.  band energies     occupation 
      1      -9.9330      2.00000
      2      -9.9244      2.00000
      3      -9.8242      2.00000
      4      -9.8161      2.00000
      5      -5.1391      2.00000
      6      -5.0878      2.00000
      7      -4.5943      2.00000
      8      -4.5509      2.00000
      9      -1.7430      2.00000
     10      -1.6761      2.00000
     11      -1.3971      2.00000
     12      -1.3297      2.00000
     13      -0.3447      2.00000
     14      -0.3369      2.00000
     15       0.0650      2.00000
     16       0.3957      2.00000
     17       0.7789      2.00000
     18       0.9858      2.00000
     19       1.8717      2.00000
     20       2.1729      2.00000
     21       4.8940      0.00000
     22       4.9565      0.00000
     23       6.3805      0.00000
     24       6.7329      0.00000
     25       7.1637      0.00000
     26       7.1798      0.00000
     27       7.3451      0.00000
     28       7.4171      0.00000
     29       8.2694      0.00000
     30       8.4585      0.00000
     31       8.6257      0.00000
     32       8.7300      0.00000

 k-point    20 :       0.5000    0.5000    0.0000
  band No.  band energies     occupation 
      1      -9.7583      2.00000
      2      -9.7460      2.00000
      3      -9.6594      2.00000
      4      -9.6478      2.00000
      5      -5.1330      2.00000
      6      -5.0271      2.00000
      7      -4.7678      2.00000
      8      -4.6667      2.00000
      9      -1.7101      2.00000
     10      -1.6487      2.00000
     11      -1.6249      2.00000
     12      -1.5641      2.00000
     13      -0.8307      2.00000
     14      -0.7702      2.00000
     15      -0.5429      2.00000
     16      -0.5071      2.00000
     17       0.6445      2.00000
     18       0.8543      2.00000
[...]
     32       7.7750      0.00000

 k-point    32 :       0.1667    0.3333    0.5000
  band No.  band energies     occupation 
      1     -10.5455      2.00000
      2     -10.5455      2.00000
      3      -9.8637      2.00000
      4      -9.8637      2.00000
      5      -5.2511      2.00000
      6      -5.2511      2.00000
      7      -4.2662      2.00000
      8      -4.2662      2.00000
      9      -0.9948      2.00000
     10      -0.9948      2.00000
     11      -0.3268      2.00000
     12      -0.3268      2.00000
     13       0.1681      2.00000
     14       0.1681      2.00000
     15       1.0347      2.00000
     16       1.0347      2.00000
     17       1.9275      2.00000
     18       1.9275      2.00000
     19       2.2988      2.00000
     20       2.2988      2.00000
     21       5.0065      0.00000
     22       5.0065      0.00000
     23       5.2314      0.00000
     24       5.2314      0.00000
     25       5.7523      0.00000
     26       5.7523      0.00000
     27       6.7148      0.00000
     28       6.7148      0.00000
     29       7.0981      0.00000
     30       7.0981      0.00000
     31       7.8331      0.00000
     32       7.8331      0.00000

 k-point    33 :       0.1667   -0.3333    0.5000
  band No.  band energies     occupation 
      1     -10.5467      2.00000
      2     -10.5467      2.00000
      3      -9.8618      2.00000
      4      -9.8618      2.00000
      5      -5.2633      2.00000
      6      -5.2633      2.00000
      7      -4.2511      2.00000
      8      -4.2511      2.00000
      9      -0.9785      2.00000
     10      -0.9785      2.00000
     11      -0.3560      2.00000
     12      -0.3560      2.00000
     13       0.1293      2.00000
     14       0.1293      2.00000
     15       1.1254      2.00000
     16       1.1254      2.00000
     17       1.8912      2.00000
     18       1.8912      2.00000
     19       2.3053      2.00000
     20       2.3053      2.00000
     21       4.8920      0.00000
     22       4.8920      0.00000
     23       5.2543      0.00000
     24       5.2543      0.00000
     25       5.8741      0.00000
     26       5.8741      0.00000
     27       6.5261      0.00000
     28       6.5261      0.00000
     29       7.3296      0.00000
     30       7.3296      0.00000
     31       7.7849      0.00000
     32       7.7849      0.00000

 k-point    34 :       0.3333    0.3333    0.5000
  band No.  band energies     occupation 
      1     -10.1425      2.00000
      2     -10.1425      2.00000
      3      -9.6815      2.00000
      4      -9.6815      2.00000
      5      -5.1776      2.00000
      6      -5.1776      2.00000
      7      -4.5061      2.00000
      8      -4.5061      2.00000
      9      -1.7570      2.00000
     10      -1.7570      2.00000
     11      -0.8711      2.00000
     12      -0.8711      2.00000
     13      -0.2549      2.00000
     14      -0.2549      2.00000
     15       0.4728      2.00000
     16       0.4728      2.00000
     17       1.1111      2.00000
     18       1.1111      2.00000
     19       1.8671      2.00000
     20       1.8671      2.00000
     21       5.1989      0.00000
     22       5.1989      0.00000
     23       5.7600      0.00000
     24       5.7600      0.00000
     25       6.3789      0.00000
     26       6.3789      0.00000
     27       7.0908      0.00000
     28       7.0908      0.00000
     29       7.5815      0.00000
     30       7.5815      0.00000
     31       8.9717      0.00000
     32       8.9717      0.00000

 k-point    35 :       0.3333   -0.3333    0.5000
  band No.  band energies     occupation 
      1     -10.1452      2.00000
      2     -10.1452      2.00000
      3      -9.6775      2.00000
      4      -9.6775      2.00000
      5      -5.2094      2.00000
      6      -5.2094      2.00000
      7      -4.4660      2.00000
      8      -4.4660      2.00000
      9      -1.7484      2.00000
     10      -1.7484      2.00000
     11      -0.9326      2.00000
     12      -0.9326      2.00000
     13      -0.2341      2.00000
     14      -0.2341      2.00000
     15       0.4796      2.00000
     16       0.4796      2.00000
     17       1.1429      2.00000
     18       1.1429      2.00000
     19       1.8832      2.00000
     20       1.8832      2.00000
     21       5.0156      0.00000
     22       5.0156      0.00000
     23       5.7429      0.00000
     24       5.7429      0.00000
     25       6.4712      0.00000
     26       6.4712      0.00000
     27       7.3454      0.00000
     28       7.3454      0.00000
     29       7.6039      0.00000
     30       7.6039      0.00000
     31       8.8147      0.00000
     32       8.8147      0.00000

 k-point    36 :       0.5000    0.3333    0.5000
  band No.  band energies     occupation 
      1      -9.7946      2.00000
      2      -9.7946      2.00000
      3      -9.6955      2.00000
      4      -9.6955      2.00000
      5      -5.1669      2.00000
      6      -5.1669      2.00000
      7      -4.8192      2.00000
      8      -4.8192      2.00000
      9      -1.4235      2.00000
     10      -1.4235      2.00000
     11      -1.2944      2.00000
     12      -1.2944      2.00000
     13      -0.4423      2.00000
     14      -0.4423      2.00000
     15      -0.3027      2.00000
     16      -0.3027      2.00000
     17       1.2691      2.00000
     18       1.2691      2.00000
     19       1.4647      2.00000
     20       1.4647      2.00000
     21       5.3270      0.00000
     22       5.3270      0.00000
     23       5.9107      0.00000
     24       5.9107      0.00000
     25       6.5947      0.00000
     26       6.5947      0.00000
     27       6.9949      0.00000
     28       6.9949      0.00000
     29       8.2040      0.00000
     30       8.2040      0.00000
     31       8.4164      0.00000
     32       8.4164      0.00000

 k-point    37 :       0.0000    0.5000    0.5000
  band No.  band energies     occupation 
      1     -10.3538      2.00000
      2     -10.3538      2.00000
      3     -10.2464      2.00000
      4     -10.2464      2.00000
      5      -5.3150      2.00000
      6      -5.3150      2.00000
      7      -4.7694      2.00000
      8      -4.7694      2.00000
      9       0.1808      2.00000
     10       0.1808      2.00000
     11       0.2235      2.00000
     12       0.2235      2.00000
     13       0.9780      2.00000
     14       0.9780      2.00000
     15       0.9948      2.00000
     16       0.9948      2.00000
     17       2.2620      2.00000
     18       2.2620      2.00000
     19       2.5976      2.00000
     20       2.5976      2.00000
     21       4.4936      0.00000
     22       4.4936      0.00000
     23       4.5035      0.00000
     24       4.5035      0.00000
     25       5.7175      0.00000
     26       5.7175      0.00000
     27       5.8743      0.00000
     28       5.8743      0.00000
     29       6.2164      0.00000
     30       6.2164      0.00000
     31       7.4173      0.00000
     32       7.4173      0.00000

 k-point    38 :       0.1667    0.5000    0.5000
  band No.  band energies     occupation 
      1     -10.2233      2.00000
      2     -10.2233      2.00000
      3     -10.1169      2.00000
      4     -10.1169      2.00000
      5      -5.2173      2.00000
      6      -5.2173      2.00000
      7      -4.6793      2.00000
      8      -4.6793      2.00000
      9      -0.5732      2.00000
     10      -0.5732      2.00000
     11      -0.4106      2.00000
     12      -0.4106      2.00000
     13       0.3549      2.00000
     14       0.3549      2.00000
     15       0.4790      2.00000
     16       0.4790      2.00000
     17       1.9907      2.00000
     18       1.9907      2.00000
     19       2.3185      2.00000
     20       2.3185      2.00000
     21       5.2001      0.00000
     22       5.2001      0.00000
     23       5.3474      0.00000
     24       5.3474      0.00000
     25       5.8760      0.00000
     26       5.8760      0.00000
     27       6.6642      0.00000
     28       6.6642      0.00000
     29       7.1093      0.00000
     30       7.1093      0.00000
     31       7.4996      0.00000
     32       7.4996      0.00000

 k-point    39 :       0.3333    0.5000    0.5000
  band No.  band energies     occupation 
      1      -9.9250      2.00000
      2      -9.9250      2.00000
      3      -9.8243      2.00000
      4      -9.8243      2.00000
      5      -5.0755      2.00000
      6      -5.0755      2.00000
      7      -4.6214      2.00000
      8      -4.6214      2.00000
      9      -1.6133      2.00000
     10      -1.6133      2.00000
     11      -1.5307      2.00000
     12      -1.5307      2.00000
     13      -0.0208      2.00000
     14      -0.0208      2.00000
     15       0.0026      2.00000
     16       0.0026      2.00000
     17       1.2446      2.00000
     18       1.2446      2.00000
     19       1.4833      2.00000
     20       1.4833      2.00000
     21       5.4082      0.00000
     22       5.4082      0.00000
     23       6.3315      0.00000
     24       6.3315      0.00000
     25       6.9670      0.00000
     26       6.9670      0.00000
     27       7.2794      0.00000
     28       7.2794      0.00000
     29       8.5379      0.00000
     30       8.5379      0.00000
     31       8.6747      0.00000
     32       8.6747      0.00000

 k-point    40 :       0.5000    0.5000    0.5000
  band No.  band energies     occupation 
      1      -9.7500      2.00000
      2      -9.7500      2.00000
      3      -9.6561      2.00000
      4      -9.6561      2.00000
      5      -5.0658      2.00000
      6      -5.0658      2.00000
      7      -4.7354      2.00000
      8      -4.7354      2.00000
      9      -1.6375      2.00000
     10      -1.6375      2.00000
     11      -1.5754      2.00000
     12      -1.5754      2.00000
     13      -0.7800      2.00000
     14      -0.7800      2.00000
     15      -0.7479      2.00000
     16      -0.7479      2.00000
     17       1.3009      2.00000
     18       1.3009      2.00000
     19       1.4705      2.00000
     20       1.4705      2.00000
     21       5.3109      0.00000
     22       5.3109      0.00000
     23       5.9501      0.00000
     24       5.9501      0.00000
     25       7.5587      0.00000
     26       7.5587      0.00000
     27       7.7859      0.00000
     28       7.7859      0.00000
     29       9.0042      0.00000
     30       9.0042      0.00000
     31       9.3469      0.00000
     32       9.3469      0.00000


--------------------------------------------------------------------------------------------------------


 soft charge-density along one line, spin component            1
         0         1         2         3         4         5         6         7         8         9
 total charge-density along one line
 
 pseudopotential strength for first ion, spin component:            1
 14.619  18.242   0.040   0.045   0.001   0.072   0.081   0.001
 18.242  22.777   0.051   0.057   0.001   0.092   0.102   0.002
  0.040   0.051   3.241  -0.003  -0.000   5.519  -0.004  -0.000
  0.045   0.057  -0.003   3.239   0.000  -0.004   5.515   0.000
  0.001   0.001  -0.000   0.000   3.243  -0.000   0.000   5.522
  0.072   0.092   5.519  -0.004  -0.000   9.456  -0.007  -0.000
  0.081   0.102  -0.004   5.515   0.000  -0.007   9.448   0.000
  0.001   0.002  -0.000   0.000   5.522  -0.000   0.000   9.460
 -0.000  -0.000   0.000  -0.000   0.006   0.000  -0.000   0.012
 -0.005  -0.007   0.011   0.013  -0.000   0.021   0.023  -0.000
 -0.004  -0.005  -0.003   0.011  -0.000  -0.006   0.021  -0.001
  0.000   0.000  -0.000  -0.000   0.012  -0.000  -0.000   0.021
  0.002   0.002  -0.012   0.000   0.000  -0.021   0.000   0.000
 total augmentation occupancy for first ion, spin component:            1
  2.729  -0.697   0.336   0.347   0.011  -0.063  -0.063  -0.003  -0.002  -0.011  -0.003  -0.005   0.009
 -0.697   0.654  -0.429  -0.466  -0.013   0.067   0.073   0.002   0.002   0.006   0.006   0.005  -0.005
  0.336  -0.429   1.231   0.057  -0.000  -0.200   0.002   0.000   0.001   0.042  -0.099   0.001   0.001
  0.347  -0.466   0.057   1.337  -0.011   0.002  -0.215   0.004   0.003  -0.020   0.100   0.007  -0.005
  0.011  -0.013  -0.000  -0.011   1.242   0.000   0.004  -0.213   0.144   0.000   0.003   0.034   0.001
 -0.063   0.067  -0.200   0.002   0.000   0.037  -0.002  -0.000  -0.000  -0.007   0.017  -0.000   0.000
 -0.063   0.073   0.002  -0.215   0.004  -0.002   0.039  -0.001  -0.000   0.003  -0.018  -0.001   0.001
 -0.003   0.002   0.000   0.004  -0.213  -0.000  -0.001   0.041  -0.025   0.000  -0.001  -0.006  -0.000
 -0.002   0.002   0.001   0.003   0.144  -0.000  -0.000  -0.025   0.031   0.000  -0.001   0.002  -0.000
 -0.011   0.006   0.042  -0.020   0.000  -0.007   0.003   0.000   0.000   0.011  -0.006   0.000   0.001
 -0.003   0.006  -0.099   0.100   0.003   0.017  -0.018  -0.001  -0.001  -0.006   0.031  -0.001  -0.002
 -0.005   0.005   0.001   0.007   0.034  -0.000  -0.001  -0.006   0.002   0.000  -0.001   0.010  -0.000
  0.009  -0.005   0.001  -0.005   0.001   0.000   0.001  -0.000  -0.000   0.001  -0.002  -0.000   0.008


------------------------ aborting loop because EDIFF is reached ----------------------------------------


    CHARGE:  cpu time      0.0059: real time      0.0059
    FORLOC:  cpu time      0.0002: real time      0.0002
    FORNL :  cpu time      0.0274: real time      0.0274
    STRESS:  cpu time      0.2781: real time      0.2793
    FORCOR:  cpu time      0.0069: real time      0.0070
    FORHAR:  cpu time      0.0017: real time      0.0017
    MIXING:  cpu time      0.0006: real time      0.0006
    OFIELD:  cpu time      0.0000: real time      0.0000

  FORCE on cell =-STRESS in cart. coord.  units (eV):
  Direction    XX          YY          ZZ          XY          YZ          ZX
  --------------------------------------------------------------------------------------
  Alpha Z    83.74936    83.74936    83.74936
  Ewald    -407.18458  -449.52032  -527.65655     2.01209    -0.00000     0.00000
  Hartree    79.25951    62.40890    13.21808     1.32615    -0.00000    -0.00000
  E(xc)    -140.91453  -140.93300  -141.41894     0.00169     0.00000     0.00000
  Local    -232.76012  -179.36682   -56.88230    -3.75777     0.00001     0.00000
  n-local   240.35102   239.82060   241.85305     0.07212    -0.00000     0.00000
  augment   -11.38246   -11.75664   -12.18813    -0.02805    -0.00000     0.00000
  Kinetic   389.44344   395.63111   399.64846     0.31792    -0.00000    -0.00000
  Fock        0.00000     0.00000     0.00000     0.00000     0.00000     0.00000
  -------------------------------------------------------------------------------------
  Total       0.56164     0.03319     0.32301    -0.05585    -0.00000    -0.00000
  in kB       4.44756     0.26283     2.55791    -0.44225    -0.00001    -0.00001
  external pressure =        2.42 kB  Pullay stress =        0.00 kB


 VOLUME and BASIS-vectors are now :
 -----------------------------------------------------------------------------
  energy-cutoff  :      360.00
  volume of cell :      202.32
      direct lattice vectors                 reciprocal lattice vectors
     3.858100176  0.000000000  0.000000000     0.259194929  0.000000000  0.000000000
     0.000000000  4.526575088  0.000000000     0.000000000  0.220917577  0.000000000
     0.000000000  0.000000000 11.585176468     0.000000000  0.000000000  0.086317200

  length of vectors
     3.858100176  4.526575088 11.585176468     0.259194929  0.220917577  0.086317200


 FORCES acting on ions
    electron-ion (+dipol)            ewald-force                    non-local-force                 convergence-correction
 -----------------------------------------------------------------------------------------------
   0.522E+00 0.141E+02 0.318E+02   -.557E+00 -.166E+02 -.346E+02   0.656E-01 0.249E+01 0.295E+01   0.102E-04 0.194E-03 -.149E-02
   0.522E+00 0.141E+02 -.318E+02   -.557E+00 -.166E+02 0.346E+02   0.656E-01 0.249E+01 -.295E+01   0.101E-04 0.194E-03 0.149E-02
   -.522E+00 -.141E+02 -.318E+02   0.557E+00 0.166E+02 0.346E+02   -.657E-01 -.249E+01 -.295E+01   -.103E-04 -.194E-03 0.150E-02
   -.522E+00 -.141E+02 0.318E+02   0.557E+00 0.166E+02 -.346E+02   -.657E-01 -.249E+01 0.295E+01   -.985E-05 -.194E-03 -.150E-02
   0.600E+00 -.152E+02 -.366E+02   -.565E+00 0.167E+02 0.384E+02   -.778E-01 -.147E+01 -.187E+01   -.149E-03 0.514E-05 0.306E-02
   0.600E+00 -.152E+02 0.366E+02   -.565E+00 0.167E+02 -.384E+02   -.778E-01 -.147E+01 0.187E+01   -.149E-03 0.317E-05 -.306E-02
   -.600E+00 0.152E+02 0.366E+02   0.565E+00 -.167E+02 -.384E+02   0.782E-01 0.147E+01 0.187E+01   0.149E-03 -.215E-05 -.307E-02
   -.600E+00 0.152E+02 -.366E+02   0.565E+00 -.167E+02 0.384E+02   0.782E-01 0.147E+01 -.187E+01   0.150E-03 -.341E-05 0.306E-02
 -----------------------------------------------------------------------------------------------
   0.346E-04 -.746E-05 -.182E-05   0.500E-14 0.355E-14 -.213E-13   0.492E-03 -.548E-04 -.817E-06   0.142E-05 0.373E-05 0.346E-06
 
 
 POSITION                                       TOTAL-FORCE (eV/Angst)
 -----------------------------------------------------------------------------------
      1.74733      4.37181      1.52892         0.030231      0.004091      0.104714
      3.67638      2.10852      4.26367         0.030231      0.004091     -0.104717
      2.89357      4.09092     10.05626        -0.030520     -0.003894     -0.104805
      0.96452      1.82763      7.32150        -0.030519     -0.003893      0.104805
      1.74733      3.84320      4.06767        -0.042649      0.027829     -0.026891
      3.67638      1.57991      1.72492        -0.042649      0.027829      0.026894
      2.89357      0.09295      7.51751         0.042938     -0.028027      0.027227
      0.96452      2.35624      9.86026         0.042937     -0.028027     -0.027227
 -----------------------------------------------------------------------------------
    total drift:                                0.000528     -0.000059     -0.000002


--------------------------------------------------------------------------------------------------------



  FREE ENERGIE OF THE ION-ELECTRON SYSTEM (eV)
  ---------------------------------------------------
  free  energy   TOTEN  =       -33.72858840 eV

  energy  without entropy=      -33.72858840  energy(sigma->0) =      -33.72858840
 


--------------------------------------------------------------------------------------------------------


    POTLOK:  cpu time      0.2224: real time      0.2229


--------------------------------------------------------------------------------------------------------


     LOOP+:  cpu time      7.1579: real time      7.1947
    4ORBIT:  cpu time      0.0000: real time      0.0000

 total amount of memory used by VASP MPI-rank0    37119. kBytes
=======================================================================

   base      :      30000. kBytes
   nonl-proj :       5406. kBytes
   fftplans  :        334. kBytes
   grid      :        503. kBytes
   one-center:         16. kBytes
   wavefun   :        860. kBytes
 
  
  
 General timing and accounting informations for this job:
 ========================================================
  
                  Total CPU time used (sec):        8.752
                            User time (sec):        8.508
                          System time (sec):        0.245
                         Elapsed time (sec):        9.070
  
                   Maximum memory used (kb):      176660.
                   Average memory used (kb):          N/A
  
                          Minor page faults:        17375
                          Major page faults:           33
                 Voluntary context switches:         1997
