 vasp.6.4.2 20Jul23 (build Oct 12 2023 10:31:02) complex                         
 executed on              LinuxNV date 2024.11.01  21:45:08
 running  128 mpi-ranks, with    1 threads/rank, on    2 nodes
 distrk:  each k-point on   64 cores,    2 groups
 distr:  one band on NCORE=   8 cores,    8 groups


--------------------------------------------------------------------------------------------------------


 INCAR:
   ENCUT = 520.000000
   SIGMA = 0.050000
   EDIFF = 1.00e-06
   ALGO = N
   GGA = PE
   PREC = Accurate
   SYSTEM = 01_AOPT
   ICHARG = 0
   ISMEAR = 0
   ISPIN = 2
   ISTART = 1
   ISYM = -1
   KPAR = 2
   LORBIT = 11
   NBANDS = 220
   NELM = 100
   NELMIN = 5
   NPAR = 8
   LASPH = .TRUE.
   LCHARG = .FALSE.
   LWAVE = .FALSE.
   LREAL = .FALSE.

 POTCAR:    PAW_PBE Ge 05Jan2001                  
 POTCAR:    PAW_PBE Se 06Sep2000                  
 -----------------------------------------------------------------------------
|                                                                             |
|           W    W    AA    RRRRR   N    N  II  N    N   GGGG   !!!           |
|           W    W   A  A   R    R  NN   N  II  NN   N  G    G  !!!           |
|           W    W  A    A  R    R  N N  N  II  N N  N  G       !!!           |
|           W WW W  AAAAAA  RRRRR   N  N N  II  N  N N  G  GGG   !            |
|           WW  WW  A    A  R   R   N   NN  II  N   NN  G    G                |
|           W    W  A    A  R    R  N    N  II  N    N   GGGG   !!!           |
|                                                                             |
|     You use a magnetic or noncollinear calculation, but did not specify     |
|     the initial magnetic moment with the MAGMOM tag. Note that a            |
|     default of 1 will be used for all atoms. This ferromagnetic setup       |
|     may break the symmetry of the crystal, in particular it may rule        |
|     out finding an antiferromagnetic solution. Thence, we recommend         |
|     setting the initial magnetic moment manually or verifying carefully     |
|     that this magnetic setup is desired.                                    |
|                                                                             |
 -----------------------------------------------------------------------------

 POTCAR:    PAW_PBE Ge 05Jan2001                  
   VRHFIN =Ge: s2p2                                                                                 
   LEXCH  = PE                                                                                      
   EATOM  =   104.9960 eV,    7.7170 Ry                                                             
                                                                                                    
   TITEL  = PAW_PBE Ge 05Jan2001                                                                    
   LULTRA =        F    use ultrasoft PP ?                                                          
   IUNSCR =        1    unscreen: 0-lin 1-nonlin 2-no                                               
   RPACOR =    2.170    partial core radius                                                         
   POMASS =   72.610; ZVAL   =    4.000    mass and valenz                                          
   RCORE  =    2.300    outmost cutoff radius                                                       
   RWIGS  =    2.300; RWIGS  =    1.217    wigner-seitz radius (au A)                               
   ENMAX  =  173.807; ENMIN  =  130.355 eV                                                          
   ICORE  =        3    local potential                                                             
   LCOR   =        T    correct aug charges                                                         
   LPAW   =        T    paw PP                                                                      
   EAUG   =  385.843                                                                                
   DEXC   =    0.000                                                                                
   RMAX   =    2.342    core radius for proj-oper                                                   
   RAUG   =    1.300    factor for augmentation sphere                                              
   RDEP   =    2.318    radius for radial grids                                                     
   RDEPT  =    2.103    core radius for aug-charge                                                  
                                                                                                    
   Atomic configuration                                                                             
   10 entries                                                                                       
     n  l   j            E        occ.                                                              
     1  0  0.50    -10959.8463   2.0000                                                             
     2  0  0.50     -1371.6056   2.0000                                                             
     2  1  1.50     -1198.4791   6.0000                                                             
     3  0  0.50      -168.4733   2.0000                                                             
     3  1  1.50      -115.6019   6.0000                                                             
     3  2  2.50       -29.3106  10.0000                                                             
     4  0  0.50       -11.7309   2.0000                                                             
     4  1  0.50        -3.8952   2.0000                                                             
     4  2  1.50        -4.0817   0.0000                                                             
     4  3  2.50        -4.0817   0.0000                                                             
   Description                                                                                      
     l       E           TYP  RCUT    TYP  RCUT                                                     
     0    -11.7309493     23  2.300                                                                 
     0     -7.4578696     23  2.300                                                                 
     1     -3.8952261     23  2.300                                                                 
     1      6.1178114     23  2.300                                                                 
     2     -4.0817478     23  2.300                                                                 
     3     -1.3605826      7  2.300                                                                 
  local pseudopotential read in
  partial core-charges read in
  partial kinetic energy density read in
  atomic valenz-charges read in
  non local Contribution for L=            0  read in
    real space projection operators read in
  non local Contribution for L=            0  read in
    real space projection operators read in
  non local Contribution for L=            1  read in
    real space projection operators read in
  non local Contribution for L=            1  read in
    real space projection operators read in
  non local Contribution for L=            2  read in
    real space projection operators read in
    PAW grid and wavefunctions read in
 
   number of l-projection  operators is LMAX  =            5
   number of lm-projection operators is LMMAX =           13
 
 POTCAR:    PAW_PBE Se 06Sep2000                  
   VRHFIN =Se: s2p4                                                                                 
   LEXCH  = PE                                                                                      
   EATOM  =   257.1286 eV,   18.8984 Ry                                                             
                                                                                                    
   TITEL  = PAW_PBE Se 06Sep2000                                                                    
   LULTRA =        F    use ultrasoft PP ?                                                          
   IUNSCR =        1    unscreen: 0-lin 1-nonlin 2-no                                               
   RPACOR =    1.900    partial core radius                                                         
   POMASS =   78.960; ZVAL   =    6.000    mass and valenz                                          
   RCORE  =    2.100    outmost cutoff radius                                                       
   RWIGS  =    2.200; RWIGS  =    1.164    wigner-seitz radius (au A)                               
   ENMAX  =  211.555; ENMIN  =  158.666 eV                                                          
   ICORE  =        3    local potential                                                             
   LCOR   =        T    correct aug charges                                                         
   LPAW   =        T    paw PP                                                                      
   EAUG   =  446.842                                                                                
   DEXC   =    0.000                                                                                
   RMAX   =    2.147    core radius for proj-oper                                                   
   RAUG   =    1.300    factor for augmentation sphere                                              
   RDEP   =    2.177    radius for radial grids                                                     
   RDEPT  =    1.928    core radius for aug-charge                                                  
                                                                                                    
   Atomic configuration                                                                             
   10 entries                                                                                       
     n  l   j            E        occ.                                                              
     1  0  0.50    -12503.4787   2.0000                                                             
     2  0  0.50     -1606.9547   2.0000                                                             
     2  1  1.50     -1413.3140   6.0000                                                             
     3  0  0.50      -213.4885   2.0000                                                             
     3  1  1.50      -152.9538   6.0000                                                             
     3  2  2.50       -53.1221  10.0000                                                             
     4  0  0.50       -17.2865   2.0000                                                             
     4  1  0.50        -6.5110   4.0000                                                             
     4  2  2.50        -6.8029   0.0000                                                             
     4  3  2.50        -6.8029   0.0000                                                             
   Description                                                                                      
     l       E           TYP  RCUT    TYP  RCUT                                                     
     0    -17.2865377     23  2.100                                                                 
     0    -15.3094411     23  2.100                                                                 
     1     -6.5110275     23  2.100                                                                 
     1     -0.0695192     23  2.100                                                                 
     2     -6.8029130     23  2.100                                                                 
     3     -1.3605826      7  2.100                                                                 
  local pseudopotential read in
  partial core-charges read in
  partial kinetic energy density read in
  atomic valenz-charges read in
  non local Contribution for L=            0  read in
    real space projection operators read in
  non local Contribution for L=            0  read in
    real space projection operators read in
  non local Contribution for L=            1  read in
    real space projection operators read in
  non local Contribution for L=            1  read in
    real space projection operators read in
  non local Contribution for L=            2  read in
    real space projection operators read in
    PAW grid and wavefunctions read in
 
   number of l-projection  operators is LMAX  =            5
   number of lm-projection operators is LMMAX =           13
 
 -----------------------------------------------------------------------------
|                                                                             |
|               ----> ADVICE to this user running VASP <----                  |
|                                                                             |
|     You have a (more or less) 'large supercell' and for larger cells it     |
|     might be more efficient to use real-space projection operators.         |
|     Therefore, try LREAL= Auto in the INCAR file.                           |
|     Mind: For very accurate calculation, you might also keep the            |
|     reciprocal projection scheme (i.e. LREAL=.FALSE.).                      |
|                                                                             |
 -----------------------------------------------------------------------------

  PAW_PBE Ge 05Jan2001                  :
 energy of atom  1       EATOM= -104.9960
 kinetic energy error for atom=    0.0002 (will be added to EATOM!!)
  PAW_PBE Se 06Sep2000                  :
 energy of atom  2       EATOM= -257.1286
 kinetic energy error for atom=    0.0007 (will be added to EATOM!!)
 
 
 POSCAR: Ge Se
  positions in cartesian coordinates
  No initial velocities read in
 exchange correlation table for  LEXCH =        8
   RHO(1)=    0.500       N(1)  =     2000
   RHO(2)=  100.500       N(2)  =     4000
 


--------------------------------------------------------------------------------------------------------


 ion  position               nearest neighbor table
   1  0.052  0.034  0.142-  45 2.57  54 2.66  55 2.69
   2  0.213  0.856  0.369-  47 2.64  67 2.70  45 2.72
   3  0.559  0.201  0.356-  68 2.45  49 2.67  48 2.78
   4  0.553  0.557  0.383-  50 2.45  69 2.63  72 2.65
   5  0.578  0.883  0.364-  70 2.51  44 2.55  48 2.67
   6  0.914  0.215  0.380-  56 2.58  55 2.65  46 2.75
   7  0.879  0.528  0.381-  71 2.50  72 2.68  56 2.69
   8  0.896  0.862  0.353-  45 2.52  53 2.52  44 2.67
   9  0.055  0.164  0.636-  57 2.42  37 2.69  51 2.80
  10  0.073  0.489  0.626-  58 2.62  43 2.71  38 2.74
  11  0.060  0.811  0.621-  59 2.61  52 2.63  39 2.77
  12  0.396  0.165  0.626-  60 2.53  40 2.67
  13  0.398  0.483  0.633-  61 2.40  41 2.59  38 2.65
  14  0.402  0.822  0.625-  62 2.48  42 2.62  39 2.81
  15  0.735  0.169  0.633-  37 2.50  63 2.71  40 2.79
  16  0.734  0.498  0.628-  64 2.55  43 2.74  41 2.74
  17  0.256  0.546  0.375-  66 2.59  50 2.63  47 2.74
  18  0.236  0.200  0.372-  54 2.47  49 2.61  46 2.65
  19  0.737  0.827  0.621-  65 2.52  42 2.69  52 2.79
  20  0.894  0.656  0.880-  52 2.49  64 2.54  58 2.69
  21  0.899  0.996  0.859-  37 2.51  65 2.71  59 2.73
  22  0.074  0.379  0.131-  71 2.56  46 2.60  66 2.79
  23  0.037  0.683  0.138-  71 2.57  47 2.60  53 2.62
  24  0.375  0.027  0.144-  48 2.43  54 2.46  67 2.77
  25  0.384  0.371  0.121-  49 2.48  66 2.54  69 2.75
  26  0.744  0.037  0.118-  44 2.62  68 2.63  55 2.66
  27  0.707  0.359  0.136-  68 2.66  69 2.67  56 2.70
  28  0.408  0.705  0.116-  67 2.57  50 2.66  70 2.70
  29  0.236  0.327  0.878-  57 2.62  38 2.64  60 2.75
  30  0.252  0.656  0.867-  39 2.60  61 2.61
  31  0.219  0.985  0.871-  51 2.51  59 2.63  62 2.75
  32  0.563  0.306  0.860-  41 2.49  60 2.52  63 2.76
  33  0.581  0.643  0.873-  64 2.54  42 2.57  61 2.72
  34  0.569  0.991  0.871-  40 2.64  65 2.71
  35  0.904  0.330  0.863-  43 2.46  63 2.52  57 2.64
  36  0.713  0.692  0.121-  70 2.48  72 2.59
  37  0.883  0.034  0.637-  15 2.50  21 2.51   9 2.69
  38  0.237  0.343  0.640-  29 2.64  13 2.65  10 2.74
  39  0.233  0.673  0.633-  30 2.60  11 2.77  14 2.81
  40  0.561  0.028  0.636-  34 2.64  12 2.67  15 2.79
  41  0.565  0.359  0.643-  32 2.49  13 2.59  16 2.74
  42  0.568  0.694  0.648-  33 2.57  14 2.62  19 2.69
  43  0.901  0.356  0.643-  35 2.46  10 2.71  16 2.74
  44  0.739  0.008  0.353-   5 2.55  26 2.62   8 2.67
  45  0.046  0.997  0.370-   8 2.52   1 2.57   2 2.72
  46  0.087  0.351  0.364-  22 2.60  18 2.65   6 2.75
  47  0.087  0.685  0.366-  23 2.60   2 2.64  17 2.74
  48  0.419  0.027  0.358-  24 2.43   5 2.67   3 2.78
  49  0.393  0.336  0.341-  25 2.48  18 2.61   3 2.67
  50  0.409  0.690  0.356-   4 2.45  17 2.63  28 2.66
  51  0.219  0.011  0.646-  31 2.51   9 2.80
  52  0.900  0.677  0.656-  20 2.49  11 2.63  19 2.79
  53  0.897  0.839  0.127-   8 2.52  23 2.62
  54  0.227  0.157  0.154-  24 2.46  18 2.47   1 2.66
  55  0.896  0.184  0.143-   6 2.65  26 2.66   1 2.69
  56  0.757  0.350  0.373-   6 2.58   7 2.69  27 2.70
  57  0.071  0.199  0.851-   9 2.42  29 2.62  35 2.64
  58  0.064  0.524  0.860-  10 2.62  20 2.69
  59  0.060  0.847  0.854-  11 2.61  31 2.63  21 2.73
  60  0.402  0.184  0.854-  32 2.52  12 2.53  29 2.75
  61  0.406  0.515  0.847-  13 2.40  30 2.61  33 2.72
  62  0.390  0.847  0.847-  14 2.48  31 2.75
  63  0.754  0.194  0.875-  35 2.52  15 2.71  32 2.76
  64  0.743  0.520  0.857-  33 2.54  20 2.54  16 2.55
  65  0.736  0.854  0.848-  19 2.52  34 2.71  21 2.71
  66  0.248  0.521  0.143-  25 2.54  17 2.59  22 2.79
  67  0.253  0.841  0.129-  28 2.57   2 2.70  24 2.77
  68  0.590  0.180  0.139-   3 2.45  26 2.63  27 2.66
  69  0.554  0.508  0.152-   4 2.63  27 2.67  25 2.75
  70  0.578  0.837  0.142-  36 2.48   5 2.51  28 2.70
  71  0.921  0.514  0.160-   7 2.50  22 2.56  23 2.57
  72  0.727  0.677  0.354-  36 2.59   4 2.65   7 2.68
 

IMPORTANT INFORMATION: All symmetrisations will be switched off!
NOSYMM: (Re-)initialisation of all symmetry stuff for point group C_1.


----------------------------------------------------------------------------------------

                                     Primitive cell                                     

  volume of cell :    1717.2051

  direct lattice vectors                    reciprocal lattice vectors
    12.424626629 -0.000004384 -0.000004302     0.080485316  0.000000028  0.000000036
    -0.000004411 12.502862717  0.000000263     0.000000028  0.079981683 -0.000000002
    -0.000004927  0.000000299 11.054251950     0.000000031 -0.000000002  0.090462928

  length of vectors
    12.424626629 12.502862717 11.054251950     0.080485316  0.079981683  0.090462928

  position of ions in fractional coordinates (direct lattice)
     0.051735840  0.034454822  0.141720099
     0.212513323  0.855620370  0.368679969
     0.558843458  0.201057198  0.356330177
     0.553010165  0.557377598  0.383319093
     0.577663856  0.882916787  0.363521300
     0.913878083  0.214634734  0.379600615
     0.879259838  0.528055367  0.380992964
     0.896464005  0.861637748  0.353241209
     0.055190106  0.163928901  0.636353911
     0.072989653  0.488821803  0.626297499
     0.060223640  0.811355136  0.620915814
     0.395909492  0.164752161  0.625517045
     0.398040081  0.482977193  0.633289983
     0.402467394  0.821847082  0.625258734
     0.734667316  0.169210201  0.633016870
     0.734125954  0.498004807  0.628250925
     0.256088076  0.545721865  0.375482906
     0.236375050  0.199510124  0.371930084
     0.736879816  0.827015799  0.621489029
     0.893974759  0.655814119  0.879720859
     0.899486494  0.996097812  0.859242546
     0.074134092  0.379039359  0.131145583
     0.036756065  0.682820067  0.137704264
     0.375090078  0.026761161  0.144073417
     0.383632422  0.370928938  0.121110052
     0.743576972  0.036539570  0.117913062
     0.707183421  0.358838883  0.135798890
     0.407961839  0.704845749  0.115586727
     0.236029180  0.326927816  0.877878340
     0.252376232  0.655812259  0.866927252
     0.218988759  0.984564642  0.870934828
     0.563128480  0.306458877  0.860426262
     0.580950637  0.643249102  0.872815644
     0.568981619  0.991171988  0.871104041
     0.904463590  0.329744391  0.863171962
     0.712595680  0.691910047  0.120501183
     0.882679846  0.034031327  0.636874741
     0.237421266  0.343057329  0.640186887
     0.233292282  0.672700748  0.633403506
     0.560607813  0.028046633  0.636140096
     0.564614360  0.358606335  0.642659592
     0.568332352  0.693541401  0.647707367
     0.901194774  0.355809594  0.642915403
     0.739401747  0.007608038  0.352531080
     0.045917151  0.996844258  0.370089963
     0.086997904  0.350725526  0.363839221
     0.086654636  0.685156994  0.365695562
     0.419282099  0.027223096  0.358398362
     0.393016059  0.335993866  0.341351450
     0.409305189  0.689894370  0.355733610
     0.219281282  0.010849974  0.646014117
     0.900239174  0.676830702  0.656102535
     0.897215596  0.839164251  0.126809837
     0.226779453  0.157148536  0.154163754
     0.895868942  0.184126991  0.143027125
     0.757199683  0.350475311  0.372980355
     0.071114268  0.199121092  0.850739926
     0.064355202  0.524029755  0.859725100
     0.059681094  0.846978844  0.853726874
     0.402090766  0.183662268  0.853667413
     0.405993954  0.514871973  0.847371189
     0.390259741  0.846641638  0.847059729
     0.754346140  0.194127586  0.875394125
     0.742864918  0.520017272  0.857462416
     0.735840068  0.853569138  0.847876118
     0.247621164  0.520928887  0.142981899
     0.253455133  0.841137669  0.128987413
     0.590462180  0.180299824  0.139253826
     0.554244547  0.508084508  0.151593345
     0.578066888  0.837262302  0.142028702
     0.920697144  0.513564439  0.160109701
     0.726783262  0.677481756  0.353529178

  ion indices of the primitive-cell ions
   primitive index   ion index
                 1           1
                 2           2
                 3           3
                 4           4
                 5           5
                 6           6
                 7           7
                 8           8
                 9           9
                10          10
                11          11
                12          12
                13          13
                14          14
                15          15
                16          16
                17          17
                18          18
                19          19
                20          20
                21          21
                22          22
                23          23
                24          24
                25          25
                26          26
                27          27
                28          28
                29          29
                30          30
                31          31
                32          32
                33          33
                34          34
                35          35
                36          36
                37          37
                38          38
                39          39
                40          40
                41          41
                42          42
                43          43
                44          44
                45          45
                46          46
                47          47
                48          48
                49          49
                50          50
                51          51
                52          52
                53          53
                54          54
                55          55
                56          56
                57          57
                58          58
                59          59
                60          60
                61          61
                62          62
                63          63
                64          64
                65          65
                66          66
                67          67
                68          68
                69          69
                70          70
                71          71
                72          72

----------------------------------------------------------------------------------------

 
 
 KPOINTS: KPOINTS created by Atomic Simulation Env

Automatic generation of k-mesh.
 Grid dimensions read from file:
 generate k-points for:    2    2    2

 Generating k-lattice:

  Cartesian coordinates                     Fractional coordinates (reciprocal lattice)
     0.040242658  0.000000014  0.000000018     0.500000000  0.000000000  0.000000000
     0.000000014  0.039990841 -0.000000001    -0.000000000  0.500000000  0.000000000
     0.000000016 -0.000000001  0.045231464     0.000000000  0.000000000  0.500000000

  Length of vectors
     0.040242658  0.039990841  0.045231464

  Shift w.r.t. Gamma in fractional coordinates (k-lattice)
     0.000000000  0.000000000  0.000000000

 
 Subroutine IBZKPT returns following result:
 ===========================================
 
 Found      8 irreducible k-points:
 
 Following reciprocal coordinates:
            Coordinates               Weight
  0.000000  0.000000  0.000000      1.000000
  0.500000  0.000000  0.000000      1.000000
  0.000000  0.500000  0.000000      1.000000
  0.500000  0.500000  0.000000      1.000000
  0.000000  0.000000  0.500000      1.000000
  0.500000  0.000000  0.500000      1.000000
  0.000000  0.500000  0.500000      1.000000
  0.500000  0.500000  0.500000      1.000000
 
 Following cartesian coordinates:
            Coordinates               Weight
  0.000000  0.000000  0.000000      1.000000
  0.040243  0.000000  0.000000      1.000000
  0.000000  0.039991 -0.000000      1.000000
  0.040243  0.039991  0.000000      1.000000
  0.000000 -0.000000  0.045231      1.000000
  0.040243  0.000000  0.045231      1.000000
  0.000000  0.039991  0.045231      1.000000
  0.040243  0.039991  0.045231      1.000000
 
 -----------------------------------------------------------------------------
|                                                                             |
|           W    W    AA    RRRRR   N    N  II  N    N   GGGG   !!!           |
|           W    W   A  A   R    R  NN   N  II  NN   N  G    G  !!!           |
|           W    W  A    A  R    R  N N  N  II  N N  N  G       !!!           |
|           W WW W  AAAAAA  RRRRR   N  N N  II  N  N N  G  GGG   !            |
|           WW  WW  A    A  R   R   N   NN  II  N   NN  G    G                |
|           W    W  A    A  R    R  N    N  II  N    N   GGGG   !!!           |
|                                                                             |
|     The number of bands has been changed from the values supplied in        |
|     the INCAR file. This is a result of running the parallel version.       |
|     The orbitals not found in the WAVECAR file will be initialized with     |
|     random numbers, which is usually adequate. For correlated               |
|     calculations, however, you should redo the groundstate calculation.     |
|     I found NBANDS = 220. Now, NBANDS = 224.                                |
|                                                                             |
 -----------------------------------------------------------------------------



--------------------------------------------------------------------------------------------------------




 Dimension of arrays:
   k-points           NKPTS =      8   k-points in BZ     NKDIM =      8   number of bands    NBANDS=    224
   number of dos      NEDOS =    301   number of ions     NIONS =     72
   non local maximal  LDIM  =      5   non local SUM 2l+1 LMDIM =     13
   total plane-waves  NPLWV = 774144
   max r-space proj   IRMAX =      1   max aug-charges    IRDMAX=  24699
   dimension x,y,z NGX =    96 NGY =   96 NGZ =   84
   dimension x,y,z NGXF=   192 NGYF=  192 NGZF=  168
   support grid    NGXF=   192 NGYF=  192 NGZF=  168
   ions per type =              36  36
   NGX,Y,Z   is equivalent  to a cutoff of  12.85, 12.76, 12.63 a.u.
   NGXF,Y,Z  is equivalent  to a cutoff of  25.69, 25.53, 25.27 a.u.

 SYSTEM =  01_AOPT                                 
 POSCAR =  Ge Se                                   

 Startparameter for this run:
   NWRITE =      2    write-flag & timer
   PREC   = accura    normal or accurate (medium, high low for compatibility)
   ISTART =      0    job   : 0-new  1-cont  2-samecut
   ICHARG =      2    charge: 1-file 2-atom 10-const
   ISPIN  =      2    spin polarized calculation?
   LNONCOLLINEAR =      F non collinear calculations
   LSORBIT =      F    spin-orbit coupling
   INIWAV =      1    electr: 0-lowe 1-rand  2-diag
   LASPH  =      T    aspherical Exc in radial PAW
 Electronic Relaxation 1
   ENCUT  =  520.0 eV  38.22 Ry    6.18 a.u.  23.10 23.25 20.55*2*pi/ulx,y,z
   ENINI  =  520.0     initial cutoff
   ENAUG  =  446.8 eV  augmentation charge cutoff
   NELM   =    100;   NELMIN=  5; NELMDL=  0     # of ELM steps 
   EDIFF  = 0.1E-05   stopping-criterion for ELM
   LREAL  =      F    real-space projection
   NLSPLINE    = F    spline interpolate recip. space projectors
   LCOMPAT=      F    compatible to vasp.4.4
   GGA_COMPAT  = T    GGA compatible to vasp.4.4-vasp.4.6
   LMAXPAW     = -100 max onsite density
   LMAXMIX     =    2 max onsite mixed and CHGCAR
   VOSKOWN=      0    Vosko Wilk Nusair interpolation
   ROPT   =    0.00000   0.00000
 Ionic relaxation
   EDIFFG = 0.1E-04   stopping-criterion for IOM
   NSW    =      0    number of steps for IOM
   NBLOCK =      1;   KBLOCK =      1    inner block; outer block 
   IBRION =     -1    ionic relax: 0-MD 1-quasi-New 2-CG
   NFREE  =      0    steps in history (QN), initial steepest desc. (CG)
   ISIF   =      2    stress and relaxation
   IWAVPR =     10    prediction:  0-non 1-charg 2-wave 3-comb
   ISYM   =     -1    0-nonsym 1-usesym 2-fastsym
   LCORR  =      T    Harris-Foulkes like correction to forces

   POTIM  = 0.5000    time-step for ionic-motion
   TEIN   =    0.0    initial temperature
   TEBEG  =    0.0;   TEEND  =   0.0 temperature during run
   SMASS  =  -3.00    Nose mass-parameter (am)
   estimated Nose-frequenzy (Omega)   =  0.10E-29 period in steps = 0.13E+47 mass=  -0.353E-26a.u.
   SCALEE = 1.0000    scale energy and forces
   NPACO  =    256;   APACO  = 10.0  distance and # of slots for P.C.
   PSTRESS=    0.0 pullay stress

  Mass of Ions in am
   POMASS =  72.61 78.96
  Ionic Valenz
   ZVAL   =   4.00  6.00
  Atomic Wigner-Seitz radii
   RWIGS  =  -1.00 -1.00
  virtual crystal weights 
   VCA    =   1.00  1.00
   NELECT =     360.0000    total number of electrons
   NUPDOWN=      -1.0000    fix difference up-down

 DOS related values:
   EMIN   =  10.00;   EMAX   =-10.00  energy-range for DOS
   EFERMI =   0.00;   METHOD = LEGACY      
   ISMEAR =     0;   SIGMA  =   0.05  broadening in eV -4-tet -1-fermi 0-gaus

 Electronic relaxation 2 (details)
   IALGO  =     38    algorithm
   LDIAG  =      T    sub-space diagonalisation (order eigenvalues)
   LSUBROT=      F    optimize rotation matrix (better conditioning)
   TURBO    =      0    0=normal 1=particle mesh
   IRESTART =      0    0=no restart 2=restart with 2 vectors
   NREBOOT  =      0    no. of reboots
   NMIN     =      0    reboot dimension
   EREF     =   0.00    reference energy to select bands
   IMIX   =      4    mixing-type and parameters
     AMIX     =   0.40;   BMIX     =  1.00
     AMIX_MAG =   1.60;   BMIX_MAG =  1.00
     AMIN     =   0.10
     WC   =   100.;   INIMIX=   1;  MIXPRE=   1;  MAXMIX= -45

 Intra band minimization:
   WEIMIN = 0.0000     energy-eigenvalue tresh-hold
   EBREAK =  0.11E-08  absolut break condition
   DEPER  =   0.30     relativ break condition  

   TIME   =   0.40     timestep for ELM

  volume/ion in A,a.u.               =      23.85       160.95
  Fermi-wavevector in a.u.,A,eV,Ry     =   0.972527  1.837809 12.868506  0.945809
  Thomas-Fermi vector in A             =   2.102833
 
 Write flags
   LWAVE        =      F    write WAVECAR
   LDOWNSAMPLE  =      F    k-point downsampling of WAVECAR
   LCHARG       =      F    write CHGCAR
   LVTOT        =      F    write LOCPOT, total local potential
   LVHAR        =      F    write LOCPOT, Hartree potential only
   LELF         =      F    write electronic localiz. function (ELF)
   LORBIT       =     11    0 simple, 1 ext, 2 COOP (PROOUT), +10 PAW based schemes


 Dipole corrections
   LMONO  =      F    monopole corrections only (constant potential shift)
   LDIPOL =      F    correct potential (dipole corrections)
   IDIPOL =      0    1-x, 2-y, 3-z, 4-all directions 
   EPSILON=  1.0000000 bulk dielectric constant

 Exchange correlation treatment:
   GGA     =    PE    GGA type
   LEXCH   =     8    internal setting for exchange type
   LIBXC   =     F    Libxc                    
   VOSKOWN =     0    Vosko Wilk Nusair interpolation
   LHFCALC =     F    Hartree Fock is set to
   LHFONE  =     F    Hartree Fock one center treatment
   AEXX    =    0.0000 exact exchange contribution

 Linear response parameters
   LEPSILON=     F    determine dielectric tensor
   LRPA    =     F    only Hartree local field effects (RPA)
   LNABLA  =     F    use nabla operator in PAW spheres
   LVEL    =     F    velocity operator in full k-point grid
   CSHIFT  =0.1000    complex shift for real part using Kramers Kronig
   OMEGAMAX=  -1.0    maximum frequency
   DEG_THRESHOLD= 0.2000000E-02 threshold for treating states as degnerate
   RTIME   =   -0.100 relaxation time in fs
  (WPLASMAI=    0.000 imaginary part of plasma frequency in eV, 0.658/RTIME)
   DFIELD  = 0.0000000 0.0000000 0.0000000 field for delta impulse in time
 
  Optional k-point grid parameters
   LKPOINTS_OPT  =     F    use optional k-point grid
   KPOINTS_OPT_MODE=     1    mode for optional k-point grid
 
 Orbital magnetization related:
   ORBITALMAG=     F  switch on orbital magnetization
   LCHIMAG   =     F  perturbation theory with respect to B field
   DQ        =  0.001000  dq finite difference perturbation B field
   LLRAUG    =     F  two centre corrections for induced B field
   LBONE     =     F  B-component reconstruction in AE one-centre
   LVGVCALC  =     T  calculate vGv susceptibility
   LVGVAPPL  =     F  apply vGv susceptibility instead of pGv for G=0

 Random number generation:
   RANDOM_GENERATOR = DEFAULT
   PCG_SEED         = not used


--------------------------------------------------------------------------------------------------------


 Static calculation
 charge density and potential will be updated during run
 spin polarized calculation
 Variant of blocked Davidson
 Davidson routine will perform the subspace rotation
 perform sub-space diagonalisation
    after iterative eigenvector-optimisation
 modified Broyden-mixing scheme, WC =      100.0
 initial mixing is a Kerker type mixing with AMIX =  0.4000 and BMIX =      1.0000
 Hartree-type preconditioning will be used
 using additional bands            44
 reciprocal scheme for non local part
 use partial core corrections
 calculate Harris-corrections to forces 
   (improved forces if not selfconsistent)
 use gradient corrections 
 use of overlap-Matrix (Vanderbilt PP)
 Gauss-broadening in eV      SIGMA  =   0.05


--------------------------------------------------------------------------------------------------------


  energy-cutoff  :      520.00
  volume of cell :     1717.21
      direct lattice vectors                 reciprocal lattice vectors
    12.424626629 -0.000004384 -0.000004302     0.080485316  0.000000028  0.000000036
    -0.000004411 12.502862717  0.000000263     0.000000028  0.079981683 -0.000000002
    -0.000004927  0.000000299 11.054251950     0.000000031 -0.000000002  0.090462928

  length of vectors
    12.424626629 12.502862717 11.054251950     0.080485316  0.079981683  0.090462928


 
 k-points in units of 2pi/SCALE and weight: KPOINTS created by Atomic Simulation Env
   0.00000000  0.00000000  0.00000000       0.125
   0.04024266  0.00000001  0.00000002       0.125
   0.00000001  0.03999084 -0.00000000       0.125
   0.04024267  0.03999086  0.00000002       0.125
   0.00000002 -0.00000000  0.04523146       0.125
   0.04024267  0.00000001  0.04523148       0.125
   0.00000003  0.03999084  0.04523146       0.125
   0.04024269  0.03999085  0.04523148       0.125
 
 k-points in reciprocal lattice and weights: KPOINTS created by Atomic Simulation Env
   0.00000000  0.00000000  0.00000000       0.125
   0.50000000  0.00000000  0.00000000       0.125
   0.00000000  0.50000000  0.00000000       0.125
   0.50000000  0.50000000  0.00000000       0.125
   0.00000000  0.00000000  0.50000000       0.125
   0.50000000  0.00000000  0.50000000       0.125
   0.00000000  0.50000000  0.50000000       0.125
   0.50000000  0.50000000  0.50000000       0.125
 
 position of ions in fractional coordinates (direct lattice) 
   0.05173584  0.03445482  0.14172010
   0.21251332  0.85562037  0.36867997
   0.55884346  0.20105720  0.35633018
   0.55301017  0.55737760  0.38331909
   0.57766386  0.88291679  0.36352130
   0.91387808  0.21463473  0.37960061
   0.87925984  0.52805537  0.38099296
   0.89646400  0.86163775  0.35324121
   0.05519011  0.16392890  0.63635391
   0.07298965  0.48882180  0.62629750
   0.06022364  0.81135514  0.62091581
   0.39590949  0.16475216  0.62551705
   0.39804008  0.48297719  0.63328998
   0.40246739  0.82184708  0.62525873
   0.73466732  0.16921020  0.63301687
   0.73412595  0.49800481  0.62825092
   0.25608808  0.54572187  0.37548291
   0.23637505  0.19951012  0.37193008
   0.73687982  0.82701580  0.62148903
   0.89397476  0.65581412  0.87972086
   0.89948649  0.99609781  0.85924255
   0.07413409  0.37903936  0.13114558
   0.03675606  0.68282007  0.13770426
   0.37509008  0.02676116  0.14407342
   0.38363242  0.37092894  0.12111005
   0.74357697  0.03653957  0.11791306
   0.70718342  0.35883888  0.13579889
   0.40796184  0.70484575  0.11558673
   0.23602918  0.32692782  0.87787834
   0.25237623  0.65581226  0.86692725
   0.21898876  0.98456464  0.87093483
   0.56312848  0.30645888  0.86042626
   0.58095064  0.64324910  0.87281564
   0.56898162  0.99117199  0.87110404
   0.90446359  0.32974439  0.86317196
   0.71259568  0.69191005  0.12050118
   0.88267985  0.03403133  0.63687474
   0.23742127  0.34305733  0.64018689
   0.23329228  0.67270075  0.63340351
   0.56060781  0.02804663  0.63614010
   0.56461436  0.35860634  0.64265959
   0.56833235  0.69354140  0.64770737
   0.90119477  0.35580959  0.64291540
   0.73940175  0.00760804  0.35253108
   0.04591715  0.99684426  0.37008996
   0.08699790  0.35072553  0.36383922
   0.08665464  0.68515699  0.36569556
   0.41928210  0.02722310  0.35839836
   0.39301606  0.33599387  0.34135145
   0.40930519  0.68989437  0.35573361
   0.21928128  0.01084997  0.64601412
   0.90023917  0.67683070  0.65610253
   0.89721560  0.83916425  0.12680984
   0.22677945  0.15714854  0.15416375
   0.89586894  0.18412699  0.14302713
   0.75719968  0.35047531  0.37298036
   0.07111427  0.19912109  0.85073993
   0.06435520  0.52402976  0.85972510
   0.05968109  0.84697884  0.85372687
   0.40209077  0.18366227  0.85366741
   0.40599395  0.51487197  0.84737119
   0.39025974  0.84664164  0.84705973
   0.75434614  0.19412759  0.87539412
   0.74286492  0.52001727  0.85746242
   0.73584007  0.85356914  0.84787612
   0.24762116  0.52092889  0.14298190
   0.25345513  0.84113767  0.12898741
   0.59046218  0.18029982  0.13925383
   0.55424455  0.50808451  0.15159334
   0.57806689  0.83726230  0.14202870
   0.92069714  0.51356444  0.16010970
   0.72678326  0.67748176  0.35352918
 
 position of ions in cartesian coordinates  (Angst):
   0.64279764  0.43078373  1.56660947
   2.64039311 10.69770320  4.07548058
   6.94341867  2.51378820  3.93896120
   6.87094048  6.96881328  4.23730360
   7.17725204 11.03898495  4.01845379
  11.35459115  2.68354472  4.19619696
  10.92447099  6.60220003  4.21158857
  11.13822501 10.77293465  3.90481369
   0.68571260  2.04958050  7.03441627
   0.90686395  6.11167177  6.92325017
   0.74824960 10.14426181  6.86375980
   4.91902381  2.05987211  6.91462136
   4.94549414  6.03859598  7.00054544
   5.00050039 10.27543966  6.91176606
   9.12796323  2.11560888  6.99752485
   9.12123559  6.22648271  6.94484098
   3.18179447  6.82308455  4.15068169
   2.93686902  2.49444676  4.11140789
   9.15544988 10.34006196  6.87009336
  11.10729537  8.19955025  9.72465235
  11.17577522 12.45407051  9.49827998
   0.92108610  4.73907679  1.44971610
   0.45667669  8.53720544  1.52221766
   4.66035334  0.33458952  1.59262224
   4.76648738  4.63767195  1.33877948
   9.23866551  0.45684600  1.30343751
   8.78648771  4.48651023  1.50115219
   5.06876985  8.81258789  1.27772324
   2.93256867  4.08753284  9.70428743
   3.13567328  8.19952979  9.58323135
   2.72084493 12.30987586  9.62753234
   6.99665552  3.83161105  9.51136634
   7.21808762  8.04245293  9.64832170
   7.06937551 12.39248506  9.62940135
  11.23761670  4.12274515  9.54171654
   8.85373162  8.65085324  1.33204755
  10.96696423  0.42548533  7.04017006
   2.94986591  4.28919784  7.07678621
   2.89856342  8.41068426  7.00180111
   6.96533951  0.35066093  7.03205049
   7.01511786  4.48360350  7.10411872
   7.06131103  8.67125063  7.15991816
  11.19700385  4.44863475  7.10694506
   9.18678887  0.09511912  3.89696420
   0.57049724 12.46340682  4.09106776
   1.08091314  4.38507283  4.02197014
   1.07664667  8.56642357  4.04249068
   5.20942164  0.34036491  3.96182399
   4.88307463  4.20088356  3.77338333
   5.08545935  8.62565291  3.93236737
   2.72448483  0.13565497  7.14120187
  11.18512940  8.46231760  7.25271903
  11.14756447 10.49195153  1.40178425
   2.81764858  1.96480562  1.70416404
  11.13083560  2.30211061  1.58105407
   9.40791996  4.38194149  4.12301565
   0.88356315  2.48958363  9.40429324
   0.79958281  6.55187207  9.50361772
   0.74150737 10.58966021  9.43731193
   4.99582262  2.29630262  9.43665298
   5.04431685  6.43737207  9.36705300
   4.84882366 10.58544271  9.36361021
   9.37246397  2.42714752  9.67682402
   9.22981272  6.50170156  9.47860252
   9.14253016 10.67205477  9.37263328
   3.07659750  6.51310132  1.58055701
   3.14908104 10.51662772  1.42585849
   7.33627064  2.25426140  1.53934439
   6.88627857  6.35250847  1.67574878
   7.18226085 10.46817313  1.57001879
  11.43931520  6.42102169  1.76988915
   9.03000594  8.47045831  3.90799765
 


--------------------------------------------------------------------------------------------------------


 k-point   1 :   0.0000 0.0000 0.0000  plane waves:   46193
 k-point   2 :   0.5000 0.0000 0.0000  plane waves:   46254
 k-point   3 :   0.0000 0.5000 0.0000  plane waves:   46222
 k-point   4 :   0.5000 0.5000 0.0000  plane waves:   46328
 k-point   5 :   0.0000 0.0000 0.5000  plane waves:   46250
 k-point   6 :   0.5000 0.0000 0.5000  plane waves:   46216
 k-point   7 :   0.0000 0.5000 0.5000  plane waves:   46224
 k-point   8 :   0.5000 0.5000 0.5000  plane waves:   46216

 maximum and minimum number of plane-waves per node :      5832     5731

 maximum number of plane-waves:     46328
 maximum index in each direction: 
   IXMAX=   23   IYMAX=   23   IZMAX=   20
   IXMIN=  -23   IYMIN=  -23   IZMIN=  -21


 parallel 3D FFT for wavefunctions:
    minimum data exchange during FFTs selected (reduces bandwidth)
 parallel 3D FFT for charge:
    minimum data exchange during FFTs selected (reduces bandwidth)


 total amount of memory used by VASP MPI-rank0   110524. kBytes
=======================================================================

   base      :      30000. kBytes
   nonl-proj :      16287. kBytes
   fftplans  :       6179. kBytes
   grid      :      15593. kBytes
   one-center:        146. kBytes
   wavefun   :      42319. kBytes
 
     INWAV:  cpu time      0.0000: real time      0.0001
 Broyden mixing: mesh for mixing (old mesh)
   NGX = 47   NGY = 47   NGZ = 41
  (NGX  =192   NGY  =192   NGZ  =168)
  gives a total of  90569 points

 initial charge density was supplied:
 charge density of overlapping atoms calculated
 number of electron     360.0000000 magnetization      72.0000000
 keeping initial charge density in first step


--------------------------------------------------------------------------------------------------------


 Maximum index for augmentation-charges           842 (set IRDMAX)


--------------------------------------------------------------------------------------------------------


 First call to EWALD:  gamma=   0.148
 Maximum number of real-space cells 3x 3x 3
 Maximum number of reciprocal cells 3x 3x 3

    FEWALD:  cpu time      0.0129: real time      0.0130


--------------------------------------- Ionic step        1  -------------------------------------------




--------------------------------------- Iteration      1(   1)  ---------------------------------------


    POTLOK:  cpu time      0.1399: real time      0.1409
    SETDIJ:  cpu time      0.6300: real time      0.6320
     EDDAV:  cpu time      8.5481: real time      8.5925
       DOS:  cpu time      0.0016: real time      0.0016
    --------------------------------------------
      LOOP:  cpu time      9.3196: real time      9.3670

 eigenvalue-minimisations  :  7168
 total energy-change (2. order) : 0.1816184E+04  (-0.1419697E+05)
 number of electron     360.0000000 magnetization      72.0000000
 augmentation part      360.0000000 magnetization      72.0000000

 Free energy of the ion-electron system (eV)
  ---------------------------------------------------
  alpha Z        PSCENC =       799.26392333
  Ewald energy   TEWEN  =    -12863.42688535
  -Hartree energ DENC   =     -1118.36663113
  -exchange      EXHF   =         0.00000000
  -V(xc)+E(xc)   XCENC  =      -293.18499567
  PAW double counting   =     10738.42099860    -9719.93139476
  entropy T*S    EENTRO =        -0.02580428
  eigenvalues    EBANDS =      1236.98296973
  atomic energy  EATOM  =     13036.45147835
  Solvation  Ediel_sol  =         0.00000000
  ---------------------------------------------------
  free energy    TOTEN  =      1816.18365881 eV

  energy without entropy =     1816.20946309  energy(sigma->0) =     1816.19656095


--------------------------------------------------------------------------------------------------------




--------------------------------------- Iteration      1(   2)  ---------------------------------------


     EDDAV:  cpu time      9.7092: real time      9.7702
       DOS:  cpu time      0.0012: real time      0.0012
    --------------------------------------------
      LOOP:  cpu time      9.7104: real time      9.7714

 eigenvalue-minimisations  :  8480
 total energy-change (2. order) :-0.1880363E+04  (-0.1805118E+04)
 number of electron     360.0000000 magnetization      72.0000000
 augmentation part      360.0000000 magnetization      72.0000000

 Free energy of the ion-electron system (eV)
  ---------------------------------------------------
  alpha Z        PSCENC =       799.26392333
  Ewald energy   TEWEN  =    -12863.42688535
  -Hartree energ DENC   =     -1118.36663113
  -exchange      EXHF   =         0.00000000
  -V(xc)+E(xc)   XCENC  =      -293.18499567
  PAW double counting   =     10738.42099860    -9719.93139476
  entropy T*S    EENTRO =        -0.01961338
  eigenvalues    EBANDS =      -643.38642860
  atomic energy  EATOM  =     13036.45147835
  Solvation  Ediel_sol  =         0.00000000
  ---------------------------------------------------
  free energy    TOTEN  =       -64.17954862 eV

  energy without entropy =      -64.15993524  energy(sigma->0) =      -64.16974193


--------------------------------------------------------------------------------------------------------




--------------------------------------- Iteration      1(   3)  ---------------------------------------


     EDDAV:  cpu time      9.7529: real time      9.8050
       DOS:  cpu time      0.0012: real time      0.0012
    --------------------------------------------
      LOOP:  cpu time      9.7541: real time      9.8062

 eigenvalue-minimisations  :  8536
 total energy-change (2. order) :-0.2174560E+03  (-0.2116306E+03)
 number of electron     360.0000000 magnetization      72.0000000
 augmentation part      360.0000000 magnetization      72.0000000

 Free energy of the ion-electron system (eV)
  ---------------------------------------------------
  alpha Z        PSCENC =       799.26392333
  Ewald energy   TEWEN  =    -12863.42688535
  -Hartree energ DENC   =     -1118.36663113
  -exchange      EXHF   =         0.00000000
  -V(xc)+E(xc)   XCENC  =      -293.18499567
  PAW double counting   =     10738.42099860    -9719.93139476
  entropy T*S    EENTRO =        -0.00000982
  eigenvalues    EBANDS =      -860.86200302
  atomic energy  EATOM  =     13036.45147835
  Solvation  Ediel_sol  =         0.00000000
  ---------------------------------------------------
  free energy    TOTEN  =      -281.63551948 eV

  energy without entropy =     -281.63550966  energy(sigma->0) =     -281.63551457


--------------------------------------------------------------------------------------------------------




--------------------------------------- Iteration      1(   4)  ---------------------------------------


     EDDAV:  cpu time      9.9958: real time     10.0467
       DOS:  cpu time      0.0010: real time      0.0010
    --------------------------------------------
      LOOP:  cpu time      9.9969: real time     10.0478

 eigenvalue-minimisations  :  8776
 total energy-change (2. order) :-0.8029603E+01  (-0.7937613E+01)
 number of electron     360.0000000 magnetization      72.0000000
 augmentation part      360.0000000 magnetization      72.0000000

 Free energy of the ion-electron system (eV)
  ---------------------------------------------------
  alpha Z        PSCENC =       799.26392333
  Ewald energy   TEWEN  =    -12863.42688535
  -Hartree energ DENC   =     -1118.36663113
  -exchange      EXHF   =         0.00000000
  -V(xc)+E(xc)   XCENC  =      -293.18499567
  PAW double counting   =     10738.42099860    -9719.93139476
  entropy T*S    EENTRO =        -0.00000137
  eigenvalues    EBANDS =      -868.89161468
  atomic energy  EATOM  =     13036.45147835
  Solvation  Ediel_sol  =         0.00000000
  ---------------------------------------------------
  free energy    TOTEN  =      -289.66512268 eV

  energy without entropy =     -289.66512131  energy(sigma->0) =     -289.66512200


--------------------------------------------------------------------------------------------------------




--------------------------------------- Iteration      1(   5)  ---------------------------------------


     EDDAV:  cpu time     10.2497: real time     10.3020
       DOS:  cpu time      0.0010: real time      0.0010
    CHARGE:  cpu time      0.4270: real time      0.4291
    MIXING:  cpu time      0.0072: real time      0.0073
    --------------------------------------------
      LOOP:  cpu time     10.6850: real time     10.7395

 eigenvalue-minimisations  :  9120
 total energy-change (2. order) :-0.2912094E+00  (-0.2903778E+00)
 number of electron     359.9999989 magnetization      48.7726597
 augmentation part      -66.8260372 magnetization      48.9858565

 Broyden mixing:
  rms(total) = 0.29301E+01    rms(broyden)= 0.29301E+01
  rms(prec ) = 0.30810E+01
  weight for this iteration     100.00

 Free energy of the ion-electron system (eV)
  ---------------------------------------------------
  alpha Z        PSCENC =       799.26392333
  Ewald energy   TEWEN  =    -12863.42688535
  -Hartree energ DENC   =     -1118.36663113
  -exchange      EXHF   =         0.00000000
  -V(xc)+E(xc)   XCENC  =      -293.18499567
  PAW double counting   =     10738.42099860    -9719.93139476
  entropy T*S    EENTRO =        -0.00000147
  eigenvalues    EBANDS =      -869.18282393
  atomic energy  EATOM  =     13036.45147835
  Solvation  Ediel_sol  =         0.00000000
  ---------------------------------------------------
  free energy    TOTEN  =      -289.95633203 eV

  energy without entropy =     -289.95633057  energy(sigma->0) =     -289.95633130


--------------------------------------------------------------------------------------------------------




--------------------------------------- Iteration      1(   6)  ---------------------------------------


    POTLOK:  cpu time      0.1361: real time      0.1389
    SETDIJ:  cpu time      0.6335: real time      0.6355
     EDDAV:  cpu time      9.2364: real time      9.2845
       DOS:  cpu time      0.0011: real time      0.0011
    CHARGE:  cpu time      0.4274: real time      0.4291
    MIXING:  cpu time      0.0082: real time      0.0083
    --------------------------------------------
      LOOP:  cpu time     10.4428: real time     10.4973

 eigenvalue-minimisations  :  7880
 total energy-change (2. order) : 0.1850636E+00  (-0.2619681E+01)
 number of electron     359.9999989 magnetization      27.7739789
 augmentation part      -66.2182140 magnetization      28.9573119

 Broyden mixing:
  rms(total) = 0.17370E+01    rms(broyden)= 0.17370E+01
  rms(prec ) = 0.17737E+01
  weight for this iteration     100.00

 eigenvalues of (default mixing * dielectric matrix)
  average eigenvalue GAMMA=   1.0104
  1.0104

 Free energy of the ion-electron system (eV)
  ---------------------------------------------------
  alpha Z        PSCENC =       799.26392333
  Ewald energy   TEWEN  =    -12863.42688535
  -Hartree energ DENC   =     -1171.29458427
  -exchange      EXHF   =         0.00000000
  -V(xc)+E(xc)   XCENC  =      -286.70418913
  PAW double counting   =     13056.33773340   -12041.40755736
  entropy T*S    EENTRO =        -0.00000034
  eigenvalues    EBANDS =      -818.99118702
  atomic energy  EATOM  =     13036.45147835
  Solvation  Ediel_sol  =         0.00000000
  ---------------------------------------------------
  free energy    TOTEN  =      -289.77126840 eV

  energy without entropy =     -289.77126805  energy(sigma->0) =     -289.77126822


--------------------------------------------------------------------------------------------------------




--------------------------------------- Iteration      1(   7)  ---------------------------------------


    POTLOK:  cpu time      0.1318: real time      0.1324
    SETDIJ:  cpu time      0.6323: real time      0.6344
     EDDAV:  cpu time      9.3756: real time      9.4242
       DOS:  cpu time      0.0007: real time      0.0007
    CHARGE:  cpu time      0.4255: real time      0.4275
    MIXING:  cpu time      0.0074: real time      0.0074
    --------------------------------------------
      LOOP:  cpu time     10.5732: real time     10.6266

 eigenvalue-minimisations  :  8032
 total energy-change (2. order) :-0.7290371E+01  (-0.8487323E+00)
 number of electron     359.9999989 magnetization       8.9501830
 augmentation part      -66.2015903 magnetization       9.6253903

 Broyden mixing:
  rms(total) = 0.90959E+00    rms(broyden)= 0.90959E+00
  rms(prec ) = 0.92564E+00
  weight for this iteration     100.00

 eigenvalues of (default mixing * dielectric matrix)
  average eigenvalue GAMMA=   1.4638
  0.8613  2.0663

 Free energy of the ion-electron system (eV)
  ---------------------------------------------------
  alpha Z        PSCENC =       799.26392333
  Ewald energy   TEWEN  =    -12863.42688535
  -Hartree energ DENC   =     -1188.42043539
  -exchange      EXHF   =         0.00000000
  -V(xc)+E(xc)   XCENC  =      -289.58067637
  PAW double counting   =     15195.30568636   -14182.05215719
  entropy T*S    EENTRO =        -0.00000000
  eigenvalues    EBANDS =      -804.60257326
  atomic energy  EATOM  =     13036.45147835
  Solvation  Ediel_sol  =         0.00000000
  ---------------------------------------------------
  free energy    TOTEN  =      -297.06163953 eV

  energy without entropy =     -297.06163953  energy(sigma->0) =     -297.06163953


--------------------------------------------------------------------------------------------------------




--------------------------------------- Iteration      1(   8)  ---------------------------------------


    POTLOK:  cpu time      0.1315: real time      0.1323
    SETDIJ:  cpu time      0.6318: real time      0.6340
     EDDAV:  cpu time      9.4999: real time      9.5484
       DOS:  cpu time      0.0007: real time      0.0007
    CHARGE:  cpu time      0.4234: real time      0.4254
    MIXING:  cpu time      0.0074: real time      0.0075
    --------------------------------------------
      LOOP:  cpu time     10.6948: real time     10.7483

 eigenvalue-minimisations  :  8160
 total energy-change (2. order) :-0.3207122E+01  (-0.1761667E+00)
 number of electron     359.9999989 magnetization       4.2820034
 augmentation part      -66.2050588 magnetization       4.5838136

 Broyden mixing:
  rms(total) = 0.32170E+00    rms(broyden)= 0.32170E+00
  rms(prec ) = 0.32712E+00
  weight for this iteration     100.00

 eigenvalues of (default mixing * dielectric matrix)
  average eigenvalue GAMMA=   1.3641
  2.5077  0.9270  0.6575

 Free energy of the ion-electron system (eV)
  ---------------------------------------------------
  alpha Z        PSCENC =       799.26392333
  Ewald energy   TEWEN  =    -12863.42688535
  -Hartree energ DENC   =     -1193.49419242
  -exchange      EXHF   =         0.00000000
  -V(xc)+E(xc)   XCENC  =      -289.19318651
  PAW double counting   =     17017.51580445   -16005.25244631
  entropy T*S    EENTRO =        -0.00000000
  eigenvalues    EBANDS =      -802.13325657
  atomic energy  EATOM  =     13036.45147835
  Solvation  Ediel_sol  =         0.00000000
  ---------------------------------------------------
  free energy    TOTEN  =      -300.26876104 eV

  energy without entropy =     -300.26876104  energy(sigma->0) =     -300.26876104


--------------------------------------------------------------------------------------------------------




--------------------------------------- Iteration      1(   9)  ---------------------------------------


    POTLOK:  cpu time      0.1334: real time      0.1341
    SETDIJ:  cpu time      0.6314: real time      0.6335
     EDDAV:  cpu time     10.2853: real time     10.3386
       DOS:  cpu time      0.0007: real time      0.0007
    CHARGE:  cpu time      0.4265: real time      0.4282
    MIXING:  cpu time      0.0082: real time      0.0083
    --------------------------------------------
      LOOP:  cpu time     11.4856: real time     11.5434

 eigenvalue-minimisations  :  9080
 total energy-change (2. order) :-0.3569552E+00  (-0.4127394E-01)
 number of electron     359.9999989 magnetization       2.2711095
 augmentation part      -66.2426910 magnetization       2.4222618

 Broyden mixing:
  rms(total) = 0.14566E+00    rms(broyden)= 0.14566E+00
  rms(prec ) = 0.14744E+00
  weight for this iteration     100.00

 eigenvalues of (default mixing * dielectric matrix)
  average eigenvalue GAMMA=   1.3288
  2.6326  1.2307  0.8305  0.6215

 Free energy of the ion-electron system (eV)
  ---------------------------------------------------
  alpha Z        PSCENC =       799.26392333
  Ewald energy   TEWEN  =    -12863.42688535
  -Hartree energ DENC   =     -1192.41811252
  -exchange      EXHF   =         0.00000000
  -V(xc)+E(xc)   XCENC  =      -289.23422997
  PAW double counting   =     17294.78861588   -16282.85896395
  entropy T*S    EENTRO =        -0.00000000
  eigenvalues    EBANDS =      -803.19154203
  atomic energy  EATOM  =     13036.45147835
  Solvation  Ediel_sol  =         0.00000000
  ---------------------------------------------------
  free energy    TOTEN  =      -300.62571626 eV

  energy without entropy =     -300.62571626  energy(sigma->0) =     -300.62571626


--------------------------------------------------------------------------------------------------------




--------------------------------------- Iteration      1(  10)  ---------------------------------------


    POTLOK:  cpu time      0.1309: real time      0.1315
    SETDIJ:  cpu time      0.6316: real time      0.6341
     EDDAV:  cpu time      9.4867: real time      9.5382
       DOS:  cpu time      0.0009: real time      0.0009
    CHARGE:  cpu time      0.4190: real time      0.4209
    MIXING:  cpu time      0.0075: real time      0.0076
    --------------------------------------------
      LOOP:  cpu time     10.6765: real time     10.7332

 eigenvalue-minimisations  :  8160
 total energy-change (2. order) :-0.9892733E-01  (-0.9230623E-02)
 number of electron     359.9999989 magnetization       0.7314868
 augmentation part      -66.2446870 magnetization       0.7987655

 Broyden mixing:
  rms(total) = 0.72703E-01    rms(broyden)= 0.72703E-01
  rms(prec ) = 0.73798E-01
  weight for this iteration     100.00

 eigenvalues of (default mixing * dielectric matrix)
  average eigenvalue GAMMA=   1.3755
  2.6997  1.7630  0.9675  0.8202  0.6269

 Free energy of the ion-electron system (eV)
  ---------------------------------------------------
  alpha Z        PSCENC =       799.26392333
  Ewald energy   TEWEN  =    -12863.42688535
  -Hartree energ DENC   =     -1192.57159264
  -exchange      EXHF   =         0.00000000
  -V(xc)+E(xc)   XCENC  =      -289.23365648
  PAW double counting   =     17300.27456293   -16288.35504778
  entropy T*S    EENTRO =        -0.00000000
  eigenvalues    EBANDS =      -803.12742595
  atomic energy  EATOM  =     13036.45147835
  Solvation  Ediel_sol  =         0.00000000
  ---------------------------------------------------
  free energy    TOTEN  =      -300.72464360 eV

  energy without entropy =     -300.72464360  energy(sigma->0) =     -300.72464360


--------------------------------------------------------------------------------------------------------




--------------------------------------- Iteration      1(  11)  ---------------------------------------


    POTLOK:  cpu time      0.1310: real time      0.1317
    SETDIJ:  cpu time      0.6289: real time      0.6312
     EDDAV:  cpu time     10.1950: real time     10.2474
       DOS:  cpu time      0.0007: real time      0.0007
    CHARGE:  cpu time      0.4239: real time      0.4255
    MIXING:  cpu time      0.0077: real time      0.0077
    --------------------------------------------
      LOOP:  cpu time     11.3871: real time     11.4442

 eigenvalue-minimisations  :  8960
 total energy-change (2. order) :-0.3101772E-01  (-0.3571720E-02)
 number of electron     359.9999989 magnetization       0.1829877
 augmentation part      -66.2306510 magnetization       0.2011210

 Broyden mixing:
  rms(total) = 0.28693E-01    rms(broyden)= 0.28693E-01
  rms(prec ) = 0.29178E-01
  weight for this iteration     100.00

 eigenvalues of (default mixing * dielectric matrix)
  average eigenvalue GAMMA=   1.4037
  2.8987  2.1856  1.1659  0.8534  0.6938  0.6247

 Free energy of the ion-electron system (eV)
  ---------------------------------------------------
  alpha Z        PSCENC =       799.26392333
  Ewald energy   TEWEN  =    -12863.42688535
  -Hartree energ DENC   =     -1193.65035618
  -exchange      EXHF   =         0.00000000
  -V(xc)+E(xc)   XCENC  =      -289.19261495
  PAW double counting   =     17225.18637926   -16213.23858401
  entropy T*S    EENTRO =        -0.00000000
  eigenvalues    EBANDS =      -802.14900176
  atomic energy  EATOM  =     13036.45147835
  Solvation  Ediel_sol  =         0.00000000
  ---------------------------------------------------
  free energy    TOTEN  =      -300.75566131 eV

  energy without entropy =     -300.75566131  energy(sigma->0) =     -300.75566131


--------------------------------------------------------------------------------------------------------




--------------------------------------- Iteration      1(  12)  ---------------------------------------


    POTLOK:  cpu time      0.1321: real time      0.1336
    SETDIJ:  cpu time      0.6287: real time      0.6311
     EDDAV:  cpu time      9.8048: real time      9.8596
       DOS:  cpu time      0.0007: real time      0.0007
    CHARGE:  cpu time      0.4278: real time      0.4293
    MIXING:  cpu time      0.0078: real time      0.0078
    --------------------------------------------
      LOOP:  cpu time     11.0019: real time     11.0622

 eigenvalue-minimisations  :  8512
 total energy-change (2. order) :-0.3193746E-02  (-0.4306818E-03)
 number of electron     359.9999989 magnetization       0.0692641
 augmentation part      -66.2302240 magnetization       0.0736251

 Broyden mixing:
  rms(total) = 0.11108E-01    rms(broyden)= 0.11108E-01
  rms(prec ) = 0.11767E-01
  weight for this iteration     100.00

 eigenvalues of (default mixing * dielectric matrix)
  average eigenvalue GAMMA=   1.3622
  2.9895  2.3279  1.2010  0.8776  0.8776  0.6074  0.6542

 Free energy of the ion-electron system (eV)
  ---------------------------------------------------
  alpha Z        PSCENC =       799.26392333
  Ewald energy   TEWEN  =    -12863.42688535
  -Hartree energ DENC   =     -1193.74466510
  -exchange      EXHF   =         0.00000000
  -V(xc)+E(xc)   XCENC  =      -289.19478410
  PAW double counting   =     17189.63380245   -16177.66330662
  entropy T*S    EENTRO =        -0.00000000
  eigenvalues    EBANDS =      -802.07841801
  atomic energy  EATOM  =     13036.45147835
  Solvation  Ediel_sol  =         0.00000000
  ---------------------------------------------------
  free energy    TOTEN  =      -300.75885506 eV

  energy without entropy =     -300.75885506  energy(sigma->0) =     -300.75885506


--------------------------------------------------------------------------------------------------------




--------------------------------------- Iteration      1(  13)  ---------------------------------------


    POTLOK:  cpu time      0.1303: real time      0.1313
    SETDIJ:  cpu time      0.6291: real time      0.6314
     EDDAV:  cpu time     11.0473: real time     11.1002
       DOS:  cpu time      0.0010: real time      0.0010
    CHARGE:  cpu time      0.4188: real time      0.4206
    MIXING:  cpu time      0.0083: real time      0.0084
    --------------------------------------------
      LOOP:  cpu time     12.2348: real time     12.2929

 eigenvalue-minimisations  :  9832
 total energy-change (2. order) :-0.1074659E-03  (-0.6111885E-04)
 number of electron     359.9999989 magnetization       0.0185478
 augmentation part      -66.2318090 magnetization       0.0195875

 Broyden mixing:
  rms(total) = 0.49386E-02    rms(broyden)= 0.49386E-02
  rms(prec ) = 0.51346E-02
  weight for this iteration     100.00

 eigenvalues of (default mixing * dielectric matrix)
  average eigenvalue GAMMA=   1.3532
  3.0403  2.4356  1.1415  1.1415  0.9474  0.8639  0.6485  0.6070

 Free energy of the ion-electron system (eV)
  ---------------------------------------------------
  alpha Z        PSCENC =       799.26392333
  Ewald energy   TEWEN  =    -12863.42688535
  -Hartree energ DENC   =     -1193.63465310
  -exchange      EXHF   =         0.00000000
  -V(xc)+E(xc)   XCENC  =      -289.20531388
  PAW double counting   =     17176.54561852   -16164.56418045
  entropy T*S    EENTRO =        -0.00000000
  eigenvalues    EBANDS =      -802.18894994
  atomic energy  EATOM  =     13036.45147835
  Solvation  Ediel_sol  =         0.00000000
  ---------------------------------------------------
  free energy    TOTEN  =      -300.75896253 eV

  energy without entropy =     -300.75896253  energy(sigma->0) =     -300.75896253


--------------------------------------------------------------------------------------------------------




--------------------------------------- Iteration      1(  14)  ---------------------------------------


    POTLOK:  cpu time      0.1303: real time      0.1309
    SETDIJ:  cpu time      0.6300: real time      0.6319
     EDDAV:  cpu time      9.6140: real time      9.6605
       DOS:  cpu time      0.0007: real time      0.0007
    CHARGE:  cpu time      0.4205: real time      0.4222
    MIXING:  cpu time      0.0080: real time      0.0081
    --------------------------------------------
      LOOP:  cpu time     10.8035: real time     10.8542

 eigenvalue-minimisations  :  8312
 total energy-change (2. order) :-0.2045931E-04  (-0.1003412E-04)
 number of electron     359.9999989 magnetization       0.0052660
 augmentation part      -66.2314476 magnetization       0.0057029

 Broyden mixing:
  rms(total) = 0.17218E-02    rms(broyden)= 0.17218E-02
  rms(prec ) = 0.18228E-02
  weight for this iteration     100.00

 eigenvalues of (default mixing * dielectric matrix)
  average eigenvalue GAMMA=   1.3377
  3.0751  2.4654  1.4919  1.2142  0.8734  0.8734  0.7946  0.6103  0.6411

 Free energy of the ion-electron system (eV)
  ---------------------------------------------------
  alpha Z        PSCENC =       799.26392333
  Ewald energy   TEWEN  =    -12863.42688535
  -Hartree energ DENC   =     -1193.64195789
  -exchange      EXHF   =         0.00000000
  -V(xc)+E(xc)   XCENC  =      -289.20583520
  PAW double counting   =     17171.58383750   -16159.59928979
  entropy T*S    EENTRO =        -0.00000000
  eigenvalues    EBANDS =      -802.18425393
  atomic energy  EATOM  =     13036.45147835
  Solvation  Ediel_sol  =         0.00000000
  ---------------------------------------------------
  free energy    TOTEN  =      -300.75898298 eV

  energy without entropy =     -300.75898298  energy(sigma->0) =     -300.75898298


--------------------------------------------------------------------------------------------------------




--------------------------------------- Iteration      1(  15)  ---------------------------------------


    POTLOK:  cpu time      0.1313: real time      0.1319
    SETDIJ:  cpu time      0.6278: real time      0.6301
     EDDAV:  cpu time      9.9036: real time      9.9515
       DOS:  cpu time      0.0009: real time      0.0009
    CHARGE:  cpu time      0.4211: real time      0.4228
    MIXING:  cpu time      0.0093: real time      0.0093
    --------------------------------------------
      LOOP:  cpu time     11.0939: real time     11.1465

 eigenvalue-minimisations  :  8544
 total energy-change (2. order) :-0.3806647E-05  (-0.1704325E-05)
 number of electron     359.9999989 magnetization       0.0019080
 augmentation part      -66.2315563 magnetization       0.0021192

 Broyden mixing:
  rms(total) = 0.73555E-03    rms(broyden)= 0.73555E-03
  rms(prec ) = 0.78165E-03
  weight for this iteration     100.00

 eigenvalues of (default mixing * dielectric matrix)
  average eigenvalue GAMMA=   1.3013
  3.0880  2.4280  1.6491  1.0685  1.0042  1.0042  0.8279  0.7074  0.6178  0.6178

 Free energy of the ion-electron system (eV)
  ---------------------------------------------------
  alpha Z        PSCENC =       799.26392333
  Ewald energy   TEWEN  =    -12863.42688535
  -Hartree energ DENC   =     -1193.63217313
  -exchange      EXHF   =         0.00000000
  -V(xc)+E(xc)   XCENC  =      -289.20607524
  PAW double counting   =     17171.06228605   -16159.07700952
  entropy T*S    EENTRO =        -0.00000000
  eigenvalues    EBANDS =      -802.19453128
  atomic energy  EATOM  =     13036.45147835
  Solvation  Ediel_sol  =         0.00000000
  ---------------------------------------------------
  free energy    TOTEN  =      -300.75898679 eV

  energy without entropy =     -300.75898679  energy(sigma->0) =     -300.75898679


--------------------------------------------------------------------------------------------------------




--------------------------------------- Iteration      1(  16)  ---------------------------------------


    POTLOK:  cpu time      0.1308: real time      0.1314
    SETDIJ:  cpu time      0.6300: real time      0.6318
     EDDAV:  cpu time      6.7316: real time      6.7727
       DOS:  cpu time      0.0008: real time      0.0008
    --------------------------------------------
      LOOP:  cpu time      7.4932: real time      7.5367

 eigenvalue-minimisations  :  4992
 total energy-change (2. order) :-0.5544714E-06  (-0.1401678E-06)
 number of electron     359.9999989 magnetization       0.0019080
 augmentation part      -66.2315563 magnetization       0.0021192

 Free energy of the ion-electron system (eV)
  ---------------------------------------------------
  alpha Z        PSCENC =       799.26392333
  Ewald energy   TEWEN  =    -12863.42688535
  -Hartree energ DENC   =     -1193.62639823
  -exchange      EXHF   =         0.00000000
  -V(xc)+E(xc)   XCENC  =      -289.20635444
  PAW double counting   =     17171.00996734   -16159.02445525
  entropy T*S    EENTRO =        -0.00000000
  eigenvalues    EBANDS =      -802.20026309
  atomic energy  EATOM  =     13036.45147835
  Solvation  Ediel_sol  =         0.00000000
  ---------------------------------------------------
  free energy    TOTEN  =      -300.75898735 eV

  energy without entropy =     -300.75898735  energy(sigma->0) =     -300.75898735


--------------------------------------------------------------------------------------------------------




 average (electrostatic) potential at core
  the test charge radii are     1.1631  1.0808
  (the norm of the test charge is              1.0000)
       1 -33.4272       2 -33.5220       3 -33.3871       4 -33.3216       5 -33.2573
       6 -33.4660       7 -33.4710       8 -33.2089       9 -33.3784      10 -33.5122
      11 -33.4588      12 -33.4772      13 -33.3104      14 -33.3839      15 -33.5176
      16 -33.6392      17 -33.4676      18 -33.2996      19 -33.5450      20 -33.3323
      21 -33.4531      22 -33.5686      23 -33.3230      24 -33.1411      25 -33.3834
      26 -33.4990      27 -33.4970      28 -33.4863      29 -33.6744      30 -33.4515
      31 -33.2437      32 -33.3182      33 -33.5668      34 -33.6940      35 -33.2320
      36 -33.5237      37 -54.9430      38 -54.8883      39 -54.7723      40 -54.7136
      41 -54.8562      42 -54.8739      43 -54.8932      44 -54.7637      45 -54.8503
      46 -54.7899      47 -54.7941      48 -54.7271      49 -54.8925      50 -54.9302
      51 -54.5063      52 -54.8756      53 -54.7652      54 -54.9289      55 -54.7660
      56 -54.7909      57 -54.9205      58 -54.5981      59 -54.6653      60 -54.8843
      61 -55.0202      62 -54.7439      63 -54.8346      64 -55.0511      65 -54.8751
      66 -54.8503      67 -54.6489      68 -54.8547      69 -54.8271      70 -54.8956
      71 -54.9692      72 -54.9032
 
 
 
 E-fermi :   3.4609     XC(G=0):  -9.3841     alpha+bet : -8.8472

 Fermi energy:         3.4608987750

 spin component 1

 k-point     1 :       0.0000    0.0000    0.0000
  band No.  band energies     occupation 
      1     -10.9230      1.00000
      2     -10.6200      1.00000
      3     -10.4588      1.00000
      4     -10.4194      1.00000
      5     -10.2982      1.00000
      6     -10.2355      1.00000
      7     -10.2009      1.00000
      8     -10.1574      1.00000
      9     -10.0310      1.00000
     10      -9.9478      1.00000
     11      -9.9141      1.00000
     12      -9.8677      1.00000
     13      -9.8371      1.00000
     14      -9.7474      1.00000
     15      -9.6926      1.00000
     16      -9.6431      1.00000
     17      -9.6130      1.00000
     18      -9.5730      1.00000
     19      -9.5491      1.00000
     20      -9.4603      1.00000
     21      -9.4382      1.00000
     22      -9.4150      1.00000
     23      -9.3598      1.00000
     24      -9.3146      1.00000
     25      -9.2835      1.00000
     26      -9.2638      1.00000
     27      -9.2236      1.00000
     28      -9.1972      1.00000
     29      -9.1639      1.00000
     30      -9.1440      1.00000
     31      -9.1076      1.00000
     32      -9.0532      1.00000
     33      -9.0311      1.00000
     34      -9.0105      1.00000
     35      -8.9023      1.00000
     36      -8.8193      1.00000
     37      -5.4334      1.00000
     38      -5.3759      1.00000
     39      -5.3193      1.00000
     40      -5.2103      1.00000
     41      -5.1012      1.00000
     42      -5.0607      1.00000
     43      -5.0161      1.00000
     44      -4.9165      1.00000
     45      -4.7850      1.00000
     46      -4.7399      1.00000
     47      -4.5515      1.00000
     48      -4.4896      1.00000
     49      -4.4762      1.00000
     50      -4.4350      1.00000
     51      -4.3992      1.00000
     52      -4.3905      1.00000
     53      -4.3601      1.00000
     54      -4.2960      1.00000
     55      -4.2767      1.00000
     56      -4.2597      1.00000
     57      -4.2266      1.00000
     58      -4.2105      1.00000
     59      -4.1680      1.00000
     60      -4.1174      1.00000
     61      -4.0570      1.00000
     62      -4.0318      1.00000
     63      -3.9728      1.00000
     64      -3.9351      1.00000
     65      -3.9175      1.00000
     66      -3.8156      1.00000
     67      -3.7039      1.00000
     68      -3.6241      1.00000
     69      -3.4841      1.00000
     70      -3.4398      1.00000
     71      -2.3522      1.00000
     72      -2.3270      1.00000
     73      -1.8596      1.00000
     74      -1.6294      1.00000
     75      -1.5965      1.00000
     76      -1.5409      1.00000
     77      -1.4885      1.00000
     78      -1.3907      1.00000
     79      -1.3472      1.00000
     80      -1.2999      1.00000
     81      -1.2607      1.00000
     82      -1.1909      1.00000
     83      -1.1310      1.00000
     84      -1.0247      1.00000
     85      -0.9369      1.00000
     86      -0.8336      1.00000
     87      -0.7771      1.00000
     88      -0.7514      1.00000
     89      -0.6529      1.00000
     90      -0.6204      1.00000
     91      -0.5661      1.00000
     92      -0.5244      1.00000
     93      -0.3661      1.00000
     94      -0.3425      1.00000
     95      -0.1878      1.00000
     96      -0.1330      1.00000
     97      -0.0247      1.00000
     98       0.0201      1.00000
     99       0.0511      1.00000
    100       0.0839      1.00000
    101       0.0853      1.00000
    102       0.1162      1.00000
    103       0.1629      1.00000
    104       0.1863      1.00000
    105       0.2031      1.00000
    106       0.2691      1.00000
    107       0.3216      1.00000
    108       0.3422      1.00000
    109       0.3546      1.00000
    110       0.4271      1.00000
    111       0.5412      1.00000
    112       0.5663      1.00000
    113       0.5973      1.00000
    114       0.6260      1.00000
    115       0.6570      1.00000
    116       0.6845      1.00000
    117       0.7077      1.00000
    118       0.7278      1.00000
    119       0.7671      1.00000
    120       0.8034      1.00000
    121       0.8205      1.00000
    122       0.8675      1.00000
    123       0.8853      1.00000
    124       0.9367      1.00000
    125       0.9476      1.00000
    126       1.0218      1.00000
    127       1.0543      1.00000
    128       1.0862      1.00000
    129       1.0993      1.00000
    130       1.1645      1.00000
    131       1.1747      1.00000
    132       1.2073      1.00000
    133       1.2319      1.00000
    134       1.3292      1.00000
    135       1.3470      1.00000
    136       1.3736      1.00000
    137       1.4126      1.00000
    138       1.4729      1.00000
    139       1.4920      1.00000
    140       1.5216      1.00000
    141       1.5552      1.00000
    142       1.6177      1.00000
    143       1.6733      1.00000
    144       1.6957      1.00000
    145       1.7405      1.00000
    146       1.7743      1.00000
    147       1.8261      1.00000
    148       1.8333      1.00000
    149       1.8730      1.00000
[...]
   -.259E+01 -.114E+02 -.362E+02   0.288E+01 0.139E+02 0.393E+02   0.125E+00 -.197E+01 -.244E+01   -.410E-04 0.141E-03 0.243E-03
   -.121E+02 0.150E+02 0.241E+02   0.132E+02 -.167E+02 -.267E+02   -.620E+00 0.174E+01 0.277E+01   0.124E-03 -.468E-04 0.270E-03
   -.635E+01 0.209E+02 0.279E+02   0.679E+01 -.223E+02 -.300E+02   0.270E+00 0.781E+00 0.198E+01   0.568E-03 -.263E-03 -.124E-03
   0.125E+01 0.116E+02 0.229E+02   -.147E+01 -.124E+02 -.244E+02   0.115E+00 0.127E+01 0.189E+01   0.357E-03 -.674E-06 -.247E-03
   -.136E+01 -.423E+01 0.173E+02   0.138E+01 0.376E+01 -.189E+02   -.260E-01 0.912E+00 0.182E+01   0.788E-04 -.417E-04 -.125E-05
   0.839E+00 0.925E+01 0.174E+02   -.702E+00 -.100E+02 -.189E+02   0.229E+00 0.736E+00 0.200E+01   -.335E-03 0.780E-04 -.550E-03
   -.621E+01 0.118E+02 0.350E+02   0.662E+01 -.127E+02 -.373E+02   -.853E-01 0.607E+00 0.179E+01   -.257E-03 0.325E-03 0.122E-04
   0.199E+01 0.152E+01 0.230E+02   -.196E+01 -.246E+01 -.246E+02   0.286E+00 0.688E+00 0.155E+01   0.235E-04 -.394E-03 -.169E-03
   0.818E+00 0.416E+01 0.287E+02   -.919E+00 -.471E+01 -.309E+02   -.841E-01 0.614E+00 0.147E+01   -.777E-04 0.203E-03 0.213E-03
   -.195E+01 -.175E+02 -.283E+02   0.235E+01 0.190E+02 0.298E+02   -.109E+00 -.125E+01 -.179E+01   -.370E-04 -.509E-03 -.916E-04
   -.171E+02 -.151E+02 -.247E+02   0.175E+02 0.164E+02 0.267E+02   0.316E+00 -.100E+01 -.230E+01   0.178E-03 -.302E-03 -.187E-03
   0.286E+01 -.572E+01 -.167E+02   -.278E+01 0.688E+01 0.182E+02   -.394E+00 -.148E+01 -.182E+01   0.343E-03 -.181E-03 -.732E-04
   0.155E+02 0.302E+01 -.167E+02   -.163E+02 -.362E+01 0.185E+02   0.907E+00 0.576E+00 -.197E+01   -.270E-03 0.189E-03 -.352E-03
   0.160E+02 0.931E+01 -.313E+02   -.168E+02 -.961E+01 0.338E+02   0.109E+01 0.114E+00 -.184E+01   -.328E-03 -.660E-04 -.307E-03
   -.128E+02 -.634E+01 -.283E+02   0.132E+02 0.760E+01 0.302E+02   -.177E+00 -.131E+01 -.137E+01   0.364E-04 -.596E-04 0.150E-04
   0.689E+01 -.258E+02 -.246E+02   -.717E+01 0.275E+02 0.258E+02   -.183E+00 -.142E+01 -.146E+01   0.162E-03 -.595E-04 0.455E-04
   -.866E+01 0.500E+01 0.321E+02   0.873E+01 -.559E+01 -.340E+02   0.133E+00 0.126E+01 0.161E+01   -.137E-03 0.106E-03 -.969E-04
   -.477E+00 -.230E+01 0.372E+02   0.307E+00 0.148E+01 -.390E+02   -.466E-01 0.115E+01 0.107E+01   -.809E-04 -.951E-05 0.278E-04
   -.489E+01 -.800E+01 0.294E+02   0.470E+01 0.851E+01 -.314E+02   -.347E-01 -.772E+00 0.218E+01   0.384E-03 -.359E-03 0.341E-03
   0.771E+01 -.824E+01 0.392E+02   -.819E+01 0.962E+01 -.413E+02   -.153E+00 -.778E+00 0.152E+01   0.333E-03 -.244E-03 0.128E-03
   -.133E+02 -.145E+02 0.207E+02   0.136E+02 0.157E+02 -.221E+02   0.291E+00 -.148E+01 0.185E+01   0.253E-03 -.466E-04 -.856E-04
   0.243E+02 0.146E+01 -.127E+02   -.255E+02 -.149E+01 0.144E+02   0.847E+00 0.283E+00 -.216E+01   -.363E-03 0.425E-03 -.226E-03
   -.104E+02 0.191E+02 -.445E+02   0.103E+02 -.205E+02 0.469E+02   -.154E-01 0.933E+00 -.133E+01   0.264E-04 -.263E-03 0.111E-03
   -.110E+02 0.381E+01 -.317E+02   0.115E+02 -.435E+01 0.333E+02   -.129E+00 0.430E+00 -.165E+01   -.192E-03 0.355E-03 0.356E-03
   -.634E+01 0.362E+01 -.303E+02   0.603E+01 -.478E+01 0.318E+02   0.314E+00 0.136E+01 -.185E+01   0.187E-03 -.236E-04 0.343E-03
   0.768E+01 0.245E+02 -.396E+02   -.800E+01 -.260E+02 0.414E+02   -.579E-01 0.121E+01 -.167E+01   -.173E-04 0.239E-03 0.282E-03
   -.360E+01 0.824E+01 -.362E+02   0.383E+01 -.922E+01 0.384E+02   -.141E+00 0.102E+01 -.111E+01   0.188E-03 -.182E-03 -.117E-03
   -.826E+01 -.105E+02 -.287E+02   0.843E+01 0.101E+02 0.306E+02   0.265E-01 0.787E+00 -.129E+01   -.511E-03 -.687E-04 0.214E-03
   0.148E+02 0.118E+02 -.208E+02   -.153E+02 -.127E+02 0.224E+02   -.443E+00 0.348E+00 -.232E+01   -.368E-07 0.541E-03 0.231E-03
   0.680E+01 0.221E+02 -.385E+02   -.690E+01 -.237E+02 0.403E+02   -.290E+00 0.100E+01 -.168E+01   0.146E-04 0.233E-04 0.376E-03
   0.802E+01 -.261E+00 -.272E+02   -.809E+01 -.587E+00 0.288E+02   -.898E-02 0.109E+01 -.145E+01   0.381E-03 -.529E-03 0.272E-03
   0.138E+02 -.109E+02 0.299E+02   -.142E+02 0.122E+02 -.315E+02   -.634E-01 -.135E+01 0.156E+01   0.668E-04 0.855E-04 0.191E-04
   0.219E+02 -.889E+01 0.214E+02   -.234E+02 0.899E+01 -.231E+02   0.116E+01 0.425E+00 0.229E+01   -.253E-03 0.273E-03 -.139E-05
   0.244E+02 0.537E+01 0.327E+02   -.259E+02 -.550E+01 -.350E+02   0.129E+01 0.468E+00 0.166E+01   -.521E-03 0.173E-03 0.216E-03
   -.945E+01 0.694E+01 0.250E+02   0.954E+01 -.646E+01 -.263E+02   0.636E-01 -.848E+00 0.129E+01   0.214E-03 -.265E-04 0.849E-04
   0.111E+02 -.266E+02 0.354E+02   -.115E+02 0.281E+02 -.375E+02   -.656E-01 -.110E+01 0.148E+01   -.197E-04 -.178E-03 0.305E-03
   0.200E+02 0.887E+01 0.280E+02   -.217E+02 -.906E+01 -.298E+02   0.124E+01 0.198E+00 0.145E+01   -.380E-03 0.396E-03 -.219E-03
   -.113E+02 -.632E+01 -.258E+02   0.117E+02 0.748E+01 0.274E+02   -.220E+00 -.150E+01 -.163E+01   0.124E-03 -.266E-05 -.183E-03
 -----------------------------------------------------------------------------------------------
   0.768E+01 0.452E+01 0.982E+00   -.284E-13 -.373E-13 -.107E-13   -.768E+01 -.452E+01 -.982E+00   -.372E-03 -.203E-03 0.331E-03
 
 
 POSITION                                       TOTAL-FORCE (eV/Angst)
 -----------------------------------------------------------------------------------
      0.64280      0.43078      1.56661        -0.209004     -0.016901     -0.066063
      2.64039     10.69770      4.07548        -0.124054      0.009790     -0.463289
      6.94342      2.51379      3.93896        -0.255966     -0.231472      0.606966
      6.87094      6.96881      4.23730         0.556824     -0.691223      0.044960
      7.17725     11.03898      4.01845        -0.230654     -0.079455      0.518126
     11.35459      2.68354      4.19620         0.114262      0.128663     -0.387305
     10.92447      6.60220      4.21159        -0.176441     -0.036507      0.242368
     11.13823     10.77293      3.90481        -0.457918     -0.211591      0.226014
      0.68571      2.04958      7.03442         0.443621     -0.377392     -0.958162
      0.90686      6.11167      6.92325         0.054267      0.040292      0.368301
      0.74825     10.14426      6.86376         0.330385     -0.064015      0.450888
      4.91902      2.05987      6.91462        -0.270956     -0.559931      0.059471
      4.94549      6.03860      7.00055        -0.166925      0.068415     -1.138137
      5.00050     10.27544      6.91177        -0.224138      0.071793     -0.298434
      9.12796      2.11561      6.99752        -0.504617      0.167422      0.433342
      9.12124      6.22648      6.94484         0.000331     -0.276634      0.008821
      3.18179      6.82308      4.15068        -0.309589      0.122379     -0.066345
      2.93687      2.49445      4.11141        -0.129023      0.178066      0.600868
      9.15545     10.34006      6.87009        -0.024633     -0.263635      0.048728
     11.10730      8.19955      9.72465         0.580114      0.234460      0.245120
     11.17578     12.45407      9.49828        -0.087894     -0.304533      0.327443
      0.92109      4.73908      1.44972         0.233552      0.112152      0.325882
      0.45668      8.53721      1.52222         0.565094      0.293488     -0.158415
      4.66035      0.33459      1.59262         0.464639     -0.749589     -0.967196
      4.76649      4.63767      1.33878         0.354688      0.165139     -0.374556
      9.23867      0.45685      1.30344         0.087410      0.272352      0.460989
      8.78649      4.48651      1.50115         0.128779     -0.036899      0.242964
      5.06877      8.81259      1.27772        -0.027216      0.207777      0.361141
      2.93257      4.08753      9.70429         0.100802     -0.037619     -0.558822
      3.13567      8.19953      9.58323        -0.480006      0.069706     -0.216849
      2.72084     12.30988      9.62753         0.159946     -0.214277     -0.063120
      6.99666      3.83161      9.51137         0.329680      0.594825      0.686901
      7.21809      8.04245      9.64832        -0.385246      0.418929      0.048321
      7.06938     12.39249      9.62940        -0.184203     -0.285094     -0.517889
     11.23762      4.12275      9.54172         0.406999      0.485526      0.718611
      8.85373      8.65085      1.33205         0.483716      0.032526      0.256287
     10.96696      0.42549      7.04017         0.708230     -0.615618     -0.153109
      2.94987      4.28920      7.07679        -0.104738      0.446401      0.453226
      2.89856      8.41068      7.00180        -0.004578      0.446157      0.221067
      6.96534      0.35066      7.03205         0.365512     -0.035711      0.496905
      7.01512      4.48360      7.10412         0.323607     -0.312819     -0.455120
      7.06131      8.67125      7.15992         0.317727     -0.244395     -0.130734
     11.19700      4.44863      7.10695        -0.185040      0.073322     -0.716285
      9.18679      0.09512      3.89696         0.291978      0.220876     -0.285602
      0.57050     12.46341      4.09107         0.778144      0.276738     -0.348980
      1.08091      4.38507      4.02197        -0.313332     -0.323932     -0.360202
      1.07665      8.56642      4.04249         0.030910     -0.029381     -0.110666
      5.20942      0.34036      3.96182         0.253832     -0.189111      0.682079
      4.88307      4.20088      3.77338         0.222727     -0.045839      0.522309
      5.08546      8.62565      3.93237        -0.469243      0.365388     -0.345602
      2.72448      0.13565      7.14120         0.206972      0.664784     -0.286646
     11.18513      8.46232      7.25272        -0.215823      0.331773     -0.646556
     11.14756     10.49195      1.40178        -0.222887     -0.259957      0.134504
      2.81765      1.96481      1.70416        -0.632477      0.605185     -0.600298
     11.13084      2.30211      1.58105         0.595859     -0.248814      0.367992
      9.40792      4.38194      4.12302        -0.316854      0.252933     -0.458356
      0.88356      2.48958      9.40429        -0.117268     -0.410105      1.109316
      0.79958      6.55187      9.50362         0.341029     -0.113071     -0.070824
      0.74151     10.58966      9.43731         0.003613      0.200307     -0.312392
      4.99582      2.29630      9.43665        -0.383557     -0.273961      0.085535
      5.04432      6.43737      9.36705         0.082726      0.034631      1.139775
      4.84882     10.58544      9.36361         0.200159      0.396651      0.595456
      9.37246      2.42715      9.67682        -0.958008     -0.543429     -0.694777
      9.22981      6.50170      9.47860        -0.392635     -0.661515      0.035330
      9.14253     10.67205      9.37263        -0.076782      0.246427      0.152041
      3.07660      6.51310      1.58056        -0.445332     -0.067563     -0.028208
      3.14908     10.51663      1.42586        -0.257308      0.519716      0.646284
      7.33627      2.25426      1.53934        -0.177376      0.338450     -0.600404
      6.88628      6.35251      1.67575         0.159015     -0.367679      0.009869
      7.18226     10.46817      1.57002        -0.458097      0.425052     -0.590673
     11.43932      6.42102      1.76989        -0.429290      0.006468     -0.424592
      9.03001      8.47046      3.90800         0.131960     -0.345291     -0.079598
 -----------------------------------------------------------------------------------
    total drift:                               -0.000737     -0.000821      0.000478


--------------------------------------------------------------------------------------------------------



  FREE ENERGIE OF THE ION-ELECTRON SYSTEM (eV)
  ---------------------------------------------------
  free  energy   TOTEN  =      -300.75898735 eV

  energy  without entropy=     -300.75898735  energy(sigma->0) =     -300.75898735
 


--------------------------------------------------------------------------------------------------------


    POTLOK:  cpu time      0.7321: real time      0.7344


--------------------------------------------------------------------------------------------------------


     LOOP+:  cpu time    181.6652: real time    182.6298
    4ORBIT:  cpu time      0.0000: real time      0.0000



 total charge

# of ion       s       p       d       tot
------------------------------------------
    1        1.327   0.753   0.052   2.132
    2        1.333   0.722   0.047   2.102
    3        1.325   0.775   0.057   2.158
    4        1.313   0.805   0.059   2.177
    5        1.313   0.808   0.061   2.182
    6        1.324   0.747   0.051   2.122
    7        1.320   0.774   0.055   2.149
    8        1.309   0.819   0.064   2.191
    9        1.320   0.786   0.061   2.166
   10        1.337   0.717   0.051   2.104
   11        1.325   0.741   0.050   2.116
   12        1.326   0.738   0.053   2.117
   13        1.303   0.838   0.068   2.208
   14        1.326   0.758   0.056   2.140
   15        1.333   0.740   0.055   2.128
   16        1.331   0.734   0.054   2.119
   17        1.330   0.745   0.055   2.129
   18        1.314   0.805   0.062   2.181
   19        1.327   0.740   0.052   2.119
   20        1.312   0.807   0.065   2.184
   21        1.323   0.760   0.055   2.138
   22        1.324   0.750   0.051   2.124
   23        1.324   0.779   0.056   2.159
   24        1.308   0.844   0.064   2.216
   25        1.307   0.810   0.060   2.178
   26        1.321   0.753   0.056   2.131
   27        1.334   0.728   0.047   2.110
   28        1.323   0.752   0.058   2.133
   29        1.324   0.734   0.052   2.110
   30        1.333   0.734   0.052   2.119
   31        1.315   0.777   0.054   2.145
   32        1.315   0.807   0.058   2.180
   33        1.312   0.784   0.056   2.152
   34        1.336   0.695   0.042   2.073
   35        1.316   0.824   0.069   2.209
   36        1.315   0.776   0.058   2.148
   37        1.477   2.321   0.037   3.835
   38        1.480   2.281   0.031   3.792
   39        1.478   2.276   0.029   3.783
   40        1.477   2.275   0.026   3.778
   41        1.476   2.310   0.034   3.820
   42        1.474   2.302   0.030   3.806
   43        1.475   2.314   0.036   3.824
   44        1.475   2.305   0.031   3.812
   45        1.480   2.301   0.034   3.815
   46        1.477   2.284   0.028   3.790
   47        1.477   2.288   0.031   3.796
   48        1.477   2.311   0.034   3.823
   49        1.475   2.318   0.034   3.828
   50        1.476   2.320   0.037   3.833
   51        1.477   2.277   0.025   3.780
   52        1.475   2.308   0.033   3.816
   53        1.481   2.287   0.032   3.800
   54        1.474   2.345   0.038   3.857
   55        1.477   2.283   0.028   3.788
   56        1.479   2.286   0.030   3.794
   57        1.473   2.334   0.037   3.843
   58        1.475   2.280   0.026   3.781
   59        1.478   2.285   0.028   3.791
   60        1.477   2.307   0.033   3.818
   61        1.476   2.328   0.038   3.841
   62        1.476   2.294   0.030   3.800
   63        1.482   2.286   0.032   3.799
   64        1.477   2.324   0.038   3.839
   65        1.476   2.295   0.030   3.801
   66        1.476   2.303   0.032   3.811
   67        1.478   2.276   0.027   3.781
   68        1.476   2.319   0.035   3.831
   69        1.475   2.290   0.029   3.794
   70        1.472   2.332   0.036   3.839
   71        1.475   2.328   0.036   3.839
   72        1.478   2.291   0.032   3.801
--------------------------------------------------
tot        100.734 110.523   3.174 214.431



 magnetization (x)

# of ion       s       p       d       tot
------------------------------------------
    1       -0.000  -0.000  -0.000  -0.000
    2       -0.000  -0.000  -0.000  -0.000
    3       -0.000   0.000   0.000   0.000
    4       -0.000   0.000   0.000   0.000
    5       -0.000   0.000   0.000   0.000
    6       -0.000   0.000   0.000   0.000
    7       -0.000   0.000   0.000   0.000
    8       -0.000   0.000  -0.000  -0.000
    9       -0.000   0.000  -0.000   0.000
   10       -0.000   0.000   0.000   0.000
   11       -0.000  -0.000  -0.000  -0.000
   12       -0.000   0.000   0.000   0.000
   13       -0.000   0.000   0.000   0.000
   14       -0.000  -0.000  -0.000  -0.000
   15       -0.000   0.000   0.000   0.000
   16       -0.000   0.000   0.000   0.000
   17       -0.000   0.000   0.000   0.000
   18       -0.000   0.000  -0.000  -0.000
   19       -0.000   0.000  -0.000  -0.000
   20       -0.000   0.000   0.000   0.000
   21       -0.000   0.000  -0.000   0.000
   22       -0.000   0.000   0.000   0.000
   23       -0.000   0.000  -0.000   0.000
   24       -0.000   0.000  -0.000   0.000
   25       -0.000   0.000   0.000   0.000
   26       -0.000   0.000   0.000   0.000
   27       -0.000   0.000   0.000   0.000
   28       -0.000   0.000   0.000   0.000
   29       -0.000   0.000   0.000   0.000
   30       -0.000   0.000  -0.000   0.000
   31       -0.000   0.000  -0.000  -0.000
   32       -0.000   0.000   0.000   0.000
   33       -0.000   0.000   0.000   0.000
   34       -0.000   0.000   0.000   0.000
   35       -0.000   0.000   0.000   0.000
   36       -0.000   0.000   0.000   0.000
   37       -0.000  -0.000   0.000  -0.000
   38       -0.000  -0.000   0.000  -0.000
   39       -0.000  -0.000  -0.000  -0.000
   40       -0.000  -0.000   0.000  -0.000
   41       -0.000  -0.000   0.000  -0.000
   42       -0.000  -0.000   0.000  -0.000
   43       -0.000  -0.000   0.000  -0.000
   44       -0.000  -0.000   0.000  -0.000
   45       -0.000  -0.000  -0.000  -0.000
   46       -0.000  -0.000   0.000  -0.000
   47       -0.000  -0.000  -0.000  -0.000
   48       -0.000  -0.000   0.000  -0.000
   49       -0.000  -0.000   0.000  -0.000
   50       -0.000  -0.000   0.000  -0.000
   51       -0.000  -0.000  -0.000  -0.000
   52       -0.000  -0.000  -0.000  -0.000
   53       -0.000  -0.000   0.000  -0.000
   54       -0.000  -0.000  -0.000  -0.000
   55       -0.000  -0.000   0.000  -0.000
   56       -0.000  -0.000   0.000  -0.000
   57       -0.000  -0.000   0.000  -0.000
   58       -0.000  -0.000   0.000  -0.000
   59       -0.000  -0.000  -0.000  -0.000
   60       -0.000  -0.000   0.000  -0.000
   61       -0.000  -0.000   0.000  -0.000
   62       -0.000  -0.000  -0.000  -0.000
   63       -0.000  -0.000   0.000  -0.000
   64       -0.000  -0.000   0.000  -0.000
   65       -0.000  -0.000   0.000  -0.000
   66       -0.000  -0.000   0.000  -0.000
   67       -0.000  -0.000  -0.000  -0.000
   68       -0.000  -0.000   0.000  -0.000
   69       -0.000  -0.000   0.000  -0.000
   70       -0.000  -0.000   0.000  -0.000
   71       -0.000  -0.000   0.000  -0.000
   72       -0.000  -0.000   0.000  -0.000
--------------------------------------------------
tot         -0.000  -0.000   0.000  -0.000
 

 total amount of memory used by VASP MPI-rank0   110524. kBytes
=======================================================================

   base      :      30000. kBytes
   nonl-proj :      16287. kBytes
   fftplans  :       6179. kBytes
   grid      :      15593. kBytes
   one-center:        146. kBytes
   wavefun   :      42319. kBytes
 
  
  
 General timing and accounting informations for this job:
 ========================================================
  
                  Total CPU time used (sec):      193.044
                            User time (sec):      187.544
                          System time (sec):        5.500
                         Elapsed time (sec):      195.906
  
                   Maximum memory used (kb):      315372.
                   Average memory used (kb):          N/A
  
                          Minor page faults:        97577
                          Major page faults:           50
                 Voluntary context switches:        11243
