 vasp.6.4.2 20Jul23 (build Oct 12 2023 10:31:02) complex                         
 executed on              LinuxNV date 2024.11.01  23:19:17
 running  128 mpi-ranks, with    1 threads/rank, on    2 nodes
 distrk:  each k-point on   64 cores,    2 groups
 distr:  one band on NCORE=   8 cores,    8 groups


--------------------------------------------------------------------------------------------------------


 INCAR:
   ENCUT = 520.000000
   SIGMA = 0.050000
   EDIFF = 1.00e-06
   ALGO = N
   GGA = PE
   PREC = Accurate
   SYSTEM = 01_AOPT
   ICHARG = 0
   ISMEAR = 0
   ISPIN = 2
   ISTART = 1
   ISYM = -1
   KPAR = 2
   LORBIT = 11
   NBANDS = 220
   NELM = 100
   NELMIN = 5
   NPAR = 8
   LASPH = .TRUE.
   LCHARG = .FALSE.
   LWAVE = .FALSE.
   LREAL = .FALSE.

 POTCAR:    PAW_PBE Ge 05Jan2001                  
 POTCAR:    PAW_PBE Se 06Sep2000                  
 -----------------------------------------------------------------------------
|                                                                             |
|           W    W    AA    RRRRR   N    N  II  N    N   GGGG   !!!           |
|           W    W   A  A   R    R  NN   N  II  NN   N  G    G  !!!           |
|           W    W  A    A  R    R  N N  N  II  N N  N  G       !!!           |
|           W WW W  AAAAAA  RRRRR   N  N N  II  N  N N  G  GGG   !            |
|           WW  WW  A    A  R   R   N   NN  II  N   NN  G    G                |
|           W    W  A    A  R    R  N    N  II  N    N   GGGG   !!!           |
|                                                                             |
|     You use a magnetic or noncollinear calculation, but did not specify     |
|     the initial magnetic moment with the MAGMOM tag. Note that a            |
|     default of 1 will be used for all atoms. This ferromagnetic setup       |
|     may break the symmetry of the crystal, in particular it may rule        |
|     out finding an antiferromagnetic solution. Thence, we recommend         |
|     setting the initial magnetic moment manually or verifying carefully     |
|     that this magnetic setup is desired.                                    |
|                                                                             |
 -----------------------------------------------------------------------------

 POTCAR:    PAW_PBE Ge 05Jan2001                  
   VRHFIN =Ge: s2p2                                                                                 
   LEXCH  = PE                                                                                      
   EATOM  =   104.9960 eV,    7.7170 Ry                                                             
                                                                                                    
   TITEL  = PAW_PBE Ge 05Jan2001                                                                    
   LULTRA =        F    use ultrasoft PP ?                                                          
   IUNSCR =        1    unscreen: 0-lin 1-nonlin 2-no                                               
   RPACOR =    2.170    partial core radius                                                         
   POMASS =   72.610; ZVAL   =    4.000    mass and valenz                                          
   RCORE  =    2.300    outmost cutoff radius                                                       
   RWIGS  =    2.300; RWIGS  =    1.217    wigner-seitz radius (au A)                               
   ENMAX  =  173.807; ENMIN  =  130.355 eV                                                          
   ICORE  =        3    local potential                                                             
   LCOR   =        T    correct aug charges                                                         
   LPAW   =        T    paw PP                                                                      
   EAUG   =  385.843                                                                                
   DEXC   =    0.000                                                                                
   RMAX   =    2.342    core radius for proj-oper                                                   
   RAUG   =    1.300    factor for augmentation sphere                                              
   RDEP   =    2.318    radius for radial grids                                                     
   RDEPT  =    2.103    core radius for aug-charge                                                  
                                                                                                    
   Atomic configuration                                                                             
   10 entries                                                                                       
     n  l   j            E        occ.                                                              
     1  0  0.50    -10959.8463   2.0000                                                             
     2  0  0.50     -1371.6056   2.0000                                                             
     2  1  1.50     -1198.4791   6.0000                                                             
     3  0  0.50      -168.4733   2.0000                                                             
     3  1  1.50      -115.6019   6.0000                                                             
     3  2  2.50       -29.3106  10.0000                                                             
     4  0  0.50       -11.7309   2.0000                                                             
     4  1  0.50        -3.8952   2.0000                                                             
     4  2  1.50        -4.0817   0.0000                                                             
     4  3  2.50        -4.0817   0.0000                                                             
   Description                                                                                      
     l       E           TYP  RCUT    TYP  RCUT                                                     
     0    -11.7309493     23  2.300                                                                 
     0     -7.4578696     23  2.300                                                                 
     1     -3.8952261     23  2.300                                                                 
     1      6.1178114     23  2.300                                                                 
     2     -4.0817478     23  2.300                                                                 
     3     -1.3605826      7  2.300                                                                 
  local pseudopotential read in
  partial core-charges read in
  partial kinetic energy density read in
  atomic valenz-charges read in
  non local Contribution for L=            0  read in
    real space projection operators read in
  non local Contribution for L=            0  read in
    real space projection operators read in
  non local Contribution for L=            1  read in
    real space projection operators read in
  non local Contribution for L=            1  read in
    real space projection operators read in
  non local Contribution for L=            2  read in
    real space projection operators read in
    PAW grid and wavefunctions read in
 
   number of l-projection  operators is LMAX  =            5
   number of lm-projection operators is LMMAX =           13
 
 POTCAR:    PAW_PBE Se 06Sep2000                  
   VRHFIN =Se: s2p4                                                                                 
   LEXCH  = PE                                                                                      
   EATOM  =   257.1286 eV,   18.8984 Ry                                                             
                                                                                                    
   TITEL  = PAW_PBE Se 06Sep2000                                                                    
   LULTRA =        F    use ultrasoft PP ?                                                          
   IUNSCR =        1    unscreen: 0-lin 1-nonlin 2-no                                               
   RPACOR =    1.900    partial core radius                                                         
   POMASS =   78.960; ZVAL   =    6.000    mass and valenz                                          
   RCORE  =    2.100    outmost cutoff radius                                                       
   RWIGS  =    2.200; RWIGS  =    1.164    wigner-seitz radius (au A)                               
   ENMAX  =  211.555; ENMIN  =  158.666 eV                                                          
   ICORE  =        3    local potential                                                             
   LCOR   =        T    correct aug charges                                                         
   LPAW   =        T    paw PP                                                                      
   EAUG   =  446.842                                                                                
   DEXC   =    0.000                                                                                
   RMAX   =    2.147    core radius for proj-oper                                                   
   RAUG   =    1.300    factor for augmentation sphere                                              
   RDEP   =    2.177    radius for radial grids                                                     
   RDEPT  =    1.928    core radius for aug-charge                                                  
                                                                                                    
   Atomic configuration                                                                             
   10 entries                                                                                       
     n  l   j            E        occ.                                                              
     1  0  0.50    -12503.4787   2.0000                                                             
     2  0  0.50     -1606.9547   2.0000                                                             
     2  1  1.50     -1413.3140   6.0000                                                             
     3  0  0.50      -213.4885   2.0000                                                             
     3  1  1.50      -152.9538   6.0000                                                             
     3  2  2.50       -53.1221  10.0000                                                             
     4  0  0.50       -17.2865   2.0000                                                             
     4  1  0.50        -6.5110   4.0000                                                             
     4  2  2.50        -6.8029   0.0000                                                             
     4  3  2.50        -6.8029   0.0000                                                             
   Description                                                                                      
     l       E           TYP  RCUT    TYP  RCUT                                                     
     0    -17.2865377     23  2.100                                                                 
     0    -15.3094411     23  2.100                                                                 
     1     -6.5110275     23  2.100                                                                 
     1     -0.0695192     23  2.100                                                                 
     2     -6.8029130     23  2.100                                                                 
     3     -1.3605826      7  2.100                                                                 
  local pseudopotential read in
  partial core-charges read in
  partial kinetic energy density read in
  atomic valenz-charges read in
  non local Contribution for L=            0  read in
    real space projection operators read in
  non local Contribution for L=            0  read in
    real space projection operators read in
  non local Contribution for L=            1  read in
    real space projection operators read in
  non local Contribution for L=            1  read in
    real space projection operators read in
  non local Contribution for L=            2  read in
    real space projection operators read in
    PAW grid and wavefunctions read in
 
   number of l-projection  operators is LMAX  =            5
   number of lm-projection operators is LMMAX =           13
 
 -----------------------------------------------------------------------------
|                                                                             |
|               ----> ADVICE to this user running VASP <----                  |
|                                                                             |
|     You have a (more or less) 'large supercell' and for larger cells it     |
|     might be more efficient to use real-space projection operators.         |
|     Therefore, try LREAL= Auto in the INCAR file.                           |
|     Mind: For very accurate calculation, you might also keep the            |
|     reciprocal projection scheme (i.e. LREAL=.FALSE.).                      |
|                                                                             |
 -----------------------------------------------------------------------------

  PAW_PBE Ge 05Jan2001                  :
 energy of atom  1       EATOM= -104.9960
 kinetic energy error for atom=    0.0002 (will be added to EATOM!!)
  PAW_PBE Se 06Sep2000                  :
 energy of atom  2       EATOM= -257.1286
 kinetic energy error for atom=    0.0007 (will be added to EATOM!!)
 
 
 POSCAR: Ge Se
  positions in cartesian coordinates
  No initial velocities read in
 exchange correlation table for  LEXCH =        8
   RHO(1)=    0.500       N(1)  =     2000
   RHO(2)=  100.500       N(2)  =     4000
 


--------------------------------------------------------------------------------------------------------


 ion  position               nearest neighbor table
   1  0.065  0.031  0.134-  45 2.62  54 2.65  55 2.84
   2  0.242  0.886  0.386-  48 2.42  67 2.68
   3  0.573  0.221  0.390-  49 2.56  56 2.62  68 2.76
   4  0.591  0.536  0.373-  69 2.60  72 2.68  56 2.80
   5  0.590  0.870  0.354-  70 2.45  44 2.68
   6  0.901  0.186  0.367-  55 2.53  45 2.66
   7  0.925  0.535  0.370-  71 2.53  47 2.64  46 2.84
   8  0.894  0.871  0.357-  44 2.64  53 2.65  45 2.72
   9  0.067  0.155  0.621-  37 2.56  51 2.65  57 2.65  43 2.84
  10  0.068  0.485  0.615-  58 2.67  38 2.68  43 2.84
  11  0.040  0.826  0.615-  52 2.50  59 2.53
  12  0.392  0.157  0.630-  60 2.55  51 2.57  40 2.74
  13  0.392  0.502  0.625-  61 2.46  38 2.81
  14  0.394  0.798  0.592-  42 2.51  39 2.60  50 2.69
  15  0.724  0.169  0.644-  63 2.46  40 2.74
  16  0.749  0.479  0.649-  64 2.42  43 2.83
  17  0.233  0.555  0.345-  66 2.48  50 2.80  47 2.81
  18  0.229  0.199  0.371-  54 2.58  49 2.73
  19  0.735  0.821  0.642-  65 2.43  52 2.70  42 2.78
  20  0.928  0.649  0.862-  58 2.41  52 2.56  59 2.83
  21  0.901  0.968  0.883-  65 2.63  59 2.69  37 2.75
  22  0.069  0.351  0.129-  46 2.40  54 2.72
  23  0.057  0.718  0.124-  53 2.49  47 2.56  67 2.73
  24  0.416  0.042  0.127-  48 2.59  68 2.60
  25  0.408  0.377  0.153-  49 2.66  69 2.68
  26  0.724  0.034  0.130-  44 2.69  68 2.72  55 2.76  70 2.84
  27  0.750  0.385  0.120-  71 2.61  56 2.65  69 2.85
  28  0.395  0.730  0.160-  50 2.57  67 2.75  70 2.80
  29  0.247  0.313  0.859-  57 2.54  60 2.56  38 2.70
  30  0.277  0.682  0.873-  62 2.52  39 2.58  61 2.63
  31  0.244  0.983  0.835-  51 2.48  62 2.82
  32  0.583  0.314  0.865-  41 2.51  63 2.59
  33  0.576  0.662  0.847-  42 2.43  64 2.79
  34  0.549  0.992  0.844-  40 2.45  62 2.65  65 2.79
  35  0.940  0.333  0.872-  57 2.58  43 2.62  58 2.68
  36  0.747  0.694  0.148-  72 2.44  53 2.70  71 2.74
  37  0.915  0.019  0.641-   9 2.56  21 2.75
  38  0.231  0.345  0.618-  10 2.68  29 2.70  13 2.81
  39  0.230  0.678  0.645-  30 2.58  14 2.60
  40  0.564  0.021  0.625-  34 2.45  12 2.74  15 2.74
  41  0.564  0.335  0.640-  32 2.51
  42  0.558  0.686  0.629-  33 2.43  14 2.51  19 2.78
  43  0.912  0.321  0.637-  35 2.62  16 2.83  10 2.84   9 2.84
  44  0.744  0.019  0.373-   8 2.64   5 2.68  26 2.69
  45  0.044  0.028  0.370-   1 2.62   6 2.66   8 2.72
  46  0.063  0.355  0.346-  22 2.40   7 2.84
  47  0.059  0.697  0.355-  23 2.56   7 2.64  17 2.81
  48  0.384  0.016  0.357-   2 2.42  24 2.59
  49  0.401  0.333  0.388-   3 2.56  25 2.66  18 2.73
  50  0.412  0.686  0.386-  28 2.57  14 2.69  17 2.80
  51  0.235  0.025  0.616-  31 2.48  12 2.57   9 2.65
  52  0.901  0.683  0.636-  11 2.50  20 2.56  19 2.70
  53  0.902  0.843  0.119-  23 2.49   8 2.65  36 2.70
  54  0.211  0.185  0.138-  18 2.58   1 2.65  22 2.72
  55  0.891  0.178  0.139-   6 2.53  26 2.76   1 2.84
  56  0.729  0.359  0.356-   3 2.62  27 2.65   4 2.80
  57  0.087  0.188  0.857-  29 2.54  35 2.58   9 2.65
  58  0.062  0.509  0.855-  20 2.41  10 2.67  35 2.68
  59  0.063  0.831  0.842-  11 2.53  21 2.69  20 2.83
  60  0.392  0.167  0.860-  12 2.55  29 2.56
  61  0.400  0.513  0.847-  13 2.46  30 2.63
  62  0.409  0.834  0.874-  30 2.52  34 2.65  31 2.82
  63  0.738  0.177  0.866-  15 2.46  32 2.59
  64  0.737  0.508  0.865-  16 2.42  33 2.79
  65  0.725  0.855  0.858-  19 2.43  21 2.63  34 2.79
  66  0.251  0.543  0.122-  17 2.48
  67  0.220  0.863  0.146-   2 2.68  23 2.73  28 2.75
  68  0.567  0.184  0.144-  24 2.60  26 2.72   3 2.76
  69  0.568  0.521  0.141-   4 2.60  25 2.68  27 2.85
  70  0.572  0.865  0.134-   5 2.45  28 2.80  26 2.84
  71  0.896  0.533  0.143-   7 2.53  27 2.61  36 2.74
  72  0.739  0.691  0.368-  36 2.44   4 2.68
 

IMPORTANT INFORMATION: All symmetrisations will be switched off!
NOSYMM: (Re-)initialisation of all symmetry stuff for point group C_1.


----------------------------------------------------------------------------------------

                                     Primitive cell                                     

  volume of cell :    1722.7335

  direct lattice vectors                    reciprocal lattice vectors
    12.475320979 -0.000002515  0.000001849     0.080158258  0.000000016 -0.000000015
    -0.000002519 12.494176086 -0.000000720     0.000000016  0.080037290  0.000000006
     0.000002109 -0.000000820 11.052454771    -0.000000013  0.000000005  0.090477638

  length of vectors
    12.475320979 12.494176086 11.052454771     0.080158258  0.080037290  0.090477638

  position of ions in fractional coordinates (direct lattice)
     0.064760281  0.030954664  0.133592456
     0.242244938  0.886452558  0.385844008
     0.573244684  0.221146055  0.389564229
     0.591193778  0.535640166  0.373295604
     0.590275327  0.870082178  0.354284161
     0.900570861  0.185975113  0.366973486
     0.925198404  0.534754458  0.370046498
     0.893995181  0.870688565  0.356801650
     0.067230431  0.155321022  0.621137851
     0.068352980  0.485000178  0.615454288
     0.040158965  0.826036157  0.614587225
     0.392255417  0.157209006  0.629941486
     0.391869827  0.501945352  0.624511932
     0.394480623  0.797551403  0.592483444
     0.724300205  0.169441174  0.644014308
     0.748920897  0.478812657  0.648620677
     0.233161371  0.554559862  0.344744658
     0.228992850  0.198638947  0.370698127
     0.734514892  0.821330381  0.641893309
     0.928332419  0.648884379  0.862263783
     0.901413108  0.968263426  0.882898849
     0.068906714  0.350618002  0.128699092
     0.056886086  0.718014733  0.124186946
     0.415825311  0.041632655  0.127220521
     0.407965282  0.377477427  0.152693574
     0.724060874  0.034090933  0.130421987
     0.750479268  0.384565011  0.119837544
     0.394713149  0.729500980  0.159642133
     0.247226573  0.312761941  0.859153990
     0.276626457  0.681714902  0.872619448
     0.243755577  0.983044543  0.834914733
     0.582670258  0.313672577  0.864809617
     0.575675288  0.662440059  0.846575997
     0.548941621  0.991935897  0.843782255
     0.940355109  0.333395340  0.872122773
     0.747445114  0.693810704  0.147551757
     0.914927296  0.019283757  0.640885937
     0.230827156  0.344786966  0.618320300
     0.229894502  0.678328413  0.645181097
     0.563815388  0.020962981  0.624971536
     0.563656192  0.335384393  0.639682497
     0.558165731  0.685913650  0.629130791
     0.911981620  0.321265515  0.637462737
     0.743609564  0.019067064  0.372535147
     0.044075755  0.028410364  0.369663728
     0.063414654  0.355171445  0.345648383
     0.059438550  0.697091138  0.354615849
     0.383617000  0.015957796  0.356601937
     0.401365343  0.332715719  0.388188329
     0.411556367  0.685852687  0.385740042
     0.234663991  0.025408374  0.616384861
     0.901149811  0.683189852  0.635916891
     0.901864036  0.843098361  0.119475260
     0.210820608  0.185249276  0.138421333
     0.891215999  0.178263056  0.138770488
     0.728527677  0.359066866  0.356130831
     0.086667645  0.188404364  0.856781718
     0.062176551  0.509449815  0.855346485
     0.062879854  0.830761315  0.842135446
     0.391777285  0.167476791  0.860450149
     0.400181268  0.512830870  0.846775469
     0.409375578  0.833712996  0.873534572
     0.738134863  0.176615775  0.865589936
     0.737195838  0.508401300  0.864905323
     0.725085188  0.854562765  0.858331031
     0.251078086  0.542889845  0.121508581
     0.219657144  0.862849038  0.146017119
     0.566611372  0.184086480  0.143842655
     0.567969410  0.520554877  0.140569972
     0.571567982  0.865020928  0.133748141
     0.896411132  0.532837786  0.143059855
     0.738545577  0.691099045  0.367678352

  ion indices of the primitive-cell ions
   primitive index   ion index
                 1           1
                 2           2
                 3           3
                 4           4
                 5           5
                 6           6
                 7           7
                 8           8
                 9           9
                10          10
                11          11
                12          12
                13          13
                14          14
                15          15
                16          16
                17          17
                18          18
                19          19
                20          20
                21          21
                22          22
                23          23
                24          24
                25          25
                26          26
                27          27
                28          28
                29          29
                30          30
                31          31
                32          32
                33          33
                34          34
                35          35
                36          36
                37          37
                38          38
                39          39
                40          40
                41          41
                42          42
                43          43
                44          44
                45          45
                46          46
                47          47
                48          48
                49          49
                50          50
                51          51
                52          52
                53          53
                54          54
                55          55
                56          56
                57          57
                58          58
                59          59
                60          60
                61          61
                62          62
                63          63
                64          64
                65          65
                66          66
                67          67
                68          68
                69          69
                70          70
                71          71
                72          72

----------------------------------------------------------------------------------------

 
 
 KPOINTS: KPOINTS created by Atomic Simulation Env

Automatic generation of k-mesh.
 Grid dimensions read from file:
 generate k-points for:    2    2    2

 Generating k-lattice:

  Cartesian coordinates                     Fractional coordinates (reciprocal lattice)
     0.040079129  0.000000008 -0.000000008     0.500000000 -0.000000000  0.000000000
     0.000000008  0.040018645  0.000000003    -0.000000000  0.500000000 -0.000000000
    -0.000000007  0.000000003  0.045238819     0.000000000  0.000000000  0.500000000

  Length of vectors
     0.040079129  0.040018645  0.045238819

  Shift w.r.t. Gamma in fractional coordinates (k-lattice)
     0.000000000  0.000000000  0.000000000

 
 Subroutine IBZKPT returns following result:
 ===========================================
 
 Found      8 irreducible k-points:
 
 Following reciprocal coordinates:
            Coordinates               Weight
  0.000000  0.000000  0.000000      1.000000
  0.500000  0.000000  0.000000      1.000000
  0.000000  0.500000  0.000000      1.000000
  0.500000  0.500000  0.000000      1.000000
  0.000000  0.000000  0.500000      1.000000
  0.500000  0.000000  0.500000      1.000000
  0.000000  0.500000  0.500000      1.000000
  0.500000  0.500000  0.500000      1.000000
 
 Following cartesian coordinates:
            Coordinates               Weight
  0.000000  0.000000  0.000000      1.000000
  0.040079  0.000000 -0.000000      1.000000
  0.000000  0.040019  0.000000      1.000000
  0.040079  0.040019 -0.000000      1.000000
 -0.000000  0.000000  0.045239      1.000000
  0.040079  0.000000  0.045239      1.000000
  0.000000  0.040019  0.045239      1.000000
  0.040079  0.040019  0.045239      1.000000
 
 -----------------------------------------------------------------------------
|                                                                             |
|           W    W    AA    RRRRR   N    N  II  N    N   GGGG   !!!           |
|           W    W   A  A   R    R  NN   N  II  NN   N  G    G  !!!           |
|           W    W  A    A  R    R  N N  N  II  N N  N  G       !!!           |
|           W WW W  AAAAAA  RRRRR   N  N N  II  N  N N  G  GGG   !            |
|           WW  WW  A    A  R   R   N   NN  II  N   NN  G    G                |
|           W    W  A    A  R    R  N    N  II  N    N   GGGG   !!!           |
|                                                                             |
|     The number of bands has been changed from the values supplied in        |
|     the INCAR file. This is a result of running the parallel version.       |
|     The orbitals not found in the WAVECAR file will be initialized with     |
|     random numbers, which is usually adequate. For correlated               |
|     calculations, however, you should redo the groundstate calculation.     |
|     I found NBANDS = 220. Now, NBANDS = 224.                                |
|                                                                             |
 -----------------------------------------------------------------------------



--------------------------------------------------------------------------------------------------------




 Dimension of arrays:
   k-points           NKPTS =      8   k-points in BZ     NKDIM =      8   number of bands    NBANDS=    224
   number of dos      NEDOS =    301   number of ions     NIONS =     72
   non local maximal  LDIM  =      5   non local SUM 2l+1 LMDIM =     13
   total plane-waves  NPLWV = 774144
   max r-space proj   IRMAX =      1   max aug-charges    IRDMAX=  24620
   dimension x,y,z NGX =    96 NGY =   96 NGZ =   84
   dimension x,y,z NGXF=   192 NGYF=  192 NGZF=  168
   support grid    NGXF=   192 NGYF=  192 NGZF=  168
   ions per type =              36  36
   NGX,Y,Z   is equivalent  to a cutoff of  12.79, 12.77, 12.63 a.u.
   NGXF,Y,Z  is equivalent  to a cutoff of  25.59, 25.55, 25.27 a.u.

 SYSTEM =  01_AOPT                                 
 POSCAR =  Ge Se                                   

 Startparameter for this run:
   NWRITE =      2    write-flag & timer
   PREC   = accura    normal or accurate (medium, high low for compatibility)
   ISTART =      0    job   : 0-new  1-cont  2-samecut
   ICHARG =      2    charge: 1-file 2-atom 10-const
   ISPIN  =      2    spin polarized calculation?
   LNONCOLLINEAR =      F non collinear calculations
   LSORBIT =      F    spin-orbit coupling
   INIWAV =      1    electr: 0-lowe 1-rand  2-diag
   LASPH  =      T    aspherical Exc in radial PAW
 Electronic Relaxation 1
   ENCUT  =  520.0 eV  38.22 Ry    6.18 a.u.  23.20 23.23 20.55*2*pi/ulx,y,z
   ENINI  =  520.0     initial cutoff
   ENAUG  =  446.8 eV  augmentation charge cutoff
   NELM   =    100;   NELMIN=  5; NELMDL=  0     # of ELM steps 
   EDIFF  = 0.1E-05   stopping-criterion for ELM
   LREAL  =      F    real-space projection
   NLSPLINE    = F    spline interpolate recip. space projectors
   LCOMPAT=      F    compatible to vasp.4.4
   GGA_COMPAT  = T    GGA compatible to vasp.4.4-vasp.4.6
   LMAXPAW     = -100 max onsite density
   LMAXMIX     =    2 max onsite mixed and CHGCAR
   VOSKOWN=      0    Vosko Wilk Nusair interpolation
   ROPT   =    0.00000   0.00000
 Ionic relaxation
   EDIFFG = 0.1E-04   stopping-criterion for IOM
   NSW    =      0    number of steps for IOM
   NBLOCK =      1;   KBLOCK =      1    inner block; outer block 
   IBRION =     -1    ionic relax: 0-MD 1-quasi-New 2-CG
   NFREE  =      0    steps in history (QN), initial steepest desc. (CG)
   ISIF   =      2    stress and relaxation
   IWAVPR =     10    prediction:  0-non 1-charg 2-wave 3-comb
   ISYM   =     -1    0-nonsym 1-usesym 2-fastsym
   LCORR  =      T    Harris-Foulkes like correction to forces

   POTIM  = 0.5000    time-step for ionic-motion
   TEIN   =    0.0    initial temperature
   TEBEG  =    0.0;   TEEND  =   0.0 temperature during run
   SMASS  =  -3.00    Nose mass-parameter (am)
   estimated Nose-frequenzy (Omega)   =  0.10E-29 period in steps = 0.13E+47 mass=  -0.356E-26a.u.
   SCALEE = 1.0000    scale energy and forces
   NPACO  =    256;   APACO  = 10.0  distance and # of slots for P.C.
   PSTRESS=    0.0 pullay stress

  Mass of Ions in am
   POMASS =  72.61 78.96
  Ionic Valenz
   ZVAL   =   4.00  6.00
  Atomic Wigner-Seitz radii
   RWIGS  =  -1.00 -1.00
  virtual crystal weights 
   VCA    =   1.00  1.00
   NELECT =     360.0000    total number of electrons
   NUPDOWN=      -1.0000    fix difference up-down

 DOS related values:
   EMIN   =  10.00;   EMAX   =-10.00  energy-range for DOS
   EFERMI =   0.00;   METHOD = LEGACY      
   ISMEAR =     0;   SIGMA  =   0.05  broadening in eV -4-tet -1-fermi 0-gaus

 Electronic relaxation 2 (details)
   IALGO  =     38    algorithm
   LDIAG  =      T    sub-space diagonalisation (order eigenvalues)
   LSUBROT=      F    optimize rotation matrix (better conditioning)
   TURBO    =      0    0=normal 1=particle mesh
   IRESTART =      0    0=no restart 2=restart with 2 vectors
   NREBOOT  =      0    no. of reboots
   NMIN     =      0    reboot dimension
   EREF     =   0.00    reference energy to select bands
   IMIX   =      4    mixing-type and parameters
     AMIX     =   0.40;   BMIX     =  1.00
     AMIX_MAG =   1.60;   BMIX_MAG =  1.00
     AMIN     =   0.10
     WC   =   100.;   INIMIX=   1;  MIXPRE=   1;  MAXMIX= -45

 Intra band minimization:
   WEIMIN = 0.0000     energy-eigenvalue tresh-hold
   EBREAK =  0.11E-08  absolut break condition
   DEPER  =   0.30     relativ break condition  

   TIME   =   0.40     timestep for ELM

  volume/ion in A,a.u.               =      23.93       161.47
  Fermi-wavevector in a.u.,A,eV,Ry     =   0.971485  1.835841 12.840961  0.943784
  Thomas-Fermi vector in A             =   2.101706
 
 Write flags
   LWAVE        =      F    write WAVECAR
   LDOWNSAMPLE  =      F    k-point downsampling of WAVECAR
   LCHARG       =      F    write CHGCAR
   LVTOT        =      F    write LOCPOT, total local potential
   LVHAR        =      F    write LOCPOT, Hartree potential only
   LELF         =      F    write electronic localiz. function (ELF)
   LORBIT       =     11    0 simple, 1 ext, 2 COOP (PROOUT), +10 PAW based schemes


 Dipole corrections
   LMONO  =      F    monopole corrections only (constant potential shift)
   LDIPOL =      F    correct potential (dipole corrections)
   IDIPOL =      0    1-x, 2-y, 3-z, 4-all directions 
   EPSILON=  1.0000000 bulk dielectric constant

 Exchange correlation treatment:
   GGA     =    PE    GGA type
   LEXCH   =     8    internal setting for exchange type
   LIBXC   =     F    Libxc                    
   VOSKOWN =     0    Vosko Wilk Nusair interpolation
   LHFCALC =     F    Hartree Fock is set to
   LHFONE  =     F    Hartree Fock one center treatment
   AEXX    =    0.0000 exact exchange contribution

 Linear response parameters
   LEPSILON=     F    determine dielectric tensor
   LRPA    =     F    only Hartree local field effects (RPA)
   LNABLA  =     F    use nabla operator in PAW spheres
   LVEL    =     F    velocity operator in full k-point grid
   CSHIFT  =0.1000    complex shift for real part using Kramers Kronig
   OMEGAMAX=  -1.0    maximum frequency
   DEG_THRESHOLD= 0.2000000E-02 threshold for treating states as degnerate
   RTIME   =   -0.100 relaxation time in fs
  (WPLASMAI=    0.000 imaginary part of plasma frequency in eV, 0.658/RTIME)
   DFIELD  = 0.0000000 0.0000000 0.0000000 field for delta impulse in time
 
  Optional k-point grid parameters
   LKPOINTS_OPT  =     F    use optional k-point grid
   KPOINTS_OPT_MODE=     1    mode for optional k-point grid
 
 Orbital magnetization related:
   ORBITALMAG=     F  switch on orbital magnetization
   LCHIMAG   =     F  perturbation theory with respect to B field
   DQ        =  0.001000  dq finite difference perturbation B field
   LLRAUG    =     F  two centre corrections for induced B field
   LBONE     =     F  B-component reconstruction in AE one-centre
   LVGVCALC  =     T  calculate vGv susceptibility
   LVGVAPPL  =     F  apply vGv susceptibility instead of pGv for G=0

 Random number generation:
   RANDOM_GENERATOR = DEFAULT
   PCG_SEED         = not used


--------------------------------------------------------------------------------------------------------


 Static calculation
 charge density and potential will be updated during run
 spin polarized calculation
 Variant of blocked Davidson
 Davidson routine will perform the subspace rotation
 perform sub-space diagonalisation
    after iterative eigenvector-optimisation
 modified Broyden-mixing scheme, WC =      100.0
 initial mixing is a Kerker type mixing with AMIX =  0.4000 and BMIX =      1.0000
 Hartree-type preconditioning will be used
 using additional bands            44
 reciprocal scheme for non local part
 use partial core corrections
 calculate Harris-corrections to forces 
   (improved forces if not selfconsistent)
 use gradient corrections 
 use of overlap-Matrix (Vanderbilt PP)
 Gauss-broadening in eV      SIGMA  =   0.05


--------------------------------------------------------------------------------------------------------


  energy-cutoff  :      520.00
  volume of cell :     1722.73
      direct lattice vectors                 reciprocal lattice vectors
    12.475320979 -0.000002515  0.000001849     0.080158258  0.000000016 -0.000000015
    -0.000002519 12.494176086 -0.000000720     0.000000016  0.080037290  0.000000006
     0.000002109 -0.000000820 11.052454771    -0.000000013  0.000000005  0.090477638

  length of vectors
    12.475320979 12.494176086 11.052454771     0.080158258  0.080037290  0.090477638


 
 k-points in units of 2pi/SCALE and weight: KPOINTS created by Atomic Simulation Env
   0.00000000  0.00000000  0.00000000       0.125
   0.04007913  0.00000001 -0.00000001       0.125
   0.00000001  0.04001865  0.00000000       0.125
   0.04007914  0.04001865 -0.00000000       0.125
  -0.00000001  0.00000000  0.04523882       0.125
   0.04007912  0.00000001  0.04523881       0.125
   0.00000000  0.04001865  0.04523882       0.125
   0.04007913  0.04001866  0.04523881       0.125
 
 k-points in reciprocal lattice and weights: KPOINTS created by Atomic Simulation Env
   0.00000000  0.00000000  0.00000000       0.125
   0.50000000  0.00000000  0.00000000       0.125
   0.00000000  0.50000000  0.00000000       0.125
   0.50000000  0.50000000  0.00000000       0.125
   0.00000000  0.00000000  0.50000000       0.125
   0.50000000  0.00000000  0.50000000       0.125
   0.00000000  0.50000000  0.50000000       0.125
   0.50000000  0.50000000  0.50000000       0.125
 
 position of ions in fractional coordinates (direct lattice) 
   0.06476028  0.03095466  0.13359246
   0.24224494  0.88645256  0.38584401
   0.57324468  0.22114606  0.38956423
   0.59119378  0.53564017  0.37329560
   0.59027533  0.87008218  0.35428416
   0.90057086  0.18597511  0.36697349
   0.92519840  0.53475446  0.37004650
   0.89399518  0.87068857  0.35680165
   0.06723043  0.15532102  0.62113785
   0.06835298  0.48500018  0.61545429
   0.04015896  0.82603616  0.61458723
   0.39225542  0.15720901  0.62994149
   0.39186983  0.50194535  0.62451193
   0.39448062  0.79755140  0.59248344
   0.72430020  0.16944117  0.64401431
   0.74892090  0.47881266  0.64862068
   0.23316137  0.55455986  0.34474466
   0.22899285  0.19863895  0.37069813
   0.73451489  0.82133038  0.64189331
   0.92833242  0.64888438  0.86226378
   0.90141311  0.96826343  0.88289885
   0.06890671  0.35061800  0.12869909
   0.05688609  0.71801473  0.12418695
   0.41582531  0.04163266  0.12722052
   0.40796528  0.37747743  0.15269357
   0.72406087  0.03409093  0.13042199
   0.75047927  0.38456501  0.11983754
   0.39471315  0.72950098  0.15964213
   0.24722657  0.31276194  0.85915399
   0.27662646  0.68171490  0.87261945
   0.24375558  0.98304454  0.83491473
   0.58267026  0.31367258  0.86480962
   0.57567529  0.66244006  0.84657600
   0.54894162  0.99193590  0.84378225
   0.94035511  0.33339534  0.87212277
   0.74744511  0.69381070  0.14755176
   0.91492730  0.01928376  0.64088594
   0.23082716  0.34478697  0.61832030
   0.22989450  0.67832841  0.64518110
   0.56381539  0.02096298  0.62497154
   0.56365619  0.33538439  0.63968250
   0.55816573  0.68591365  0.62913079
   0.91198162  0.32126551  0.63746274
   0.74360956  0.01906706  0.37253515
   0.04407575  0.02841036  0.36966373
   0.06341465  0.35517144  0.34564838
   0.05943855  0.69709114  0.35461585
   0.38361700  0.01595780  0.35660194
   0.40136534  0.33271572  0.38818833
   0.41155637  0.68585269  0.38574004
   0.23466399  0.02540837  0.61638486
   0.90114981  0.68318985  0.63591689
   0.90186404  0.84309836  0.11947526
   0.21082061  0.18524928  0.13842133
   0.89121600  0.17826306  0.13877049
   0.72852768  0.35906687  0.35613083
   0.08666765  0.18840436  0.85678172
   0.06217655  0.50944982  0.85534649
   0.06287985  0.83076131  0.84213545
   0.39177728  0.16747679  0.86045015
   0.40018127  0.51283087  0.84677547
   0.40937558  0.83371300  0.87353457
   0.73813486  0.17661578  0.86558994
   0.73719584  0.50840130  0.86490532
   0.72508519  0.85456276  0.85833103
   0.25107809  0.54288984  0.12150858
   0.21965714  0.86284904  0.14601712
   0.56661137  0.18408648  0.14384266
   0.56796941  0.52055488  0.14056997
   0.57156798  0.86502093  0.13374814
   0.89641113  0.53283779  0.14305985
   0.73854558  0.69109904  0.36767835
 
 position of ions in cartesian coordinates  (Angst):
   0.80790550  0.38675275  1.47652468
   3.02208194 11.07549343  4.26452326
   7.15141170  2.76303600  4.30564192
   7.37533158  6.69238076  4.12583348
   7.36387273 10.87095817  3.91571013
  11.23491086  2.32360324  4.05595938
  11.54214650  6.68131374  4.08992350
  11.15287540 10.87853371  3.94353513
   0.83872213  1.94060752  6.86509801
   0.85272544  6.05967695  6.80228046
   0.50099519 10.32064059  6.79269699
   4.89351316  1.96419550  6.96240040
   4.88870193  6.27139211  6.90239025
   4.92127164  9.96474619  6.54839662
   9.03587847  2.11702552  7.11794023
   9.34302874  5.98236724  7.16885173
   2.90876227  6.92876770  3.81027477
   2.85675959  2.48182910  4.09712457
   9.16330833 10.26184404  7.09449753
  11.58124508  8.10727265  9.53013272
  11.24541728 12.09765076  9.75820056
   0.85963276  4.38068278  1.42244077
   0.70967064  8.97100227  1.37257019
   5.18755439  0.52016458  1.40609980
   5.08949722  4.71626828  1.68763930
   9.03289201  0.42593620  1.44148443
   9.36246904  4.80482097  1.32450014
   4.92417173  9.11451258  1.76443766
   3.08423188  3.90770143  9.49576085
   3.45100397  8.51746461  9.64458701
   3.04092835 12.28233032  9.22785706
   7.26899953  3.91907823  9.55827003
   7.18173412  8.27664060  9.35674350
   6.84822221 12.39341969  9.32586551
  11.73123282  4.16549701  9.63909900
   9.32461628  8.66859110  1.63081000
  11.41401299  0.24093183  7.08336451
   2.87964330  4.30782798  6.83395732
   2.86800735  8.47515353  7.13083483
   7.03377921  0.26191325  6.90747066
   7.03179242  4.19034972  7.07006266
   6.96329626  8.56992400  6.95344015
  11.37726398  4.01394510  7.04552952
   9.27676873  0.23822508  4.11742923
   0.54985990  0.35496368  4.08569169
   0.79111800  4.43757413  3.82026298
   0.74151399  8.70957898  3.91937524
   4.78574592  0.19937825  3.94132748
   5.00716147  4.15700745  4.29043445
   5.13429687  8.56916289  4.26337463
   2.92750985  0.31745560  6.81256621
  11.24213276  8.53589153  7.02844385
  11.25104146 10.53381701  1.32049597
   2.63005458  2.31453643  1.52989578
  11.11820549  2.22724766  1.53375606
   9.08861646  4.48624253  3.93612099
   1.08120802  2.35395638  9.46954121
   0.77567295  6.36515484  9.45367809
   0.78444605 10.37967730  9.30766345
   4.88754877  2.09248283  9.51008696
   4.99239026  6.40739749  9.35894795
   5.10709147 10.41655523  9.65470151
   9.20847072  2.20666603  9.56689486
   9.19675524  6.35205280  9.55932796
   9.04567011 10.67705513  9.48666563
   3.13227860  6.78296058  1.34296817
   2.74029151 10.78058714  1.61384739
   7.06865858  2.30000735  1.58981536
   7.08559968  6.50390276  1.55364393
   7.13049213 10.80772225  1.47824571
  11.18301556  6.65736675  1.58116385
   9.21359217  8.63471100  4.06374923
 


--------------------------------------------------------------------------------------------------------


 k-point   1 :   0.0000 0.0000 0.0000  plane waves:   46329
 k-point   2 :   0.5000 0.0000 0.0000  plane waves:   46386
 k-point   3 :   0.0000 0.5000 0.0000  plane waves:   46406
 k-point   4 :   0.5000 0.5000 0.0000  plane waves:   46472
 k-point   5 :   0.0000 0.0000 0.5000  plane waves:   46434
 k-point   6 :   0.5000 0.0000 0.5000  plane waves:   46404
 k-point   7 :   0.0000 0.5000 0.5000  plane waves:   46384
 k-point   8 :   0.5000 0.5000 0.5000  plane waves:   46392

 maximum and minimum number of plane-waves per node :      5872     5762

 maximum number of plane-waves:     46472
 maximum index in each direction: 
   IXMAX=   23   IYMAX=   23   IZMAX=   20
   IXMIN=  -23   IYMIN=  -23   IZMIN=  -21


 parallel 3D FFT for wavefunctions:
    minimum data exchange during FFTs selected (reduces bandwidth)
 parallel 3D FFT for charge:
    minimum data exchange during FFTs selected (reduces bandwidth)


 total amount of memory used by VASP MPI-rank0   110684. kBytes
=======================================================================

   base      :      30000. kBytes
   nonl-proj :      16332. kBytes
   fftplans  :       6179. kBytes
   grid      :      15593. kBytes
   one-center:        146. kBytes
   wavefun   :      42434. kBytes
 
     INWAV:  cpu time      0.0000: real time      0.0001
 Broyden mixing: mesh for mixing (old mesh)
   NGX = 47   NGY = 47   NGZ = 41
  (NGX  =192   NGY  =192   NGZ  =168)
  gives a total of  90569 points

 initial charge density was supplied:
 charge density of overlapping atoms calculated
 number of electron     360.0000000 magnetization      72.0000000
 keeping initial charge density in first step


--------------------------------------------------------------------------------------------------------


 Maximum index for augmentation-charges           808 (set IRDMAX)


--------------------------------------------------------------------------------------------------------


 First call to EWALD:  gamma=   0.148
 Maximum number of real-space cells 3x 3x 3
 Maximum number of reciprocal cells 3x 3x 3

    FEWALD:  cpu time      0.0071: real time      0.0074


--------------------------------------- Ionic step        1  -------------------------------------------




--------------------------------------- Iteration      1(   1)  ---------------------------------------


    POTLOK:  cpu time      0.1412: real time      0.1420
    SETDIJ:  cpu time      0.6011: real time      0.6026
     EDDAV:  cpu time      8.6476: real time      8.6923
       DOS:  cpu time      0.0016: real time      0.0016
    --------------------------------------------
      LOOP:  cpu time      9.3915: real time      9.4384

 eigenvalue-minimisations  :  7168
 total energy-change (2. order) : 0.1812875E+04  (-0.1417962E+05)
 number of electron     360.0000000 magnetization      72.0000000
 augmentation part      360.0000000 magnetization      72.0000000

 Free energy of the ion-electron system (eV)
  ---------------------------------------------------
  alpha Z        PSCENC =       796.69901726
  Ewald energy   TEWEN  =    -12858.92971354
  -Hartree energ DENC   =     -1118.53820741
  -exchange      EXHF   =         0.00000000
  -V(xc)+E(xc)   XCENC  =      -293.95030689
  PAW double counting   =     10738.42099860    -9719.93139476
  entropy T*S    EENTRO =        -0.02455211
  eigenvalues    EBANDS =      1232.67749924
  atomic energy  EATOM  =     13036.45147835
  Solvation  Ediel_sol  =         0.00000000
  ---------------------------------------------------
  free energy    TOTEN  =      1812.87481875 eV

  energy without entropy =     1812.89937086  energy(sigma->0) =     1812.88709481


--------------------------------------------------------------------------------------------------------




--------------------------------------- Iteration      1(   2)  ---------------------------------------


     EDDAV:  cpu time      9.7823: real time      9.8307
       DOS:  cpu time      0.0014: real time      0.0014
    --------------------------------------------
      LOOP:  cpu time      9.7837: real time      9.8322

 eigenvalue-minimisations  :  8472
 total energy-change (2. order) :-0.1874949E+04  (-0.1801233E+04)
 number of electron     360.0000000 magnetization      72.0000000
 augmentation part      360.0000000 magnetization      72.0000000

 Free energy of the ion-electron system (eV)
  ---------------------------------------------------
  alpha Z        PSCENC =       796.69901726
  Ewald energy   TEWEN  =    -12858.92971354
  -Hartree energ DENC   =     -1118.53820741
  -exchange      EXHF   =         0.00000000
  -V(xc)+E(xc)   XCENC  =      -293.95030689
  PAW double counting   =     10738.42099860    -9719.93139476
  entropy T*S    EENTRO =        -0.01857448
  eigenvalues    EBANDS =      -642.27703653
  atomic energy  EATOM  =     13036.45147835
  Solvation  Ediel_sol  =         0.00000000
  ---------------------------------------------------
  free energy    TOTEN  =       -62.07373939 eV

  energy without entropy =      -62.05516491  energy(sigma->0) =      -62.06445215


--------------------------------------------------------------------------------------------------------




--------------------------------------- Iteration      1(   3)  ---------------------------------------


     EDDAV:  cpu time      9.9029: real time      9.9510
       DOS:  cpu time      0.0012: real time      0.0013
    --------------------------------------------
      LOOP:  cpu time      9.9042: real time      9.9523

 eigenvalue-minimisations  :  8624
 total energy-change (2. order) :-0.2180920E+03  (-0.2115289E+03)
 number of electron     360.0000000 magnetization      72.0000000
 augmentation part      360.0000000 magnetization      72.0000000

 Free energy of the ion-electron system (eV)
  ---------------------------------------------------
  alpha Z        PSCENC =       796.69901726
  Ewald energy   TEWEN  =    -12858.92971354
  -Hartree energ DENC   =     -1118.53820741
  -exchange      EXHF   =         0.00000000
  -V(xc)+E(xc)   XCENC  =      -293.95030689
  PAW double counting   =     10738.42099860    -9719.93139476
  entropy T*S    EENTRO =        -0.00073386
  eigenvalues    EBANDS =      -860.38688044
  atomic energy  EATOM  =     13036.45147835
  Solvation  Ediel_sol  =         0.00000000
  ---------------------------------------------------
  free energy    TOTEN  =      -280.16574268 eV

  energy without entropy =     -280.16500882  energy(sigma->0) =     -280.16537575


--------------------------------------------------------------------------------------------------------




--------------------------------------- Iteration      1(   4)  ---------------------------------------


     EDDAV:  cpu time     10.0187: real time     10.0714
       DOS:  cpu time      0.0012: real time      0.0012
    --------------------------------------------
      LOOP:  cpu time     10.0199: real time     10.0726

 eigenvalue-minimisations  :  8736
 total energy-change (2. order) :-0.7984390E+01  (-0.7889791E+01)
 number of electron     360.0000000 magnetization      72.0000000
 augmentation part      360.0000000 magnetization      72.0000000

 Free energy of the ion-electron system (eV)
  ---------------------------------------------------
  alpha Z        PSCENC =       796.69901726
  Ewald energy   TEWEN  =    -12858.92971354
  -Hartree energ DENC   =     -1118.53820741
  -exchange      EXHF   =         0.00000000
  -V(xc)+E(xc)   XCENC  =      -293.95030689
  PAW double counting   =     10738.42099860    -9719.93139476
  entropy T*S    EENTRO =        -0.00008547
  eigenvalues    EBANDS =      -868.37191846
  atomic energy  EATOM  =     13036.45147835
  Solvation  Ediel_sol  =         0.00000000
  ---------------------------------------------------
  free energy    TOTEN  =      -288.15013231 eV

  energy without entropy =     -288.15004684  energy(sigma->0) =     -288.15008957


--------------------------------------------------------------------------------------------------------




--------------------------------------- Iteration      1(   5)  ---------------------------------------


     EDDAV:  cpu time     10.1844: real time     10.2500
       DOS:  cpu time      0.0012: real time      0.0012
    CHARGE:  cpu time      0.4184: real time      0.4200
    MIXING:  cpu time      0.0071: real time      0.0072
    --------------------------------------------
      LOOP:  cpu time     10.6112: real time     10.6785

 eigenvalue-minimisations  :  9008
 total energy-change (2. order) :-0.2992616E+00  (-0.2983811E+00)
 number of electron     360.0000005 magnetization      48.7471786
 augmentation part      -66.9432523 magnetization      48.9592862

 Broyden mixing:
  rms(total) = 0.29221E+01    rms(broyden)= 0.29221E+01
  rms(prec ) = 0.30835E+01
  weight for this iteration     100.00

 Free energy of the ion-electron system (eV)
  ---------------------------------------------------
  alpha Z        PSCENC =       796.69901726
  Ewald energy   TEWEN  =    -12858.92971354
  -Hartree energ DENC   =     -1118.53820741
  -exchange      EXHF   =         0.00000000
  -V(xc)+E(xc)   XCENC  =      -293.95030689
  PAW double counting   =     10738.42099860    -9719.93139476
  entropy T*S    EENTRO =        -0.00010382
  eigenvalues    EBANDS =      -868.67116166
  atomic energy  EATOM  =     13036.45147835
  Solvation  Ediel_sol  =         0.00000000
  ---------------------------------------------------
  free energy    TOTEN  =      -288.44939386 eV

  energy without entropy =     -288.44929004  energy(sigma->0) =     -288.44934195


--------------------------------------------------------------------------------------------------------




--------------------------------------- Iteration      1(   6)  ---------------------------------------


    POTLOK:  cpu time      0.1341: real time      0.1359
    SETDIJ:  cpu time      0.6047: real time      0.6069
     EDDAV:  cpu time      9.3204: real time      9.3884
       DOS:  cpu time      0.0010: real time      0.0010
    CHARGE:  cpu time      0.4155: real time      0.4169
    MIXING:  cpu time      0.0075: real time      0.0075
    --------------------------------------------
      LOOP:  cpu time     10.4832: real time     10.5566

 eigenvalue-minimisations  :  7976
 total energy-change (2. order) : 0.6802196E+00  (-0.2759834E+01)
 number of electron     360.0000005 magnetization      27.8267315
 augmentation part      -66.3120122 magnetization      29.0035386

 Broyden mixing:
  rms(total) = 0.17323E+01    rms(broyden)= 0.17323E+01
  rms(prec ) = 0.17681E+01
  weight for this iteration     100.00

 eigenvalues of (default mixing * dielectric matrix)
  average eigenvalue GAMMA=   1.0106
  1.0106

 Free energy of the ion-electron system (eV)
  ---------------------------------------------------
  alpha Z        PSCENC =       796.69901726
  Ewald energy   TEWEN  =    -12858.92971354
  -Hartree energ DENC   =     -1173.19040038
  -exchange      EXHF   =         0.00000000
  -V(xc)+E(xc)   XCENC  =      -287.51618657
  PAW double counting   =     12996.44002119   -11981.40549113
  entropy T*S    EENTRO =        -0.00001271
  eigenvalues    EBANDS =      -816.31788678
  atomic energy  EATOM  =     13036.45147835
  Solvation  Ediel_sol  =         0.00000000
  ---------------------------------------------------
  free energy    TOTEN  =      -287.76917429 eV

  energy without entropy =     -287.76916159  energy(sigma->0) =     -287.76916794


--------------------------------------------------------------------------------------------------------




--------------------------------------- Iteration      1(   7)  ---------------------------------------


    POTLOK:  cpu time      0.1304: real time      0.1310
    SETDIJ:  cpu time      0.6035: real time      0.6061
     EDDAV:  cpu time      9.3386: real time      9.3881
       DOS:  cpu time      0.0009: real time      0.0009
    CHARGE:  cpu time      0.4188: real time      0.4206
    MIXING:  cpu time      0.0075: real time      0.0075
    --------------------------------------------
      LOOP:  cpu time     10.4996: real time     10.5541

 eigenvalue-minimisations  :  7960
 total energy-change (2. order) :-0.7378115E+01  (-0.9028180E+00)
 number of electron     360.0000005 magnetization       9.4945758
 augmentation part      -66.3007952 magnetization      10.1679317

 Broyden mixing:
  rms(total) = 0.90690E+00    rms(broyden)= 0.90690E+00
  rms(prec ) = 0.92215E+00
  weight for this iteration     100.00

 eigenvalues of (default mixing * dielectric matrix)
  average eigenvalue GAMMA=   1.4333
  0.8622  2.0043

 Free energy of the ion-electron system (eV)
  ---------------------------------------------------
  alpha Z        PSCENC =       796.69901726
  Ewald energy   TEWEN  =    -12858.92971354
  -Hartree energ DENC   =     -1189.88446972
  -exchange      EXHF   =         0.00000000
  -V(xc)+E(xc)   XCENC  =      -290.53881415
  PAW double counting   =     15061.39464409   -14047.90422276
  entropy T*S    EENTRO =        -0.00000000
  eigenvalues    EBANDS =      -802.43520869
  atomic energy  EATOM  =     13036.45147835
  Solvation  Ediel_sol  =         0.00000000
  ---------------------------------------------------
  free energy    TOTEN  =      -295.14728916 eV

  energy without entropy =     -295.14728916  energy(sigma->0) =     -295.14728916


--------------------------------------------------------------------------------------------------------




--------------------------------------- Iteration      1(   8)  ---------------------------------------


    POTLOK:  cpu time      0.1302: real time      0.1308
    SETDIJ:  cpu time      0.6070: real time      0.6093
     EDDAV:  cpu time      9.6306: real time      9.6809
       DOS:  cpu time      0.0009: real time      0.0009
    CHARGE:  cpu time      0.4142: real time      0.4158
    MIXING:  cpu time      0.0074: real time      0.0074
    --------------------------------------------
      LOOP:  cpu time     10.7902: real time     10.8450

 eigenvalue-minimisations  :  8280
 total energy-change (2. order) :-0.3180635E+01  (-0.1698225E+00)
 number of electron     360.0000005 magnetization       4.5544922
 augmentation part      -66.3143544 magnetization       4.8666613

 Broyden mixing:
  rms(total) = 0.34583E+00    rms(broyden)= 0.34583E+00
  rms(prec ) = 0.35144E+00
  weight for this iteration     100.00

 eigenvalues of (default mixing * dielectric matrix)
  average eigenvalue GAMMA=   1.3471
  2.4754  0.9238  0.6420

 Free energy of the ion-electron system (eV)
  ---------------------------------------------------
  alpha Z        PSCENC =       796.69901726
  Ewald energy   TEWEN  =    -12858.92971354
  -Hartree energ DENC   =     -1193.60314728
  -exchange      EXHF   =         0.00000000
  -V(xc)+E(xc)   XCENC  =      -290.41959333
  PAW double counting   =     16762.62037220   -15749.98946321
  entropy T*S    EENTRO =        -0.00000000
  eigenvalues    EBANDS =      -801.15687464
  atomic energy  EATOM  =     13036.45147835
  Solvation  Ediel_sol  =         0.00000000
  ---------------------------------------------------
  free energy    TOTEN  =      -298.32792418 eV

  energy without entropy =     -298.32792418  energy(sigma->0) =     -298.32792418


--------------------------------------------------------------------------------------------------------




--------------------------------------- Iteration      1(   9)  ---------------------------------------


    POTLOK:  cpu time      0.1294: real time      0.1303
    SETDIJ:  cpu time      0.6066: real time      0.6081
     EDDAV:  cpu time     10.3190: real time     10.3692
       DOS:  cpu time      0.0010: real time      0.0010
    CHARGE:  cpu time      0.4207: real time      0.4223
    MIXING:  cpu time      0.0082: real time      0.0083
    --------------------------------------------
      LOOP:  cpu time     11.4850: real time     11.5392

 eigenvalue-minimisations  :  9032
 total energy-change (2. order) :-0.3963123E+00  (-0.4284624E-01)
 number of electron     360.0000005 magnetization       2.2683370
 augmentation part      -66.3574459 magnetization       2.4262663

 Broyden mixing:
  rms(total) = 0.15042E+00    rms(broyden)= 0.15042E+00
  rms(prec ) = 0.15218E+00
  weight for this iteration     100.00

 eigenvalues of (default mixing * dielectric matrix)
  average eigenvalue GAMMA=   1.3290
  2.6248  1.2401  0.8346  0.6165

 Free energy of the ion-electron system (eV)
  ---------------------------------------------------
  alpha Z        PSCENC =       796.69901726
  Ewald energy   TEWEN  =    -12858.92971354
  -Hartree energ DENC   =     -1192.31541629
  -exchange      EXHF   =         0.00000000
  -V(xc)+E(xc)   XCENC  =      -290.49367435
  PAW double counting   =     17058.04449256   -16045.74851402
  entropy T*S    EENTRO =        -0.00000000
  eigenvalues    EBANDS =      -802.43190642
  atomic energy  EATOM  =     13036.45147835
  Solvation  Ediel_sol  =         0.00000000
  ---------------------------------------------------
  free energy    TOTEN  =      -298.72423644 eV

  energy without entropy =     -298.72423644  energy(sigma->0) =     -298.72423644


--------------------------------------------------------------------------------------------------------




--------------------------------------- Iteration      1(  10)  ---------------------------------------


    POTLOK:  cpu time      0.1296: real time      0.1302
    SETDIJ:  cpu time      0.6057: real time      0.6082
     EDDAV:  cpu time      9.4842: real time      9.5376
       DOS:  cpu time      0.0009: real time      0.0009
    CHARGE:  cpu time      0.4159: real time      0.4178
    MIXING:  cpu time      0.0075: real time      0.0075
    --------------------------------------------
      LOOP:  cpu time     10.6437: real time     10.7022

 eigenvalue-minimisations  :  8144
 total energy-change (2. order) :-0.1207447E+00  (-0.1104815E-01)
 number of electron     360.0000005 magnetization       0.7498232
 augmentation part      -66.3634365 magnetization       0.8172690

 Broyden mixing:
  rms(total) = 0.72995E-01    rms(broyden)= 0.72995E-01
  rms(prec ) = 0.74124E-01
  weight for this iteration     100.00

 eigenvalues of (default mixing * dielectric matrix)
  average eigenvalue GAMMA=   1.3693
  2.7009  1.7304  0.9685  0.8224  0.6242

 Free energy of the ion-electron system (eV)
  ---------------------------------------------------
  alpha Z        PSCENC =       796.69901726
  Ewald energy   TEWEN  =    -12858.92971354
  -Hartree energ DENC   =     -1192.36150682
  -exchange      EXHF   =         0.00000000
  -V(xc)+E(xc)   XCENC  =      -290.49629186
  PAW double counting   =     17079.68291568   -16067.39818715
  entropy T*S    EENTRO =        -0.00000000
  eigenvalues    EBANDS =      -802.49269306
  atomic energy  EATOM  =     13036.45147835
  Solvation  Ediel_sol  =         0.00000000
  ---------------------------------------------------
  free energy    TOTEN  =      -298.84498115 eV

  energy without entropy =     -298.84498115  energy(sigma->0) =     -298.84498115


--------------------------------------------------------------------------------------------------------




--------------------------------------- Iteration      1(  11)  ---------------------------------------


    POTLOK:  cpu time      0.1295: real time      0.1302
    SETDIJ:  cpu time      0.6066: real time      0.6082
     EDDAV:  cpu time     10.2426: real time     10.2968
       DOS:  cpu time      0.0008: real time      0.0008
    CHARGE:  cpu time      0.4207: real time      0.4223
    MIXING:  cpu time      0.0085: real time      0.0086
    --------------------------------------------
      LOOP:  cpu time     11.4087: real time     11.4668

 eigenvalue-minimisations  :  8992
 total energy-change (2. order) :-0.3100223E-01  (-0.3614724E-02)
 number of electron     360.0000005 magnetization       0.1826113
 augmentation part      -66.3482553 magnetization       0.2021423

 Broyden mixing:
  rms(total) = 0.29241E-01    rms(broyden)= 0.29241E-01
  rms(prec ) = 0.29690E-01
  weight for this iteration     100.00

 eigenvalues of (default mixing * dielectric matrix)
  average eigenvalue GAMMA=   1.4043
  2.9089  2.1589  1.1833  0.8593  0.6926  0.6231

 Free energy of the ion-electron system (eV)
  ---------------------------------------------------
  alpha Z        PSCENC =       796.69901726
  Ewald energy   TEWEN  =    -12858.92971354
  -Hartree energ DENC   =     -1193.53309194
  -exchange      EXHF   =         0.00000000
  -V(xc)+E(xc)   XCENC  =      -290.44984613
  PAW double counting   =     17007.55054098   -15995.24331087
  entropy T*S    EENTRO =        -0.00000000
  eigenvalues    EBANDS =      -801.42105749
  atomic energy  EATOM  =     13036.45147835
  Solvation  Ediel_sol  =         0.00000000
  ---------------------------------------------------
  free energy    TOTEN  =      -298.87598337 eV

  energy without entropy =     -298.87598337  energy(sigma->0) =     -298.87598337


--------------------------------------------------------------------------------------------------------




--------------------------------------- Iteration      1(  12)  ---------------------------------------


    POTLOK:  cpu time      0.1298: real time      0.1313
    SETDIJ:  cpu time      0.6054: real time      0.6070
     EDDAV:  cpu time      9.9224: real time      9.9717
       DOS:  cpu time      0.0009: real time      0.0009
    CHARGE:  cpu time      0.4142: real time      0.4157
    MIXING:  cpu time      0.0075: real time      0.0075
    --------------------------------------------
      LOOP:  cpu time     11.0802: real time     11.1341

 eigenvalue-minimisations  :  8600
 total energy-change (2. order) :-0.3413033E-02  (-0.4677364E-03)
 number of electron     360.0000005 magnetization       0.0638691
 augmentation part      -66.3469451 magnetization       0.0684064

 Broyden mixing:
  rms(total) = 0.11091E-01    rms(broyden)= 0.11091E-01
  rms(prec ) = 0.11671E-01
  weight for this iteration     100.00

 eigenvalues of (default mixing * dielectric matrix)
  average eigenvalue GAMMA=   1.3641
  2.9931  2.3221  1.1952  0.8877  0.8877  0.6099  0.6527

 Free energy of the ion-electron system (eV)
  ---------------------------------------------------
  alpha Z        PSCENC =       796.69901726
  Ewald energy   TEWEN  =    -12858.92971354
  -Hartree energ DENC   =     -1193.68473256
  -exchange      EXHF   =         0.00000000
  -V(xc)+E(xc)   XCENC  =      -290.45061225
  PAW double counting   =     16970.51340527   -15958.18371257
  entropy T*S    EENTRO =        -0.00000000
  eigenvalues    EBANDS =      -801.29452637
  atomic energy  EATOM  =     13036.45147835
  Solvation  Ediel_sol  =         0.00000000
  ---------------------------------------------------
  free energy    TOTEN  =      -298.87939641 eV

  energy without entropy =     -298.87939641  energy(sigma->0) =     -298.87939641


--------------------------------------------------------------------------------------------------------




--------------------------------------- Iteration      1(  13)  ---------------------------------------


    POTLOK:  cpu time      0.1293: real time      0.1299
    SETDIJ:  cpu time      0.6052: real time      0.6068
     EDDAV:  cpu time     11.0519: real time     11.1120
       DOS:  cpu time      0.0008: real time      0.0008
    CHARGE:  cpu time      0.4194: real time      0.4211
    MIXING:  cpu time      0.0087: real time      0.0087
    --------------------------------------------
      LOOP:  cpu time     12.2151: real time     12.2794

 eigenvalue-minimisations  :  9856
 total energy-change (2. order) :-0.1224013E-03  (-0.6089554E-04)
 number of electron     360.0000005 magnetization       0.0178261
 augmentation part      -66.3483155 magnetization       0.0188006

 Broyden mixing:
  rms(total) = 0.46609E-02    rms(broyden)= 0.46609E-02
  rms(prec ) = 0.48464E-02
  weight for this iteration     100.00

 eigenvalues of (default mixing * dielectric matrix)
  average eigenvalue GAMMA=   1.3488
  3.0396  2.4293  1.1115  1.1115  0.9868  0.8579  0.6472  0.6067

 Free energy of the ion-electron system (eV)
  ---------------------------------------------------
  alpha Z        PSCENC =       796.69901726
  Ewald energy   TEWEN  =    -12858.92971354
  -Hartree energ DENC   =     -1193.58954997
  -exchange      EXHF   =         0.00000000
  -V(xc)+E(xc)   XCENC  =      -290.46127850
  PAW double counting   =     16956.00617399   -15943.66500341
  entropy T*S    EENTRO =        -0.00000000
  eigenvalues    EBANDS =      -801.39064299
  atomic energy  EATOM  =     13036.45147835
  Solvation  Ediel_sol  =         0.00000000
  ---------------------------------------------------
  free energy    TOTEN  =      -298.87951881 eV

  energy without entropy =     -298.87951881  energy(sigma->0) =     -298.87951881


--------------------------------------------------------------------------------------------------------




--------------------------------------- Iteration      1(  14)  ---------------------------------------


    POTLOK:  cpu time      0.1290: real time      0.1297
    SETDIJ:  cpu time      0.6040: real time      0.6058
     EDDAV:  cpu time      9.6203: real time      9.6673
       DOS:  cpu time      0.0008: real time      0.0008
    CHARGE:  cpu time      0.4190: real time      0.4207
    MIXING:  cpu time      0.0078: real time      0.0078
    --------------------------------------------
      LOOP:  cpu time     10.7809: real time     10.8321

 eigenvalue-minimisations  :  8248
 total energy-change (2. order) :-0.1882351E-04  (-0.9349145E-05)
 number of electron     360.0000005 magnetization       0.0057482
 augmentation part      -66.3479801 magnetization       0.0061500

 Broyden mixing:
  rms(total) = 0.18438E-02    rms(broyden)= 0.18438E-02
  rms(prec ) = 0.19362E-02
  weight for this iteration     100.00

 eigenvalues of (default mixing * dielectric matrix)
  average eigenvalue GAMMA=   1.3351
  3.0685  2.4649  1.4439  1.2333  0.8969  0.8969  0.7648  0.6079  0.6391

 Free energy of the ion-electron system (eV)
  ---------------------------------------------------
  alpha Z        PSCENC =       796.69901726
  Ewald energy   TEWEN  =    -12858.92971354
  -Hartree energ DENC   =     -1193.59828247
  -exchange      EXHF   =         0.00000000
  -V(xc)+E(xc)   XCENC  =      -290.46155165
  PAW double counting   =     16951.39515618   -15939.05106852
  entropy T*S    EENTRO =        -0.00000000
  eigenvalues    EBANDS =      -801.38457324
  atomic energy  EATOM  =     13036.45147835
  Solvation  Ediel_sol  =         0.00000000
  ---------------------------------------------------
  free energy    TOTEN  =      -298.87953763 eV

  energy without entropy =     -298.87953763  energy(sigma->0) =     -298.87953763


--------------------------------------------------------------------------------------------------------




--------------------------------------- Iteration      1(  15)  ---------------------------------------


    POTLOK:  cpu time      0.1289: real time      0.1298
    SETDIJ:  cpu time      0.6052: real time      0.6067
     EDDAV:  cpu time      9.9219: real time      9.9696
       DOS:  cpu time      0.0008: real time      0.0008
    CHARGE:  cpu time      0.4182: real time      0.4200
    MIXING:  cpu time      0.0090: real time      0.0091
    --------------------------------------------
      LOOP:  cpu time     11.0840: real time     11.1360

 eigenvalue-minimisations  :  8560
 total energy-change (2. order) :-0.4218724E-05  (-0.1760173E-05)
 number of electron     360.0000005 magnetization       0.0019528
 augmentation part      -66.3480930 magnetization       0.0021721

 Broyden mixing:
  rms(total) = 0.82998E-03    rms(broyden)= 0.82998E-03
  rms(prec ) = 0.87749E-03
  weight for this iteration     100.00

 eigenvalues of (default mixing * dielectric matrix)
  average eigenvalue GAMMA=   1.3038
  3.0828  2.4368  1.7071  1.1315  0.9584  0.9584  0.8256  0.7032  0.6172  0.6172

 Free energy of the ion-electron system (eV)
  ---------------------------------------------------
  alpha Z        PSCENC =       796.69901726
  Ewald energy   TEWEN  =    -12858.92971354
  -Hartree energ DENC   =     -1193.58725979
  -exchange      EXHF   =         0.00000000
  -V(xc)+E(xc)   XCENC  =      -290.46177799
  PAW double counting   =     16950.85026183   -15938.50532937
  entropy T*S    EENTRO =        -0.00000000
  eigenvalues    EBANDS =      -801.39621859
  atomic energy  EATOM  =     13036.45147835
  Solvation  Ediel_sol  =         0.00000000
  ---------------------------------------------------
  free energy    TOTEN  =      -298.87954185 eV

  energy without entropy =     -298.87954185  energy(sigma->0) =     -298.87954185


--------------------------------------------------------------------------------------------------------




--------------------------------------- Iteration      1(  16)  ---------------------------------------


    POTLOK:  cpu time      0.1295: real time      0.1302
    SETDIJ:  cpu time      0.6042: real time      0.6060
     EDDAV:  cpu time      6.7955: real time      6.8357
       DOS:  cpu time      0.0011: real time      0.0011
    --------------------------------------------
      LOOP:  cpu time      7.5302: real time      7.5729

 eigenvalue-minimisations  :  4896
 total energy-change (2. order) :-0.6830014E-06  (-0.1601995E-06)
 number of electron     360.0000005 magnetization       0.0019528
 augmentation part      -66.3480930 magnetization       0.0021721

 Free energy of the ion-electron system (eV)
  ---------------------------------------------------
  alpha Z        PSCENC =       796.69901726
  Ewald energy   TEWEN  =    -12858.92971354
  -Hartree energ DENC   =     -1193.58042228
  -exchange      EXHF   =         0.00000000
  -V(xc)+E(xc)   XCENC  =      -290.46195714
  PAW double counting   =     16950.82314079   -15938.47792003
  entropy T*S    EENTRO =        -0.00000000
  eigenvalues    EBANDS =      -801.40316594
  atomic energy  EATOM  =     13036.45147835
  Solvation  Ediel_sol  =         0.00000000
  ---------------------------------------------------
  free energy    TOTEN  =      -298.87954253 eV

  energy without entropy =     -298.87954253  energy(sigma->0) =     -298.87954253


--------------------------------------------------------------------------------------------------------




 average (electrostatic) potential at core
  the test charge radii are     1.1631  1.0808
  (the norm of the test charge is              1.0000)
       1 -33.5650       2 -33.5580       3 -33.4145       4 -33.5251       5 -33.5366
       6 -33.4811       7 -33.5565       8 -33.6238       9 -33.3994      10 -33.6755
      11 -33.4370      12 -33.4173      13 -33.4420      14 -33.5777      15 -33.3592
      16 -33.5503      17 -33.5153      18 -33.6272      19 -33.5226      20 -33.3071
      21 -33.6083      22 -33.6722      23 -33.3624      24 -33.5276      25 -33.5946
      26 -33.6215      27 -33.5079      28 -33.6686      29 -33.3519      30 -33.3541
      31 -33.6135      32 -33.4317      33 -33.4858      34 -33.4400      35 -33.3932
      36 -33.4819      37 -54.6221      38 -54.7442      39 -54.7183      40 -54.6893
      41 -54.7237      42 -55.0376      43 -54.7773      44 -54.9149      45 -54.9231
      46 -54.8969      47 -54.8659      48 -54.7841      49 -54.8241      50 -55.0328
      51 -54.9838      52 -54.9725      53 -55.1079      54 -54.8438      55 -54.7006
      56 -54.6383      57 -54.8272      58 -54.8166      59 -54.8270      60 -54.9624
      61 -54.6530      62 -54.8330      63 -54.5392      64 -54.7753      65 -54.9169
      66 -54.6768      67 -54.7717      68 -54.6926      69 -54.6876      70 -54.9055
      71 -54.9522      72 -55.0183
 
 
 
 E-fermi :   3.5246     XC(G=0):  -9.3775     alpha+bet : -8.8188

 Fermi energy:         3.5245585879

 spin component 1

 k-point     1 :       0.0000    0.0000    0.0000
  band No.  band energies     occupation 
      1     -10.9032      1.00000
      2     -10.5377      1.00000
      3     -10.5074      1.00000
      4     -10.3745      1.00000
      5     -10.2457      1.00000
      6     -10.1668      1.00000
      7     -10.1258      1.00000
      8     -10.0378      1.00000
      9      -9.9642      1.00000
     10      -9.9337      1.00000
     11      -9.8565      1.00000
     12      -9.8399      1.00000
     13      -9.7730      1.00000
     14      -9.7346      1.00000
     15      -9.7053      1.00000
     16      -9.6135      1.00000
     17      -9.5891      1.00000
     18      -9.5493      1.00000
     19      -9.5352      1.00000
     20      -9.5210      1.00000
     21      -9.4395      1.00000
     22      -9.3570      1.00000
     23      -9.3495      1.00000
     24      -9.3118      1.00000
     25      -9.2967      1.00000
     26      -9.2527      1.00000
     27      -9.2131      1.00000
     28      -9.1926      1.00000
     29      -9.1475      1.00000
     30      -9.0875      1.00000
     31      -9.0501      1.00000
     32      -9.0331      1.00000
     33      -8.9971      1.00000
     34      -8.9534      1.00000
     35      -8.9311      1.00000
     36      -8.8450      1.00000
     37      -5.4494      1.00000
     38      -5.3582      1.00000
     39      -5.2878      1.00000
     40      -5.2485      1.00000
     41      -5.0956      1.00000
     42      -5.0297      1.00000
     43      -4.9729      1.00000
     44      -4.8349      1.00000
     45      -4.7807      1.00000
     46      -4.6665      1.00000
     47      -4.6469      1.00000
     48      -4.5843      1.00000
     49      -4.5327      1.00000
     50      -4.4827      1.00000
     51      -4.4376      1.00000
     52      -4.3863      1.00000
     53      -4.3699      1.00000
     54      -4.3534      1.00000
     55      -4.3350      1.00000
     56      -4.2666      1.00000
     57      -4.2331      1.00000
     58      -4.1996      1.00000
     59      -4.1750      1.00000
     60      -4.0874      1.00000
     61      -4.0674      1.00000
     62      -4.0204      1.00000
     63      -3.9869      1.00000
     64      -3.9052      1.00000
     65      -3.8131      1.00000
     66      -3.7584      1.00000
     67      -3.7079      1.00000
     68      -3.6357      1.00000
     69      -3.5814      1.00000
     70      -3.4825      1.00000
     71      -2.6889      1.00000
     72      -2.5329      1.00000
     73      -1.7894      1.00000
     74      -1.6172      1.00000
     75      -1.5580      1.00000
     76      -1.5400      1.00000
     77      -1.5269      1.00000
     78      -1.4438      1.00000
     79      -1.3423      1.00000
     80      -1.2944      1.00000
     81      -1.2749      1.00000
     82      -1.2361      1.00000
     83      -1.1787      1.00000
     84      -1.0415      1.00000
     85      -1.0071      1.00000
     86      -0.8992      1.00000
     87      -0.8522      1.00000
     88      -0.7392      1.00000
     89      -0.6359      1.00000
     90      -0.5774      1.00000
     91      -0.5002      1.00000
     92      -0.4624      1.00000
     93      -0.4261      1.00000
     94      -0.3252      1.00000
     95      -0.2110      1.00000
     96      -0.1520      1.00000
     97      -0.0975      1.00000
     98      -0.0446      1.00000
     99       0.0024      1.00000
    100       0.0411      1.00000
    101       0.0604      1.00000
    102       0.1223      1.00000
    103       0.1753      1.00000
    104       0.1983      1.00000
    105       0.2129      1.00000
    106       0.2700      1.00000
    107       0.3550      1.00000
    108       0.3913      1.00000
    109       0.4049      1.00000
    110       0.4599      1.00000
    111       0.5061      1.00000
    112       0.5294      1.00000
    113       0.5721      1.00000
    114       0.6304      1.00000
    115       0.6397      1.00000
    116       0.6882      1.00000
    117       0.7269      1.00000
    118       0.7759      1.00000
    119       0.7945      1.00000
    120       0.8273      1.00000
    121       0.8772      1.00000
    122       0.9157      1.00000
    123       0.9189      1.00000
    124       0.9776      1.00000
    125       1.0035      1.00000
    126       1.0352      1.00000
    127       1.0711      1.00000
    128       1.0820      1.00000
    129       1.1412      1.00000
    130       1.1615      1.00000
    131       1.2017      1.00000
    132       1.2236      1.00000
    133       1.2413      1.00000
    134       1.3200      1.00000
    135       1.3470      1.00000
    136       1.3740      1.00000
    137       1.4485      1.00000
    138       1.5010      1.00000
    139       1.5492      1.00000
    140       1.5635      1.00000
    141       1.5901      1.00000
    142       1.6280      1.00000
    143       1.6969      1.00000
    144       1.7419      1.00000
    145       1.7830      1.00000
    146       1.7978      1.00000
    147       1.8236      1.00000
    148       1.8564      1.00000
    149       1.8688      1.00000
    150       1.8769      1.00000
    151       1.9175      1.00000
    152       1.9693      1.00000
    153       1.9970      1.00000
[...]
   0.174E+02 -.232E+01 -.263E+02   -.197E+02 0.262E+01 0.288E+02   0.179E+01 -.324E+00 -.279E+01   0.469E-04 0.217E-03 -.329E-03
   0.191E+02 0.362E+01 0.350E+02   -.208E+02 -.405E+01 -.381E+02   0.168E+01 0.320E+00 0.218E+01   0.157E-03 -.256E-03 -.210E-03
   0.221E+02 0.475E+01 -.141E+01   -.232E+02 -.502E+01 0.215E+00   0.585E+00 -.232E+00 0.171E+01   -.377E-04 0.609E-04 0.573E-04
   -.262E+01 -.122E+02 0.128E+02   0.300E+01 0.117E+02 -.144E+02   -.294E+00 0.101E+01 0.236E+01   -.879E-04 -.498E-04 0.277E-03
   0.195E+02 0.101E+02 0.183E+02   -.205E+02 -.104E+02 -.193E+02   0.127E+01 0.160E+00 0.818E+00   0.214E-03 0.127E-03 0.366E-03
   -.386E+01 0.160E+02 0.275E+02   0.399E+01 -.168E+02 -.297E+02   -.306E+00 0.770E+00 0.211E+01   0.616E-04 0.325E-03 0.278E-03
   -.136E+00 -.187E+02 0.124E+02   -.434E+00 0.191E+02 -.142E+02   0.909E+00 -.191E-01 0.167E+01   0.291E-03 -.282E-03 0.398E-03
   -.209E+02 0.165E+02 0.155E+02   0.218E+02 -.178E+02 -.179E+02   0.301E-01 0.915E+00 0.195E+01   0.724E-04 -.119E-03 0.202E-03
   0.162E+02 -.902E+01 0.226E+02   -.166E+02 0.876E+01 -.242E+02   0.829E-01 0.142E+01 0.183E+01   -.723E-04 0.223E-03 0.441E-03
   0.178E+02 -.137E+02 -.225E+02   -.184E+02 0.144E+02 0.243E+02   0.399E+00 -.805E+00 -.243E+01   -.135E-03 0.177E-03 0.156E-03
   -.138E+02 0.652E+01 -.104E+02   0.145E+02 -.672E+01 0.119E+02   -.148E+00 -.354E+00 -.206E+01   0.102E-03 0.260E-04 0.193E-03
   -.567E+01 -.174E+02 -.198E+02   0.583E+01 0.173E+02 0.218E+02   -.190E+00 0.130E+00 -.120E+01   -.466E-04 0.303E-03 0.503E-04
   -.180E+02 0.319E+01 -.246E+02   0.186E+02 -.232E+01 0.264E+02   -.260E+00 -.147E+01 -.183E+01   0.124E-03 -.305E-03 -.451E-03
   -.267E+02 -.102E+02 -.602E+01   0.281E+02 0.112E+02 0.770E+01   -.671E+00 -.212E+00 -.190E+01   -.844E-04 -.667E-04 -.197E-04
   0.585E+01 -.250E+02 0.642E+01   -.651E+01 0.263E+02 -.466E+01   0.365E+00 -.744E+00 -.279E+01   0.926E-04 -.406E-04 -.740E-04
   0.427E+00 0.142E+02 0.583E+01   0.129E+00 -.151E+02 -.518E+01   -.967E+00 0.872E+00 -.129E+01   -.249E-03 -.134E-03 -.233E-04
   -.121E+01 0.243E+02 0.867E+01   0.102E+01 -.254E+02 -.102E+02   0.509E-01 0.462E+00 0.163E+01   0.125E-03 0.273E-04 0.181E-03
   0.145E+02 0.250E+02 0.204E+02   -.153E+02 -.263E+02 -.224E+02   0.577E-01 0.737E+00 0.188E+01   -.872E-04 -.227E-03 0.433E-03
   0.107E+02 -.143E+02 0.285E+02   -.114E+02 0.153E+02 -.299E+02   0.399E-01 -.487E+00 0.205E+01   0.249E-03 -.453E-03 -.219E-03
   -.295E+02 -.100E+02 0.321E+02   0.305E+02 0.101E+02 -.338E+02   -.758E+00 -.300E-01 0.183E+01   0.324E-03 0.600E-04 -.309E-03
   0.704E+01 -.140E+02 0.389E+02   -.734E+01 0.145E+02 -.407E+02   0.482E+00 -.293E+00 0.172E+01   0.254E-04 0.311E-03 -.247E-04
   -.106E+02 -.424E+01 -.186E+02   0.117E+02 0.449E+01 0.201E+02   -.109E+01 -.217E+00 -.165E+01   -.449E-04 -.781E-04 -.275E-04
   0.792E+01 0.235E+02 -.343E+02   -.810E+01 -.252E+02 0.359E+02   -.546E-01 0.105E+01 -.176E+01   -.118E-04 0.315E-03 -.118E-03
   -.299E+02 0.327E+01 -.303E+02   0.320E+02 -.340E+01 0.316E+02   -.128E+01 -.457E+00 -.196E+01   -.316E-03 -.243E-03 0.236E-03
   -.218E+02 -.406E+01 -.306E+02   0.226E+02 0.373E+01 0.321E+02   -.662E+00 0.835E+00 -.118E+01   0.235E-04 -.104E-03 0.630E-04
   -.118E+02 -.610E+01 -.463E+02   0.125E+02 0.584E+01 0.485E+02   -.403E+00 0.248E+00 -.213E+01   0.591E-04 0.802E-04 0.110E-03
   -.886E+01 0.242E+02 -.451E+02   0.918E+01 -.254E+02 0.471E+02   0.150E+00 0.155E+01 -.156E+01   -.987E-04 -.968E-04 0.279E-03
   -.215E+01 -.471E+01 -.215E+02   0.247E+01 0.522E+01 0.232E+02   -.395E+00 0.148E+00 -.201E+01   -.301E-03 0.780E-04 0.832E-04
   -.110E+02 0.510E+01 -.353E+02   0.120E+02 -.546E+01 0.372E+02   -.121E+01 0.421E+00 -.166E+01   -.256E-03 0.638E-03 -.608E-03
   0.858E+01 0.863E+00 -.283E+02   -.854E+01 -.882E+00 0.301E+02   -.980E-01 0.248E+00 -.157E+01   0.219E-03 -.253E-03 0.546E-04
   0.497E+01 0.919E+01 -.304E+02   -.544E+01 -.101E+02 0.327E+02   0.443E+00 0.707E+00 -.182E+01   -.111E-03 -.285E-03 -.237E-03
   0.147E+01 0.150E+02 0.298E+02   -.176E+01 -.152E+02 -.316E+02   0.327E+00 -.380E+00 0.224E+01   -.238E-03 -.112E-03 -.708E-04
   -.105E+02 -.356E+01 0.336E+02   0.109E+02 0.430E+01 -.350E+02   -.320E+00 -.977E+00 0.168E+01   -.304E-04 -.782E-04 -.144E-03
   0.395E+01 -.229E+02 0.239E+02   -.376E+01 0.241E+02 -.252E+02   -.149E+00 -.143E+01 0.166E+01   -.368E-03 0.173E-03 -.362E-04
   0.161E+02 -.575E+01 0.355E+02   -.164E+02 0.669E+01 -.375E+02   0.172E+00 -.105E+01 0.220E+01   0.981E-04 -.183E-03 -.333E-03
   0.419E+01 0.113E+02 0.339E+02   -.421E+01 -.120E+02 -.361E+02   -.250E+00 0.562E+00 0.196E+01   -.142E-03 0.176E-04 -.114E-03
   -.132E+02 0.109E+02 0.297E+02   0.143E+02 -.109E+02 -.315E+02   -.112E+01 -.202E+00 0.171E+01   0.143E-03 -.666E-04 -.308E-03
   0.388E+01 0.734E+01 -.320E+02   -.324E+01 -.720E+01 0.345E+02   -.818E+00 -.116E+00 -.191E+01   0.133E-03 -.238E-03 -.575E-04
 -----------------------------------------------------------------------------------------------
   -.765E+01 0.277E+01 0.222E+01   0.639E-13 0.675E-13 0.711E-14   0.765E+01 -.277E+01 -.222E+01   0.123E-04 -.792E-03 0.721E-03
 
 
 POSITION                                       TOTAL-FORCE (eV/Angst)
 -----------------------------------------------------------------------------------
      0.80791      0.38675      1.47652        -0.043452      0.363999      0.276141
      3.02208     11.07549      4.26452        -0.678930     -0.429874     -0.469801
      7.15141      2.76304      4.30564         0.282935     -0.169751     -0.535362
      7.37533      6.69238      4.12583         0.013858     -0.162978     -0.289500
      7.36387     10.87096      3.91571        -0.120286     -0.098549      0.541597
     11.23491      2.32360      4.05596        -0.122307      0.369798     -0.192820
     11.54215      6.68131      4.08992        -0.026311      0.112412      0.093787
     11.15288     10.87853      3.94354         0.198204      0.319043     -0.059604
      0.83872      1.94061      6.86510         0.045894      0.178887      0.367129
      0.85273      6.05968      6.80228         0.138402     -0.487778      0.590452
      0.50100     10.32064      6.79270         0.549884      0.494142      0.052099
      4.89351      1.96420      6.96240         0.556091      0.166000     -0.108916
      4.88870      6.27139      6.90239        -0.238786     -0.339606     -0.211122
      4.92127      9.96475      6.54840        -0.493173      0.507946      0.203162
      9.03588      2.11703      7.11794         0.043402     -0.225925     -0.289064
      9.34303      5.98237      7.16885        -0.058844     -0.557871     -0.559845
      2.90876      6.92877      3.81027        -0.091154      0.086937      0.193566
      2.85676      2.48183      4.09712         0.243206      0.011706     -0.186443
      9.16331     10.26184      7.09450        -0.030956      0.211439     -0.702087
     11.58125      8.10727      9.53013        -0.835289      0.527624      0.327280
     11.24542     12.09765      9.75820         0.235016      0.235308     -0.617750
      0.85963      4.38068      1.42244         0.175321     -0.058477     -0.568162
      0.70967      8.97100      1.37257         0.924879     -0.356018      0.025214
      5.18755      0.52016      1.40610         0.054855     -0.121388      0.095727
      5.08950      4.71627      1.68764         0.075470      0.293800      0.144700
      9.03289      0.42594      1.44148        -0.013729      0.529019      0.482083
      9.36247      4.80482      1.32450        -0.417667     -0.072206      0.403349
      4.92417      9.11451      1.76444        -0.121761     -0.072798     -0.292652
      3.08423      3.90770      9.49576        -0.104441      0.517452     -0.319200
      3.45100      8.51746      9.64459        -0.623270     -0.676780     -0.170543
      3.04093     12.28233      9.22786        -0.073640     -0.160808      0.605848
      7.26900      3.91908      9.55827         0.016343     -0.030481      0.270625
      7.18173      8.27664      9.35674        -0.251442     -0.430645      1.007192
      6.84822     12.39342      9.32587         0.557938      0.085682      0.327297
     11.73123      4.16550      9.63910        -0.466215     -0.027494     -0.287580
      9.32462      8.66859      1.63081        -0.069033     -0.102497     -0.888606
     11.41401      0.24093      7.08336        -0.507769     -0.495657      0.514845
      2.87964      4.30783      6.83396         0.085445      0.510775      0.698420
      2.86801      8.47515      7.13083         0.206940     -0.140829     -0.178668
      7.03378      0.26191      6.90747        -0.183733     -0.119246     -0.131219
      7.03179      4.19035      7.07006         0.339656      0.428668     -0.123602
      6.96330      8.56992      6.95344         0.897705     -0.439025     -0.504233
     11.37726      4.01395      7.04553        -0.296450      1.157290      0.266068
      9.27677      0.23823      4.11743        -0.197860     -0.151536     -0.695162
      0.54986      0.35496      4.08569         0.526732     -0.554315     -0.550037
      0.79112      4.43757      3.82026        -0.035285      0.023476      0.740411
      0.74151      8.70958      3.91938         0.312892     -0.600513     -0.060859
      4.78575      0.19938      3.94133         0.734705      0.834300     -0.213613
      5.00716      4.15701      4.29043        -0.295555      0.595612     -1.028522
      5.13430      8.56916      4.26337        -0.411193     -0.031679     -0.638768
      2.92751      0.31746      6.81257        -0.135505     -0.668839      0.089710
     11.24213      8.53589      7.02844        -0.698824     -0.537045     -0.075076
     11.25104     10.53382      1.32050        -0.673703      0.578152      0.582797
      2.63005      2.31454      1.52990         0.268410      0.030323      0.073853
     11.11821      2.22725      1.53376         0.181684      0.164067     -0.076653
      9.08862      4.48624      3.93612        -0.001911      0.033694     -0.118579
      1.08121      2.35396      9.46954        -0.240215     -0.611700     -0.132607
      0.77567      6.36515      9.45368         0.828237     -0.589195     -0.637400
      0.78445     10.37968      9.30766         0.134566      0.504803      0.304470
      4.88755      2.09248      9.51009         0.297139     -0.016106      0.056245
      4.99239      6.40740      9.35895         0.477877      0.359098      0.476548
      5.10709     10.41656      9.65470        -0.071303      0.653557     -0.376368
      9.20847      2.20667      9.56689        -0.173904      0.069895      0.232677
      9.19676      6.35205      9.55933        -0.055573      0.229127      0.196787
      9.04567     10.67706      9.48667        -0.036891     -0.178702      0.468769
      3.13228      6.78296      1.34297         0.034166     -0.578530      0.430813
      2.74029     10.78059      1.61385         0.026599     -0.230904      0.268907
      7.06866      2.30001      1.58982         0.041953     -0.221775      0.368449
      7.08560      6.50390      1.55364        -0.117842     -0.107338      0.243255
      7.13049     10.80772      1.47825        -0.268790     -0.120175     -0.152718
     11.18302      6.65737      1.58116        -0.046527     -0.229521     -0.116408
      9.21359      8.63471      4.06375        -0.176882      0.020523      0.539276
 -----------------------------------------------------------------------------------
    total drift:                                0.000077     -0.000515     -0.000104


--------------------------------------------------------------------------------------------------------



  FREE ENERGIE OF THE ION-ELECTRON SYSTEM (eV)
  ---------------------------------------------------
  free  energy   TOTEN  =      -298.87954253 eV

  energy  without entropy=     -298.87954253  energy(sigma->0) =     -298.87954253
 


--------------------------------------------------------------------------------------------------------


    POTLOK:  cpu time      0.7379: real time      0.7414


--------------------------------------------------------------------------------------------------------


     LOOP+:  cpu time    182.1747: real time    183.1312
    4ORBIT:  cpu time      0.0000: real time      0.0000



 total charge

# of ion       s       p       d       tot
------------------------------------------
    1        1.329   0.731   0.054   2.114
    2        1.324   0.764   0.059   2.147
    3        1.325   0.753   0.054   2.132
    4        1.337   0.725   0.051   2.113
    5        1.328   0.761   0.055   2.145
    6        1.332   0.740   0.058   2.130
    7        1.327   0.748   0.055   2.129
    8        1.332   0.740   0.057   2.129
    9        1.320   0.775   0.066   2.161
   10        1.327   0.713   0.046   2.086
   11        1.325   0.773   0.061   2.159
   12        1.329   0.768   0.062   2.159
   13        1.333   0.732   0.054   2.119
   14        1.327   0.764   0.062   2.153
   15        1.328   0.751   0.059   2.138
   16        1.326   0.750   0.049   2.125
   17        1.327   0.746   0.048   2.120
   18        1.338   0.711   0.053   2.102
   19        1.326   0.773   0.056   2.155
   20        1.313   0.816   0.065   2.193
   21        1.332   0.720   0.048   2.100
   22        1.319   0.759   0.056   2.133
   23        1.317   0.793   0.064   2.174
   24        1.334   0.728   0.049   2.111
   25        1.335   0.705   0.041   2.081
   26        1.335   0.711   0.051   2.097
   27        1.337   0.715   0.049   2.101
   28        1.345   0.709   0.050   2.103
   29        1.320   0.784   0.058   2.162
   30        1.323   0.783   0.061   2.167
   31        1.340   0.728   0.048   2.117
   32        1.327   0.746   0.053   2.126
   33        1.335   0.750   0.057   2.141
   34        1.322   0.778   0.060   2.159
   35        1.324   0.758   0.057   2.138
   36        1.330   0.772   0.062   2.164
   37        1.476   2.283   0.026   3.786
   38        1.480   2.267   0.028   3.775
   39        1.476   2.290   0.029   3.796
   40        1.480   2.295   0.032   3.807
   41        1.478   2.282   0.030   3.790
   42        1.478   2.331   0.040   3.849
   43        1.481   2.268   0.030   3.778
   44        1.482   2.278   0.033   3.793
   45        1.479   2.287   0.034   3.800
   46        1.477   2.307   0.033   3.817
   47        1.479   2.290   0.032   3.801
   48        1.475   2.319   0.033   3.827
   49        1.484   2.276   0.031   3.791
   50        1.480   2.282   0.034   3.796
   51        1.480   2.323   0.039   3.842
   52        1.477   2.317   0.036   3.830
   53        1.478   2.308   0.038   3.823
   54        1.477   2.291   0.029   3.797
   55        1.478   2.287   0.029   3.793
   56        1.475   2.290   0.027   3.793
   57        1.475   2.315   0.034   3.823
   58        1.477   2.316   0.034   3.827
   59        1.479   2.291   0.032   3.801
   60        1.479   2.293   0.035   3.808
   61        1.478   2.303   0.031   3.811
   62        1.479   2.294   0.034   3.807
   63        1.478   2.301   0.030   3.809
   64        1.480   2.291   0.030   3.801
   65        1.477   2.310   0.034   3.821
   66        1.485   2.257   0.027   3.770
   67        1.478   2.275   0.027   3.780
   68        1.475   2.284   0.026   3.784
   69        1.477   2.275   0.026   3.777
   70        1.484   2.288   0.035   3.807
   71        1.476   2.305   0.034   3.816
   72        1.479   2.305   0.037   3.820
--------------------------------------------------
tot        101.055 109.545   3.135 213.734



 magnetization (x)

# of ion       s       p       d       tot
------------------------------------------
    1       -0.000   0.000   0.000   0.000
    2       -0.000   0.000   0.000   0.000
    3       -0.000   0.000  -0.000   0.000
    4       -0.000   0.000  -0.000   0.000
    5       -0.000   0.000   0.000   0.000
    6       -0.000   0.000  -0.000  -0.000
    7       -0.000  -0.000  -0.000  -0.000
    8       -0.000   0.000   0.000   0.000
    9       -0.000   0.000  -0.000   0.000
   10       -0.000   0.000  -0.000  -0.000
   11       -0.000   0.000   0.000   0.000
   12       -0.000   0.000  -0.000   0.000
   13       -0.000   0.000  -0.000   0.000
   14       -0.000   0.000   0.000   0.000
   15       -0.000  -0.000  -0.000  -0.000
   16       -0.000  -0.000  -0.000  -0.000
   17       -0.000  -0.000  -0.000  -0.000
   18       -0.000   0.000  -0.000   0.000
   19       -0.000   0.000   0.000   0.000
   20       -0.000   0.000   0.000   0.000
   21       -0.000   0.000   0.000   0.000
   22       -0.000   0.000  -0.000   0.000
   23       -0.000   0.000   0.000   0.000
   24       -0.000   0.000   0.000   0.000
   25       -0.000  -0.000  -0.000  -0.000
   26       -0.000   0.000   0.000   0.000
   27       -0.000   0.000   0.000   0.000
   28       -0.000   0.000   0.000   0.000
   29       -0.000   0.000  -0.000   0.000
   30       -0.000   0.000   0.000   0.000
   31       -0.000   0.000   0.000   0.000
   32       -0.000   0.000  -0.000   0.000
   33       -0.000   0.000   0.000   0.000
   34       -0.000   0.000   0.000   0.000
   35       -0.000   0.000  -0.000   0.000
   36       -0.000   0.000   0.000   0.000
   37       -0.000  -0.000   0.000  -0.000
   38       -0.000  -0.000   0.000  -0.000
   39       -0.000  -0.000   0.000  -0.000
   40       -0.000  -0.000   0.000  -0.000
   41       -0.000  -0.000  -0.000  -0.000
   42       -0.000  -0.000   0.000  -0.000
   43       -0.000  -0.000  -0.000  -0.000
   44       -0.000  -0.000   0.000  -0.000
   45       -0.000  -0.000   0.000  -0.000
   46       -0.000  -0.000  -0.000  -0.000
   47       -0.000  -0.000   0.000  -0.000
   48       -0.000  -0.000   0.000  -0.000
   49       -0.000  -0.000  -0.000  -0.000
   50       -0.000  -0.000   0.000  -0.000
   51       -0.000  -0.000   0.000  -0.000
   52       -0.000  -0.000   0.000  -0.000
   53       -0.000  -0.000   0.000  -0.000
   54       -0.000  -0.000   0.000  -0.000
   55       -0.000  -0.000   0.000  -0.000
   56       -0.000  -0.000  -0.000  -0.000
   57       -0.000  -0.000   0.000  -0.000
   58       -0.000  -0.000   0.000  -0.000
   59       -0.000  -0.000   0.000  -0.000
   60       -0.000  -0.000   0.000  -0.000
   61       -0.000  -0.000   0.000  -0.000
   62       -0.000  -0.000   0.000  -0.000
   63       -0.000  -0.000  -0.000  -0.000
   64       -0.000  -0.000  -0.000  -0.000
   65       -0.000  -0.000   0.000  -0.000
   66       -0.000  -0.000   0.000  -0.000
   67       -0.000  -0.000   0.000  -0.000
   68       -0.000  -0.000   0.000  -0.000
   69       -0.000  -0.000   0.000  -0.000
   70       -0.000  -0.000   0.000  -0.000
   71       -0.000  -0.000   0.000  -0.000
   72       -0.000  -0.000   0.000  -0.000
--------------------------------------------------
tot         -0.000  -0.000   0.000  -0.000
 

 total amount of memory used by VASP MPI-rank0   110684. kBytes
=======================================================================

   base      :      30000. kBytes
   nonl-proj :      16332. kBytes
   fftplans  :       6179. kBytes
   grid      :      15593. kBytes
   one-center:        146. kBytes
   wavefun   :      42434. kBytes
 
  
  
 General timing and accounting informations for this job:
 ========================================================
  
                  Total CPU time used (sec):      194.430
                            User time (sec):      188.521
                          System time (sec):        5.909
                         Elapsed time (sec):      197.122
  
                   Maximum memory used (kb):      314248.
                   Average memory used (kb):          N/A
  
                          Minor page faults:        96292
                          Major page faults:           62
                 Voluntary context switches:         3518
