 running  128 mpi-ranks, with    1 threads/rank, on    2 nodes
 distrk:  each k-point on   64 cores,    2 groups
 distr:  one band on    8 cores,    8 groups
 vasp.6.4.2 20Jul23 (build Oct 12 2023 10:31:02) complex                         
 POSCAR found type information on POSCAR GeSe
 POSCAR found :  2 types and      72 ions
 Reading from existing POTCAR
 -----------------------------------------------------------------------------
|                                                                             |
|           W    W    AA    RRRRR   N    N  II  N    N   GGGG   !!!           |
|           W    W   A  A   R    R  NN   N  II  NN   N  G    G  !!!           |
|           W    W  A    A  R    R  N N  N  II  N N  N  G       !!!           |
|           W WW W  AAAAAA  RRRRR   N  N N  II  N  N N  G  GGG   !            |
|           WW  WW  A    A  R   R   N   NN  II  N   NN  G    G                |
|           W    W  A    A  R    R  N    N  II  N    N   GGGG   !!!           |
|                                                                             |
|     You use a magnetic or noncollinear calculation, but did not specify     |
|     the initial magnetic moment with the MAGMOM tag. Note that a            |
|     default of 1 will be used for all atoms. This ferromagnetic setup       |
|     may break the symmetry of the crystal, in particular it may rule        |
|     out finding an antiferromagnetic solution. Thence, we recommend         |
|     setting the initial magnetic moment manually or verifying carefully     |
|     that this magnetic setup is desired.                                    |
|                                                                             |
 -----------------------------------------------------------------------------

 scaLAPACK will be used
 Reading from existing POTCAR
 -----------------------------------------------------------------------------
|                                                                             |
|               ----> ADVICE to this user running VASP <----                  |
|                                                                             |
|     You have a (more or less) 'large supercell' and for larger cells it     |
|     might be more efficient to use real-space projection operators.         |
|     Therefore, try LREAL= Auto in the INCAR file.                           |
|     Mind: For very accurate calculation, you might also keep the            |
|     reciprocal projection scheme (i.e. LREAL=.FALSE.).                      |
|                                                                             |
 -----------------------------------------------------------------------------

 LDA part: xc-table for Pade appr. of Perdew
 -----------------------------------------------------------------------------
|                                                                             |
|           W    W    AA    RRRRR   N    N  II  N    N   GGGG   !!!           |
|           W    W   A  A   R    R  NN   N  II  NN   N  G    G  !!!           |
|           W    W  A    A  R    R  N N  N  II  N N  N  G       !!!           |
|           W WW W  AAAAAA  RRRRR   N  N N  II  N  N N  G  GGG   !            |
|           WW  WW  A    A  R   R   N   NN  II  N   NN  G    G                |
|           W    W  A    A  R    R  N    N  II  N    N   GGGG   !!!           |
|                                                                             |
|     The number of bands has been changed from the values supplied in        |
|     the INCAR file. This is a result of running the parallel version.       |
|     The orbitals not found in the WAVECAR file will be initialized with     |
|     random numbers, which is usually adequate. For correlated               |
|     calculations, however, you should redo the groundstate calculation.     |
|     I found NBANDS = 220. Now, NBANDS = 224.                                |
|                                                                             |
 -----------------------------------------------------------------------------

 POSCAR, INCAR and KPOINTS ok, starting setup
 FFT: planning ... GRIDC
 FFT: planning ... GRID_SOFT
 FFT: planning ... GRID
 WAVECAR not read
 WARNING: random wavefunctions but no delay for mixing, default for NELMDL
 entering main loop
       N       E                     dE             d eps       ncg     rms          rms(c)
DAV:   1     0.181421269071E+04    0.18142E+04   -0.14177E+05  7168   0.135E+03
DAV:   2    -0.637163668446E+02   -0.18779E+04   -0.18028E+04  8440   0.205E+02
DAV:   3    -0.281691491365E+03   -0.21798E+03   -0.21205E+03  8584   0.691E+01
DAV:   4    -0.289643285155E+03   -0.79518E+01   -0.78598E+01  8720   0.131E+01
DAV:   5    -0.289946472485E+03   -0.30319E+00   -0.30235E+00  9104   0.214E+00    0.292E+01
DAV:   6    -0.289672465856E+03    0.27401E+00   -0.26662E+01  7936   0.761E+00    0.173E+01
DAV:   7    -0.296943876285E+03   -0.72714E+01   -0.86463E+00  7984   0.448E+00    0.909E+00
DAV:   8    -0.300164431428E+03   -0.32206E+01   -0.17376E+00  8208   0.225E+00    0.331E+00
DAV:   9    -0.300537376015E+03   -0.37294E+00   -0.42115E-01  9088   0.101E+00    0.147E+00
DAV:  10    -0.300643823858E+03   -0.10645E+00   -0.95440E-02  8200   0.466E-01    0.728E-01
DAV:  11    -0.300675234017E+03   -0.31410E-01   -0.36140E-02  8880   0.280E-01    0.284E-01
DAV:  12    -0.300678467562E+03   -0.32335E-02   -0.44833E-03  8608   0.117E-01    0.104E-01
DAV:  13    -0.300678562725E+03   -0.95164E-04   -0.58569E-04  9776   0.375E-02    0.432E-02
DAV:  14    -0.300678577393E+03   -0.14668E-04   -0.89669E-05  8312   0.184E-02    0.167E-02
DAV:  15    -0.300678580359E+03   -0.29657E-05   -0.15143E-05  8632   0.826E-03    0.734E-03
DAV:  16    -0.300678581037E+03   -0.67802E-06   -0.13760E-06  4824   0.255E-03
   1 F= -.30067858E+03 E0= -.30067858E+03  d E =-.321041E-13  mag=     0.0004
