 vasp.6.4.2 20Jul23 (build Oct 12 2023 10:31:02) complex                         
 executed on              LinuxNV date 2024.11.02  01:30:38
 running  128 mpi-ranks, with    1 threads/rank, on    2 nodes
 distrk:  each k-point on   64 cores,    2 groups
 distr:  one band on NCORE=   8 cores,    8 groups


--------------------------------------------------------------------------------------------------------


 INCAR:
   ENCUT = 520.000000
   SIGMA = 0.050000
   EDIFF = 1.00e-06
   ALGO = N
   GGA = PE
   PREC = Accurate
   SYSTEM = 01_AOPT
   ICHARG = 0
   ISMEAR = 0
   ISPIN = 2
   ISTART = 1
   ISYM = -1
   KPAR = 2
   LORBIT = 11
   NBANDS = 220
   NELM = 100
   NELMIN = 5
   NPAR = 8
   LASPH = .TRUE.
   LCHARG = .FALSE.
   LWAVE = .FALSE.
   LREAL = .FALSE.

 POTCAR:    PAW_PBE Ge 05Jan2001                  
 POTCAR:    PAW_PBE Se 06Sep2000                  
 -----------------------------------------------------------------------------
|                                                                             |
|           W    W    AA    RRRRR   N    N  II  N    N   GGGG   !!!           |
|           W    W   A  A   R    R  NN   N  II  NN   N  G    G  !!!           |
|           W    W  A    A  R    R  N N  N  II  N N  N  G       !!!           |
|           W WW W  AAAAAA  RRRRR   N  N N  II  N  N N  G  GGG   !            |
|           WW  WW  A    A  R   R   N   NN  II  N   NN  G    G                |
|           W    W  A    A  R    R  N    N  II  N    N   GGGG   !!!           |
|                                                                             |
|     You use a magnetic or noncollinear calculation, but did not specify     |
|     the initial magnetic moment with the MAGMOM tag. Note that a            |
|     default of 1 will be used for all atoms. This ferromagnetic setup       |
|     may break the symmetry of the crystal, in particular it may rule        |
|     out finding an antiferromagnetic solution. Thence, we recommend         |
|     setting the initial magnetic moment manually or verifying carefully     |
|     that this magnetic setup is desired.                                    |
|                                                                             |
 -----------------------------------------------------------------------------

 POTCAR:    PAW_PBE Ge 05Jan2001                  
   VRHFIN =Ge: s2p2                                                                                 
   LEXCH  = PE                                                                                      
   EATOM  =   104.9960 eV,    7.7170 Ry                                                             
                                                                                                    
   TITEL  = PAW_PBE Ge 05Jan2001                                                                    
   LULTRA =        F    use ultrasoft PP ?                                                          
   IUNSCR =        1    unscreen: 0-lin 1-nonlin 2-no                                               
   RPACOR =    2.170    partial core radius                                                         
   POMASS =   72.610; ZVAL   =    4.000    mass and valenz                                          
   RCORE  =    2.300    outmost cutoff radius                                                       
   RWIGS  =    2.300; RWIGS  =    1.217    wigner-seitz radius (au A)                               
   ENMAX  =  173.807; ENMIN  =  130.355 eV                                                          
   ICORE  =        3    local potential                                                             
   LCOR   =        T    correct aug charges                                                         
   LPAW   =        T    paw PP                                                                      
   EAUG   =  385.843                                                                                
   DEXC   =    0.000                                                                                
   RMAX   =    2.342    core radius for proj-oper                                                   
   RAUG   =    1.300    factor for augmentation sphere                                              
   RDEP   =    2.318    radius for radial grids                                                     
   RDEPT  =    2.103    core radius for aug-charge                                                  
                                                                                                    
   Atomic configuration                                                                             
   10 entries                                                                                       
     n  l   j            E        occ.                                                              
     1  0  0.50    -10959.8463   2.0000                                                             
     2  0  0.50     -1371.6056   2.0000                                                             
     2  1  1.50     -1198.4791   6.0000                                                             
     3  0  0.50      -168.4733   2.0000                                                             
     3  1  1.50      -115.6019   6.0000                                                             
     3  2  2.50       -29.3106  10.0000                                                             
     4  0  0.50       -11.7309   2.0000                                                             
     4  1  0.50        -3.8952   2.0000                                                             
     4  2  1.50        -4.0817   0.0000                                                             
     4  3  2.50        -4.0817   0.0000                                                             
   Description                                                                                      
     l       E           TYP  RCUT    TYP  RCUT                                                     
     0    -11.7309493     23  2.300                                                                 
     0     -7.4578696     23  2.300                                                                 
     1     -3.8952261     23  2.300                                                                 
     1      6.1178114     23  2.300                                                                 
     2     -4.0817478     23  2.300                                                                 
     3     -1.3605826      7  2.300                                                                 
  local pseudopotential read in
  partial core-charges read in
  partial kinetic energy density read in
  atomic valenz-charges read in
  non local Contribution for L=            0  read in
    real space projection operators read in
  non local Contribution for L=            0  read in
    real space projection operators read in
  non local Contribution for L=            1  read in
    real space projection operators read in
  non local Contribution for L=            1  read in
    real space projection operators read in
  non local Contribution for L=            2  read in
    real space projection operators read in
    PAW grid and wavefunctions read in
 
   number of l-projection  operators is LMAX  =            5
   number of lm-projection operators is LMMAX =           13
 
 POTCAR:    PAW_PBE Se 06Sep2000                  
   VRHFIN =Se: s2p4                                                                                 
   LEXCH  = PE                                                                                      
   EATOM  =   257.1286 eV,   18.8984 Ry                                                             
                                                                                                    
   TITEL  = PAW_PBE Se 06Sep2000                                                                    
   LULTRA =        F    use ultrasoft PP ?                                                          
   IUNSCR =        1    unscreen: 0-lin 1-nonlin 2-no                                               
   RPACOR =    1.900    partial core radius                                                         
   POMASS =   78.960; ZVAL   =    6.000    mass and valenz                                          
   RCORE  =    2.100    outmost cutoff radius                                                       
   RWIGS  =    2.200; RWIGS  =    1.164    wigner-seitz radius (au A)                               
   ENMAX  =  211.555; ENMIN  =  158.666 eV                                                          
   ICORE  =        3    local potential                                                             
   LCOR   =        T    correct aug charges                                                         
   LPAW   =        T    paw PP                                                                      
   EAUG   =  446.842                                                                                
   DEXC   =    0.000                                                                                
   RMAX   =    2.147    core radius for proj-oper                                                   
   RAUG   =    1.300    factor for augmentation sphere                                              
   RDEP   =    2.177    radius for radial grids                                                     
   RDEPT  =    1.928    core radius for aug-charge                                                  
                                                                                                    
   Atomic configuration                                                                             
   10 entries                                                                                       
     n  l   j            E        occ.                                                              
     1  0  0.50    -12503.4787   2.0000                                                             
     2  0  0.50     -1606.9547   2.0000                                                             
     2  1  1.50     -1413.3140   6.0000                                                             
     3  0  0.50      -213.4885   2.0000                                                             
     3  1  1.50      -152.9538   6.0000                                                             
     3  2  2.50       -53.1221  10.0000                                                             
     4  0  0.50       -17.2865   2.0000                                                             
     4  1  0.50        -6.5110   4.0000                                                             
     4  2  2.50        -6.8029   0.0000                                                             
     4  3  2.50        -6.8029   0.0000                                                             
   Description                                                                                      
     l       E           TYP  RCUT    TYP  RCUT                                                     
     0    -17.2865377     23  2.100                                                                 
     0    -15.3094411     23  2.100                                                                 
     1     -6.5110275     23  2.100                                                                 
     1     -0.0695192     23  2.100                                                                 
     2     -6.8029130     23  2.100                                                                 
     3     -1.3605826      7  2.100                                                                 
  local pseudopotential read in
  partial core-charges read in
  partial kinetic energy density read in
  atomic valenz-charges read in
  non local Contribution for L=            0  read in
    real space projection operators read in
  non local Contribution for L=            0  read in
    real space projection operators read in
  non local Contribution for L=            1  read in
    real space projection operators read in
  non local Contribution for L=            1  read in
    real space projection operators read in
  non local Contribution for L=            2  read in
    real space projection operators read in
    PAW grid and wavefunctions read in
 
   number of l-projection  operators is LMAX  =            5
   number of lm-projection operators is LMMAX =           13
 
 -----------------------------------------------------------------------------
|                                                                             |
|               ----> ADVICE to this user running VASP <----                  |
|                                                                             |
|     You have a (more or less) 'large supercell' and for larger cells it     |
|     might be more efficient to use real-space projection operators.         |
|     Therefore, try LREAL= Auto in the INCAR file.                           |
|     Mind: For very accurate calculation, you might also keep the            |
|     reciprocal projection scheme (i.e. LREAL=.FALSE.).                      |
|                                                                             |
 -----------------------------------------------------------------------------

  PAW_PBE Ge 05Jan2001                  :
 energy of atom  1       EATOM= -104.9960
 kinetic energy error for atom=    0.0002 (will be added to EATOM!!)
  PAW_PBE Se 06Sep2000                  :
 energy of atom  2       EATOM= -257.1286
 kinetic energy error for atom=    0.0007 (will be added to EATOM!!)
 
 
 POSCAR: Ge Se
  positions in cartesian coordinates
  No initial velocities read in
 exchange correlation table for  LEXCH =        8
   RHO(1)=    0.500       N(1)  =     2000
   RHO(2)=  100.500       N(2)  =     4000
 


--------------------------------------------------------------------------------------------------------


 ion  position               nearest neighbor table
   1  0.089  0.046  0.118-  54 2.46  45 2.65  55 2.74
   2  0.236  0.892  0.361-  67 2.53  48 2.64  45 2.65
   3  0.562  0.217  0.374-  49 2.62  68 2.65  56 2.81
   4  0.560  0.537  0.360-  72 2.64  50 2.64  69 2.68
   5  0.570  0.852  0.368-  70 2.51  48 2.74  44 2.75
   6  0.904  0.187  0.364-  55 2.56
   7  0.906  0.525  0.372-  71 2.51  72 2.82  47 2.85
   8  0.915  0.877  0.373-  53 2.60  45 2.71
   9  0.096  0.181  0.623-  38 2.46  57 2.66
  10  0.064  0.477  0.638-  38 2.57  58 2.63  43 2.66
  11  0.078  0.812  0.626-  52 2.56  39 2.60  59 2.76
  12  0.406  0.147  0.640-  60 2.53  40 2.63  51 2.66
  13  0.434  0.503  0.643-  61 2.54  41 2.59  42 2.64
  14  0.407  0.802  0.634-  39 2.59  42 2.60  62 2.68
  15  0.743  0.146  0.635-  63 2.53  37 2.73  40 2.73
  16  0.746  0.488  0.640-  41 2.51  64 2.52  43 2.54
  17  0.223  0.557  0.369-  66 2.57  47 2.57  50 2.80
  18  0.251  0.210  0.372-  54 2.55  46 2.66  49 2.74
  19  0.743  0.828  0.640-  65 2.52  37 2.61  52 2.85
  20  0.921  0.647  0.859-  58 2.48  52 2.55  64 2.74
  21  0.923  0.996  0.861-  37 2.51  59 2.63  57 2.71
  22  0.058  0.351  0.134-  46 2.52  71 2.57  55 2.85
  23  0.072  0.716  0.140-  47 2.50  67 2.64  53 2.78
  24  0.416  0.036  0.115-  48 2.53  68 2.58  54 2.79
  25  0.411  0.382  0.114-  69 2.57  49 2.57  66 2.84
  26  0.733  0.033  0.130-  44 2.50  68 2.79  55 2.84
  27  0.730  0.384  0.122-  71 2.57  56 2.57  69 2.70
  28  0.405  0.718  0.149-  50 2.45  67 2.60  70 2.81
  29  0.248  0.328  0.864-  38 2.60  60 2.66  61 2.83
  30  0.235  0.639  0.874-  61 2.60  58 2.62  39 2.63
  31  0.244  0.983  0.872-  51 2.61  62 2.63  59 2.65
  32  0.579  0.328  0.884-  63 2.65  60 2.73  41 2.73
  33  0.587  0.666  0.872-  42 2.52  65 2.68  64 2.69
  34  0.558  0.975  0.865-  62 2.60  65 2.69  40 2.69
  35  0.901  0.308  0.844-  43 2.50  57 2.55  63 2.62
  36  0.733  0.704  0.135-  72 2.46  70 2.60  53 2.74
  37  0.886  0.980  0.638-  21 2.51  19 2.61  15 2.73
  38  0.215  0.338  0.632-   9 2.46  10 2.57  29 2.60
  39  0.239  0.680  0.641-  14 2.59  11 2.60  30 2.63
  40  0.569  0.013  0.626-  12 2.63  34 2.69  15 2.73
  41  0.589  0.363  0.640-  16 2.51  13 2.59  32 2.73
  42  0.567  0.667  0.645-  33 2.52  14 2.60  13 2.64
  43  0.894  0.348  0.623-  35 2.50  16 2.54  10 2.66
  44  0.727  0.007  0.354-  26 2.50   5 2.75
  45  0.072  0.027  0.356-   2 2.65   1 2.65   8 2.71
  46  0.086  0.345  0.359-  22 2.52  18 2.66
  47  0.065  0.689  0.364-  23 2.50  17 2.57   7 2.85
  48  0.415  0.006  0.341-  24 2.53   2 2.64   5 2.74
  49  0.410  0.360  0.345-  25 2.57   3 2.62  18 2.74
  50  0.408  0.685  0.366-  28 2.45   4 2.64  17 2.80
  51  0.246  0.006  0.637-  31 2.61  12 2.66
  52  0.918  0.682  0.631-  20 2.55  11 2.56  19 2.85
  53  0.895  0.853  0.141-   8 2.60  36 2.74  23 2.78
  54  0.240  0.172  0.146-   1 2.46  18 2.55  24 2.79
  55  0.911  0.176  0.133-   6 2.56   1 2.74  26 2.84  22 2.85
  56  0.743  0.352  0.351-  27 2.57   3 2.81
  57  0.052  0.171  0.858-  35 2.55   9 2.66  21 2.71
  58  0.067  0.512  0.873-  20 2.48  30 2.62  10 2.63
  59  0.077  0.852  0.870-  21 2.63  31 2.65  11 2.76
  60  0.410  0.189  0.864-  12 2.53  29 2.66  32 2.73
  61  0.393  0.503  0.868-  13 2.54  30 2.60  29 2.83
  62  0.399  0.840  0.872-  34 2.60  31 2.63  14 2.68
  63  0.733  0.182  0.860-  15 2.53  35 2.62  32 2.65
  64  0.744  0.517  0.865-  16 2.52  33 2.69  20 2.74
  65  0.721  0.834  0.867-  19 2.52  33 2.68  34 2.69
  66  0.235  0.526  0.140-  17 2.57  25 2.84
  67  0.240  0.845  0.138-   2 2.53  28 2.60  23 2.64
  68  0.564  0.180  0.139-  24 2.58   3 2.65  26 2.79
  69  0.562  0.522  0.119-  25 2.57   4 2.68  27 2.70
  70  0.586  0.853  0.142-   5 2.51  36 2.60  28 2.81
  71  0.906  0.489  0.149-   7 2.51  22 2.57  27 2.57
  72  0.729  0.665  0.353-  36 2.46   4 2.64   7 2.82
 

IMPORTANT INFORMATION: All symmetrisations will be switched off!
NOSYMM: (Re-)initialisation of all symmetry stuff for point group C_1.


----------------------------------------------------------------------------------------

                                     Primitive cell                                     

  volume of cell :    1719.2064

  direct lattice vectors                    reciprocal lattice vectors
    12.412864299  0.000005953 -0.000002489     0.080561583 -0.000000039  0.000000021
     0.000006001 12.513347078 -0.000002518    -0.000000038  0.079914670  0.000000021
    -0.000002857 -0.000002867 11.068340704     0.000000018  0.000000018  0.090347779

  length of vectors
    12.412864299 12.513347078 11.068340704     0.080561583  0.079914670  0.090347779

  position of ions in fractional coordinates (direct lattice)
     0.088804268  0.046272308  0.118199601
     0.236192046  0.892440978  0.360681156
     0.562312152  0.217302040  0.374353746
     0.560095540  0.537414032  0.360068018
     0.570383098  0.851737745  0.368133803
     0.903614595  0.187136914  0.363713386
     0.905987605  0.524854857  0.371965007
     0.915346892  0.877346279  0.372652742
     0.096128381  0.181345550  0.623294964
     0.063608260  0.476724702  0.638183139
     0.077723484  0.811825548  0.625542615
     0.406276235  0.147222090  0.639826800
     0.434360217  0.502593013  0.643033372
     0.407263936  0.801940331  0.633508742
     0.743297742  0.145759732  0.635465515
     0.746424756  0.488490169  0.639841730
     0.223243760  0.556787458  0.368930918
     0.250816649  0.210266893  0.371621102
     0.742556212  0.827921150  0.640203594
     0.921175500  0.646944181  0.858752765
     0.922717653  0.996421685  0.860870914
     0.058072048  0.350606130  0.134041221
     0.071817775  0.716230308  0.140064942
     0.415963904  0.036261413  0.114880343
     0.410510115  0.382255417  0.113877717
     0.733312480  0.033337993  0.130095414
     0.729502972  0.384206070  0.122263588
     0.405272154  0.717845126  0.148613407
     0.248447138  0.328352540  0.864301598
     0.235163324  0.638724586  0.873956696
     0.243579657  0.983242577  0.871606325
     0.578780794  0.327814559  0.883918757
     0.587218545  0.666477924  0.871734976
     0.558107221  0.975450811  0.865236739
     0.900916579  0.307956255  0.844012193
     0.732969070  0.704430222  0.134913695
     0.886259571  0.979880239  0.638181640
     0.215375289  0.337673719  0.632316573
     0.239099069  0.679687581  0.641251848
     0.569007085  0.012769247  0.626253504
     0.588702328  0.362762376  0.640497579
     0.567013646  0.667428048  0.645434654
     0.893644970  0.348428267  0.622741313
     0.726511954  0.007380150  0.354314005
     0.071959607  0.027442704  0.355991621
     0.085595652  0.344878403  0.359137490
     0.064739086  0.689279005  0.364003733
     0.415076663  0.005723005  0.340876568
     0.410029038  0.360429399  0.344743548
     0.407792749  0.684770801  0.366326225
     0.245995766  0.006175523  0.637055071
     0.918469265  0.682156920  0.631442385
     0.894987274  0.852602127  0.140975172
     0.239735949  0.171616631  0.146090020
     0.911119645  0.176026101  0.132637235
     0.742576894  0.351511168  0.351356522
     0.052143687  0.170907885  0.858385784
     0.066711000  0.512222247  0.872669074
     0.076554233  0.851902116  0.870461825
     0.410156853  0.189241785  0.863665233
     0.393423940  0.503032268  0.867589471
     0.398894565  0.840397818  0.871690586
     0.732865509  0.182259441  0.859767632
     0.743642500  0.517420706  0.864747839
     0.721439886  0.834407724  0.866657032
     0.235370272  0.526381196  0.139978345
     0.240459571  0.845278395  0.138314927
     0.563627280  0.179520138  0.139199528
     0.561865501  0.522010966  0.118986720
     0.586065145  0.852794313  0.141943568
     0.906173160  0.489031725  0.148902142
     0.728834432  0.665241596  0.352548993

  ion indices of the primitive-cell ions
   primitive index   ion index
                 1           1
                 2           2
                 3           3
                 4           4
                 5           5
                 6           6
                 7           7
                 8           8
                 9           9
                10          10
                11          11
                12          12
                13          13
                14          14
                15          15
                16          16
                17          17
                18          18
                19          19
                20          20
                21          21
                22          22
                23          23
                24          24
                25          25
                26          26
                27          27
                28          28
                29          29
                30          30
                31          31
                32          32
                33          33
                34          34
                35          35
                36          36
                37          37
                38          38
                39          39
                40          40
                41          41
                42          42
                43          43
                44          44
                45          45
                46          46
                47          47
                48          48
                49          49
                50          50
                51          51
                52          52
                53          53
                54          54
                55          55
                56          56
                57          57
                58          58
                59          59
                60          60
                61          61
                62          62
                63          63
                64          64
                65          65
                66          66
                67          67
                68          68
                69          69
                70          70
                71          71
                72          72

----------------------------------------------------------------------------------------

 
 
 KPOINTS: KPOINTS created by Atomic Simulation Env

Automatic generation of k-mesh.
 Grid dimensions read from file:
 generate k-points for:    2    2    2

 Generating k-lattice:

  Cartesian coordinates                     Fractional coordinates (reciprocal lattice)
     0.040280792 -0.000000019  0.000000010     0.500000000  0.000000000 -0.000000000
    -0.000000019  0.039957335  0.000000010    -0.000000000  0.500000000  0.000000000
     0.000000009  0.000000009  0.045173890     0.000000000  0.000000000  0.500000000

  Length of vectors
     0.040280792  0.039957335  0.045173890

  Shift w.r.t. Gamma in fractional coordinates (k-lattice)
     0.000000000  0.000000000  0.000000000

 
 Subroutine IBZKPT returns following result:
 ===========================================
 
 Found      8 irreducible k-points:
 
 Following reciprocal coordinates:
            Coordinates               Weight
  0.000000  0.000000  0.000000      1.000000
  0.500000  0.000000  0.000000      1.000000
  0.000000  0.500000  0.000000      1.000000
  0.500000  0.500000  0.000000      1.000000
  0.000000  0.000000  0.500000      1.000000
  0.500000  0.000000  0.500000      1.000000
  0.000000  0.500000  0.500000      1.000000
  0.500000  0.500000  0.500000      1.000000
 
 Following cartesian coordinates:
            Coordinates               Weight
  0.000000  0.000000  0.000000      1.000000
  0.040281 -0.000000  0.000000      1.000000
 -0.000000  0.039957  0.000000      1.000000
  0.040281  0.039957  0.000000      1.000000
  0.000000  0.000000  0.045174      1.000000
  0.040281 -0.000000  0.045174      1.000000
 -0.000000  0.039957  0.045174      1.000000
  0.040281  0.039957  0.045174      1.000000
 
 -----------------------------------------------------------------------------
|                                                                             |
|           W    W    AA    RRRRR   N    N  II  N    N   GGGG   !!!           |
|           W    W   A  A   R    R  NN   N  II  NN   N  G    G  !!!           |
|           W    W  A    A  R    R  N N  N  II  N N  N  G       !!!           |
|           W WW W  AAAAAA  RRRRR   N  N N  II  N  N N  G  GGG   !            |
|           WW  WW  A    A  R   R   N   NN  II  N   NN  G    G                |
|           W    W  A    A  R    R  N    N  II  N    N   GGGG   !!!           |
|                                                                             |
|     The number of bands has been changed from the values supplied in        |
|     the INCAR file. This is a result of running the parallel version.       |
|     The orbitals not found in the WAVECAR file will be initialized with     |
|     random numbers, which is usually adequate. For correlated               |
|     calculations, however, you should redo the groundstate calculation.     |
|     I found NBANDS = 220. Now, NBANDS = 224.                                |
|                                                                             |
 -----------------------------------------------------------------------------



--------------------------------------------------------------------------------------------------------




 Dimension of arrays:
   k-points           NKPTS =      8   k-points in BZ     NKDIM =      8   number of bands    NBANDS=    224
   number of dos      NEDOS =    301   number of ions     NIONS =     72
   non local maximal  LDIM  =      5   non local SUM 2l+1 LMDIM =     13
   total plane-waves  NPLWV = 774144
   max r-space proj   IRMAX =      1   max aug-charges    IRDMAX=  24670
   dimension x,y,z NGX =    96 NGY =   96 NGZ =   84
   dimension x,y,z NGXF=   192 NGYF=  192 NGZF=  168
   support grid    NGXF=   192 NGYF=  192 NGZF=  168
   ions per type =              36  36
   NGX,Y,Z   is equivalent  to a cutoff of  12.86, 12.75, 12.62 a.u.
   NGXF,Y,Z  is equivalent  to a cutoff of  25.71, 25.51, 25.23 a.u.

 SYSTEM =  01_AOPT                                 
 POSCAR =  Ge Se                                   

 Startparameter for this run:
   NWRITE =      2    write-flag & timer
   PREC   = accura    normal or accurate (medium, high low for compatibility)
   ISTART =      0    job   : 0-new  1-cont  2-samecut
   ICHARG =      2    charge: 1-file 2-atom 10-const
   ISPIN  =      2    spin polarized calculation?
   LNONCOLLINEAR =      F non collinear calculations
   LSORBIT =      F    spin-orbit coupling
   INIWAV =      1    electr: 0-lowe 1-rand  2-diag
   LASPH  =      T    aspherical Exc in radial PAW
 Electronic Relaxation 1
   ENCUT  =  520.0 eV  38.22 Ry    6.18 a.u.  23.08 23.27 20.58*2*pi/ulx,y,z
   ENINI  =  520.0     initial cutoff
   ENAUG  =  446.8 eV  augmentation charge cutoff
   NELM   =    100;   NELMIN=  5; NELMDL=  0     # of ELM steps 
   EDIFF  = 0.1E-05   stopping-criterion for ELM
   LREAL  =      F    real-space projection
   NLSPLINE    = F    spline interpolate recip. space projectors
   LCOMPAT=      F    compatible to vasp.4.4
   GGA_COMPAT  = T    GGA compatible to vasp.4.4-vasp.4.6
   LMAXPAW     = -100 max onsite density
   LMAXMIX     =    2 max onsite mixed and CHGCAR
   VOSKOWN=      0    Vosko Wilk Nusair interpolation
   ROPT   =    0.00000   0.00000
 Ionic relaxation
   EDIFFG = 0.1E-04   stopping-criterion for IOM
   NSW    =      0    number of steps for IOM
   NBLOCK =      1;   KBLOCK =      1    inner block; outer block 
   IBRION =     -1    ionic relax: 0-MD 1-quasi-New 2-CG
   NFREE  =      0    steps in history (QN), initial steepest desc. (CG)
   ISIF   =      2    stress and relaxation
   IWAVPR =     10    prediction:  0-non 1-charg 2-wave 3-comb
   ISYM   =     -1    0-nonsym 1-usesym 2-fastsym
   LCORR  =      T    Harris-Foulkes like correction to forces

   POTIM  = 0.5000    time-step for ionic-motion
   TEIN   =    0.0    initial temperature
   TEBEG  =    0.0;   TEEND  =   0.0 temperature during run
   SMASS  =  -3.00    Nose mass-parameter (am)
   estimated Nose-frequenzy (Omega)   =  0.10E-29 period in steps = 0.13E+47 mass=  -0.352E-26a.u.
   SCALEE = 1.0000    scale energy and forces
   NPACO  =    256;   APACO  = 10.0  distance and # of slots for P.C.
   PSTRESS=    0.0 pullay stress

  Mass of Ions in am
   POMASS =  72.61 78.96
  Ionic Valenz
   ZVAL   =   4.00  6.00
  Atomic Wigner-Seitz radii
   RWIGS  =  -1.00 -1.00
  virtual crystal weights 
   VCA    =   1.00  1.00
   NELECT =     360.0000    total number of electrons
   NUPDOWN=      -1.0000    fix difference up-down

 DOS related values:
   EMIN   =  10.00;   EMAX   =-10.00  energy-range for DOS
   EFERMI =   0.00;   METHOD = LEGACY      
   ISMEAR =     0;   SIGMA  =   0.05  broadening in eV -4-tet -1-fermi 0-gaus

 Electronic relaxation 2 (details)
   IALGO  =     38    algorithm
   LDIAG  =      T    sub-space diagonalisation (order eigenvalues)
   LSUBROT=      F    optimize rotation matrix (better conditioning)
   TURBO    =      0    0=normal 1=particle mesh
   IRESTART =      0    0=no restart 2=restart with 2 vectors
   NREBOOT  =      0    no. of reboots
   NMIN     =      0    reboot dimension
   EREF     =   0.00    reference energy to select bands
   IMIX   =      4    mixing-type and parameters
     AMIX     =   0.40;   BMIX     =  1.00
     AMIX_MAG =   1.60;   BMIX_MAG =  1.00
     AMIN     =   0.10
     WC   =   100.;   INIMIX=   1;  MIXPRE=   1;  MAXMIX= -45

 Intra band minimization:
   WEIMIN = 0.0000     energy-eigenvalue tresh-hold
   EBREAK =  0.11E-08  absolut break condition
   DEPER  =   0.30     relativ break condition  

   TIME   =   0.40     timestep for ELM

  volume/ion in A,a.u.               =      23.88       161.14
  Fermi-wavevector in a.u.,A,eV,Ry     =   0.972149  1.837096 12.858517  0.945074
  Thomas-Fermi vector in A             =   2.102424
 
 Write flags
   LWAVE        =      F    write WAVECAR
   LDOWNSAMPLE  =      F    k-point downsampling of WAVECAR
   LCHARG       =      F    write CHGCAR
   LVTOT        =      F    write LOCPOT, total local potential
   LVHAR        =      F    write LOCPOT, Hartree potential only
   LELF         =      F    write electronic localiz. function (ELF)
   LORBIT       =     11    0 simple, 1 ext, 2 COOP (PROOUT), +10 PAW based schemes


 Dipole corrections
   LMONO  =      F    monopole corrections only (constant potential shift)
   LDIPOL =      F    correct potential (dipole corrections)
   IDIPOL =      0    1-x, 2-y, 3-z, 4-all directions 
   EPSILON=  1.0000000 bulk dielectric constant

 Exchange correlation treatment:
   GGA     =    PE    GGA type
   LEXCH   =     8    internal setting for exchange type
   LIBXC   =     F    Libxc                    
   VOSKOWN =     0    Vosko Wilk Nusair interpolation
   LHFCALC =     F    Hartree Fock is set to
   LHFONE  =     F    Hartree Fock one center treatment
   AEXX    =    0.0000 exact exchange contribution

 Linear response parameters
   LEPSILON=     F    determine dielectric tensor
   LRPA    =     F    only Hartree local field effects (RPA)
   LNABLA  =     F    use nabla operator in PAW spheres
   LVEL    =     F    velocity operator in full k-point grid
   CSHIFT  =0.1000    complex shift for real part using Kramers Kronig
   OMEGAMAX=  -1.0    maximum frequency
   DEG_THRESHOLD= 0.2000000E-02 threshold for treating states as degnerate
   RTIME   =   -0.100 relaxation time in fs
  (WPLASMAI=    0.000 imaginary part of plasma frequency in eV, 0.658/RTIME)
   DFIELD  = 0.0000000 0.0000000 0.0000000 field for delta impulse in time
 
  Optional k-point grid parameters
   LKPOINTS_OPT  =     F    use optional k-point grid
   KPOINTS_OPT_MODE=     1    mode for optional k-point grid
 
 Orbital magnetization related:
   ORBITALMAG=     F  switch on orbital magnetization
   LCHIMAG   =     F  perturbation theory with respect to B field
   DQ        =  0.001000  dq finite difference perturbation B field
   LLRAUG    =     F  two centre corrections for induced B field
   LBONE     =     F  B-component reconstruction in AE one-centre
   LVGVCALC  =     T  calculate vGv susceptibility
   LVGVAPPL  =     F  apply vGv susceptibility instead of pGv for G=0

 Random number generation:
   RANDOM_GENERATOR = DEFAULT
   PCG_SEED         = not used


--------------------------------------------------------------------------------------------------------


 Static calculation
 charge density and potential will be updated during run
 spin polarized calculation
 Variant of blocked Davidson
 Davidson routine will perform the subspace rotation
 perform sub-space diagonalisation
    after iterative eigenvector-optimisation
 modified Broyden-mixing scheme, WC =      100.0
 initial mixing is a Kerker type mixing with AMIX =  0.4000 and BMIX =      1.0000
 Hartree-type preconditioning will be used
 using additional bands            44
 reciprocal scheme for non local part
 use partial core corrections
 calculate Harris-corrections to forces 
   (improved forces if not selfconsistent)
 use gradient corrections 
 use of overlap-Matrix (Vanderbilt PP)
 Gauss-broadening in eV      SIGMA  =   0.05


--------------------------------------------------------------------------------------------------------


  energy-cutoff  :      520.00
  volume of cell :     1719.21
      direct lattice vectors                 reciprocal lattice vectors
    12.412864299  0.000005953 -0.000002489     0.080561583 -0.000000039  0.000000021
     0.000006001 12.513347078 -0.000002518    -0.000000038  0.079914670  0.000000021
    -0.000002857 -0.000002867 11.068340704     0.000000018  0.000000018  0.090347779

  length of vectors
    12.412864299 12.513347078 11.068340704     0.080561583  0.079914670  0.090347779


 
 k-points in units of 2pi/SCALE and weight: KPOINTS created by Atomic Simulation Env
   0.00000000  0.00000000  0.00000000       0.125
   0.04028079 -0.00000002  0.00000001       0.125
  -0.00000002  0.03995733  0.00000001       0.125
   0.04028077  0.03995732  0.00000002       0.125
   0.00000001  0.00000001  0.04517389       0.125
   0.04028080 -0.00000001  0.04517390       0.125
  -0.00000001  0.03995734  0.04517390       0.125
   0.04028078  0.03995732  0.04517391       0.125
 
 k-points in reciprocal lattice and weights: KPOINTS created by Atomic Simulation Env
   0.00000000  0.00000000  0.00000000       0.125
   0.50000000  0.00000000  0.00000000       0.125
   0.00000000  0.50000000  0.00000000       0.125
   0.50000000  0.50000000  0.00000000       0.125
   0.00000000  0.00000000  0.50000000       0.125
   0.50000000  0.00000000  0.50000000       0.125
   0.00000000  0.50000000  0.50000000       0.125
   0.50000000  0.50000000  0.50000000       0.125
 
 position of ions in fractional coordinates (direct lattice) 
   0.08880427  0.04627231  0.11819960
   0.23619205  0.89244098  0.36068116
   0.56231215  0.21730204  0.37435375
   0.56009554  0.53741403  0.36006802
   0.57038310  0.85173774  0.36813380
   0.90361459  0.18713691  0.36371339
   0.90598761  0.52485486  0.37196501
   0.91534689  0.87734628  0.37265274
   0.09612838  0.18134555  0.62329496
   0.06360826  0.47672470  0.63818314
   0.07772348  0.81182555  0.62554262
   0.40627624  0.14722209  0.63982680
   0.43436022  0.50259301  0.64303337
   0.40726394  0.80194033  0.63350874
   0.74329774  0.14575973  0.63546551
   0.74642476  0.48849017  0.63984173
   0.22324376  0.55678746  0.36893092
   0.25081665  0.21026689  0.37162110
   0.74255621  0.82792115  0.64020359
   0.92117550  0.64694418  0.85875277
   0.92271765  0.99642168  0.86087091
   0.05807205  0.35060613  0.13404122
   0.07181778  0.71623031  0.14006494
   0.41596390  0.03626141  0.11488034
   0.41051011  0.38225542  0.11387772
   0.73331248  0.03333799  0.13009541
   0.72950297  0.38420607  0.12226359
   0.40527215  0.71784513  0.14861341
   0.24844714  0.32835254  0.86430160
   0.23516332  0.63872459  0.87395670
   0.24357966  0.98324258  0.87160632
   0.57878079  0.32781456  0.88391876
   0.58721855  0.66647792  0.87173498
   0.55810722  0.97545081  0.86523674
   0.90091658  0.30795626  0.84401219
   0.73296907  0.70443022  0.13491370
   0.88625957  0.97988024  0.63818164
   0.21537529  0.33767372  0.63231657
   0.23909907  0.67968758  0.64125185
   0.56900708  0.01276925  0.62625350
   0.58870233  0.36276238  0.64049758
   0.56701365  0.66742805  0.64543465
   0.89364497  0.34842827  0.62274131
   0.72651195  0.00738015  0.35431401
   0.07195961  0.02744270  0.35599162
   0.08559565  0.34487840  0.35913749
   0.06473909  0.68927900  0.36400373
   0.41507666  0.00572301  0.34087657
   0.41002904  0.36042940  0.34474355
   0.40779275  0.68477080  0.36632622
   0.24599577  0.00617552  0.63705507
   0.91846927  0.68215692  0.63144238
   0.89498727  0.85260213  0.14097517
   0.23973595  0.17161663  0.14609002
   0.91111964  0.17602610  0.13263723
   0.74257689  0.35151117  0.35135652
   0.05214369  0.17090788  0.85838578
   0.06671100  0.51222225  0.87266907
   0.07655423  0.85190212  0.87046183
   0.41015685  0.18924179  0.86366523
   0.39342394  0.50303227  0.86758947
   0.39889457  0.84039782  0.87169059
   0.73286551  0.18225944  0.85976763
   0.74364250  0.51742071  0.86474784
   0.72143989  0.83440772  0.86665703
   0.23537027  0.52638120  0.13997835
   0.24045957  0.84527839  0.13831493
   0.56362728  0.17952014  0.13919953
   0.56186550  0.52201097  0.11898672
   0.58606514  0.85279431  0.14194357
   0.90617316  0.48903173  0.14890214
   0.72883443  0.66524160  0.35254899
 
 position of ions in cartesian coordinates  (Angst):
   1.10231527  0.57902164  1.30827312
   2.93182414 11.16742407  3.99213909
   6.97990467  2.71917812  4.14347285
   6.95239213  6.72485061  3.98535275
   7.08009205 10.65809236  4.07462679
  11.21644543  2.34171350  4.02570095
  11.24590329  6.56769532  4.11703185
  11.36208096 10.97854287  4.12464303
   1.19322786  2.26923860  6.89884033
   0.78956174  5.96542021  7.06362706
   0.96477415 10.15865351  6.92371656
   5.04305083  1.84224169  7.08181963
   5.39165561  6.28912155  7.11731010
   5.05531497 10.03495830  7.01188756
   9.22645307  1.82394471  7.03354661
   9.26527031  6.11264964  7.08198318
   2.77109678  6.96727499  4.08345114
   3.11335323  2.63114304  4.11322781
   9.21725264 10.36006728  7.08598756
  11.43442791  8.09544010  9.50496427
  11.45357253 12.46857340  9.52840778
   0.72084218  4.38725615  1.48361287
   0.89146820  8.96243845  1.55028452
   5.16330339  0.45375380  1.27153365
   5.09560832  4.78329682  1.26043539
   9.10250813  0.41717387  1.43993846
   9.05522335  4.80770790  1.35325227
   5.03059213  8.98264720  1.64490100
   3.08394011  4.10878830  9.56638311
   2.91905176  7.99258133  9.67324828
   3.02352464 12.30365457  9.64723268
   7.18432690  4.10205826  9.78351169
   7.28906563  8.33987057  9.64865658
   6.92771258 12.20615540  9.57673117
  11.18295467  3.85356645  9.34181149
   9.09824944  8.81478384  1.49326715
  11.00102384 12.26158498  7.06360715
   2.67342445  4.22542791  6.99869388
   2.96790655  8.50516619  7.09759162
   7.06300602  0.15978761  6.93158570
   7.30748245  4.53937319  7.08924304
   7.03826560  8.35176034  7.14388756
  11.09269405  4.36000738  6.89270992
   9.01809333  0.09235368  3.92166630
   0.89322399  0.34339948  3.94023630
   1.06248826  4.31558264  3.97505502
   0.80360058  8.62518676  4.02891544
   5.15228935  0.07161545  3.77293695
   5.08963599  4.51017962  3.81573712
   5.06187912  8.56877608  4.05462073
   3.05351028  0.07727610  7.05114194
  11.40083664  8.53606996  6.98901545
  11.10936029 10.66891126  1.56035686
   2.97581042  2.14749948  1.61697308
  11.30960519  2.20268075  1.46807139
   9.21750732  4.39858465  3.88893096
   0.64725108  2.13862753  9.50090576
   0.82807517  6.40961265  9.65899718
   0.95025994 10.66014482  9.63456571
   5.09122002  2.36804811  9.55933955
   4.88351852  6.29461721  9.60277361
   4.95142666 10.51618946  9.64816529
   9.09695875  2.28067754  9.51619879
   9.23073407  6.47466683  9.57132055
   8.95513793 10.44123526  9.59245140
   2.92162200  6.58679160  1.54932611
   2.98479671 10.57726296  1.53091401
   6.99622962  2.24640075  1.54070594
   6.97436301  6.53210740  1.31698284
   7.27475182 10.67131430  1.57107616
  11.24820698  6.11942868  1.64809615
   9.04692589  8.32440231  3.90212888
 


--------------------------------------------------------------------------------------------------------


 k-point   1 :   0.0000 0.0000 0.0000  plane waves:   46277
 k-point   2 :   0.5000 0.0000 0.0000  plane waves:   46314
 k-point   3 :   0.0000 0.5000 0.0000  plane waves:   46278
 k-point   4 :   0.5000 0.5000 0.0000  plane waves:   46388
 k-point   5 :   0.0000 0.0000 0.5000  plane waves:   46294
 k-point   6 :   0.5000 0.0000 0.5000  plane waves:   46256
 k-point   7 :   0.0000 0.5000 0.5000  plane waves:   46276
 k-point   8 :   0.5000 0.5000 0.5000  plane waves:   46280

 maximum and minimum number of plane-waves per node :      5860     5714

 maximum number of plane-waves:     46388
 maximum index in each direction: 
   IXMAX=   23   IYMAX=   23   IZMAX=   20
   IXMIN=  -23   IYMIN=  -23   IZMIN=  -21


 parallel 3D FFT for wavefunctions:
    minimum data exchange during FFTs selected (reduces bandwidth)
 parallel 3D FFT for charge:
    minimum data exchange during FFTs selected (reduces bandwidth)


 total amount of memory used by VASP MPI-rank0   110764. kBytes
=======================================================================

   base      :      30000. kBytes
   nonl-proj :      16355. kBytes
   fftplans  :       6179. kBytes
   grid      :      15593. kBytes
   one-center:        146. kBytes
   wavefun   :      42491. kBytes
 
     INWAV:  cpu time      0.0000: real time      0.0001
 Broyden mixing: mesh for mixing (old mesh)
   NGX = 47   NGY = 47   NGZ = 41
  (NGX  =192   NGY  =192   NGZ  =168)
  gives a total of  90569 points

 initial charge density was supplied:
 charge density of overlapping atoms calculated
 number of electron     360.0000000 magnetization      72.0000000
 keeping initial charge density in first step


--------------------------------------------------------------------------------------------------------


 Maximum index for augmentation-charges           612 (set IRDMAX)


--------------------------------------------------------------------------------------------------------


 First call to EWALD:  gamma=   0.148
 Maximum number of real-space cells 3x 3x 3
 Maximum number of reciprocal cells 3x 3x 3

    FEWALD:  cpu time      0.0049: real time      0.0049


--------------------------------------- Ionic step        1  -------------------------------------------




--------------------------------------- Iteration      1(   1)  ---------------------------------------


    POTLOK:  cpu time      0.1399: real time      0.1410
    SETDIJ:  cpu time      0.5937: real time      0.5957
     EDDAV:  cpu time      8.5953: real time      8.6423
       DOS:  cpu time      0.0021: real time      0.0022
    --------------------------------------------
      LOOP:  cpu time      9.3311: real time      9.3811

 eigenvalue-minimisations  :  7168
 total energy-change (2. order) : 0.1817679E+04  (-0.1420117E+05)
 number of electron     360.0000000 magnetization      72.0000000
 augmentation part      360.0000000 magnetization      72.0000000

 Free energy of the ion-electron system (eV)
  ---------------------------------------------------
  alpha Z        PSCENC =       798.33351417
  Ewald energy   TEWEN  =    -12869.93302389
  -Hartree energ DENC   =     -1111.69393914
  -exchange      EXHF   =         0.00000000
  -V(xc)+E(xc)   XCENC  =      -293.48820536
  PAW double counting   =     10738.42099860    -9719.93139476
  entropy T*S    EENTRO =        -0.01966683
  eigenvalues    EBANDS =      1239.53907394
  atomic energy  EATOM  =     13036.45147835
  Solvation  Ediel_sol  =         0.00000000
  ---------------------------------------------------
  free energy    TOTEN  =      1817.67883509 eV

  energy without entropy =     1817.69850191  energy(sigma->0) =     1817.68866850


--------------------------------------------------------------------------------------------------------




--------------------------------------- Iteration      1(   2)  ---------------------------------------


     EDDAV:  cpu time      9.7581: real time      9.8140
       DOS:  cpu time      0.0013: real time      0.0013
    --------------------------------------------
      LOOP:  cpu time      9.7594: real time      9.8152

 eigenvalue-minimisations  :  8472
 total energy-change (2. order) :-0.1880900E+04  (-0.1806101E+04)
 number of electron     360.0000000 magnetization      72.0000000
 augmentation part      360.0000000 magnetization      72.0000000

 Free energy of the ion-electron system (eV)
  ---------------------------------------------------
  alpha Z        PSCENC =       798.33351417
  Ewald energy   TEWEN  =    -12869.93302389
  -Hartree energ DENC   =     -1111.69393914
  -exchange      EXHF   =         0.00000000
  -V(xc)+E(xc)   XCENC  =      -293.48820536
  PAW double counting   =     10738.42099860    -9719.93139476
  entropy T*S    EENTRO =        -0.01861560
  eigenvalues    EBANDS =      -641.36151549
  atomic energy  EATOM  =     13036.45147835
  Solvation  Ediel_sol  =         0.00000000
  ---------------------------------------------------
  free energy    TOTEN  =       -63.22070311 eV

  energy without entropy =      -63.20208752  energy(sigma->0) =      -63.21139531


--------------------------------------------------------------------------------------------------------




--------------------------------------- Iteration      1(   3)  ---------------------------------------


     EDDAV:  cpu time      9.8610: real time      9.9180
       DOS:  cpu time      0.0012: real time      0.0012
    --------------------------------------------
      LOOP:  cpu time      9.8621: real time      9.9191

 eigenvalue-minimisations  :  8584
 total energy-change (2. order) :-0.2183331E+03  (-0.2121190E+03)
 number of electron     360.0000000 magnetization      72.0000000
 augmentation part      360.0000000 magnetization      72.0000000

 Free energy of the ion-electron system (eV)
  ---------------------------------------------------
  alpha Z        PSCENC =       798.33351417
  Ewald energy   TEWEN  =    -12869.93302389
  -Hartree energ DENC   =     -1111.69393914
  -exchange      EXHF   =         0.00000000
  -V(xc)+E(xc)   XCENC  =      -293.48820536
  PAW double counting   =     10738.42099860    -9719.93139476
  entropy T*S    EENTRO =        -0.00001486
  eigenvalues    EBANDS =      -859.71318546
  atomic energy  EATOM  =     13036.45147835
  Solvation  Ediel_sol  =         0.00000000
  ---------------------------------------------------
  free energy    TOTEN  =      -281.55377235 eV

  energy without entropy =     -281.55375749  energy(sigma->0) =     -281.55376492


--------------------------------------------------------------------------------------------------------




--------------------------------------- Iteration      1(   4)  ---------------------------------------


     EDDAV:  cpu time      9.9690: real time     10.0242
       DOS:  cpu time      0.0011: real time      0.0011
    --------------------------------------------
      LOOP:  cpu time      9.9702: real time     10.0253

 eigenvalue-minimisations  :  8768
 total energy-change (2. order) :-0.8056659E+01  (-0.7966660E+01)
 number of electron     360.0000000 magnetization      72.0000000
 augmentation part      360.0000000 magnetization      72.0000000

 Free energy of the ion-electron system (eV)
  ---------------------------------------------------
  alpha Z        PSCENC =       798.33351417
  Ewald energy   TEWEN  =    -12869.93302389
  -Hartree energ DENC   =     -1111.69393914
  -exchange      EXHF   =         0.00000000
  -V(xc)+E(xc)   XCENC  =      -293.48820536
  PAW double counting   =     10738.42099860    -9719.93139476
  entropy T*S    EENTRO =        -0.00001083
  eigenvalues    EBANDS =      -867.76984864
  atomic energy  EATOM  =     13036.45147835
  Solvation  Ediel_sol  =         0.00000000
  ---------------------------------------------------
  free energy    TOTEN  =      -289.61043150 eV

  energy without entropy =     -289.61042067  energy(sigma->0) =     -289.61042609


--------------------------------------------------------------------------------------------------------




--------------------------------------- Iteration      1(   5)  ---------------------------------------


     EDDAV:  cpu time     10.4103: real time     10.4678
       DOS:  cpu time      0.0013: real time      0.0013
    CHARGE:  cpu time      0.4171: real time      0.4188
    MIXING:  cpu time      0.0072: real time      0.0077
    --------------------------------------------
      LOOP:  cpu time     10.8359: real time     10.8956

 eigenvalue-minimisations  :  9112
 total energy-change (2. order) :-0.2880653E+00  (-0.2872602E+00)
 number of electron     359.9999996 magnetization      48.8037536
 augmentation part      -66.8800174 magnetization      49.0168953

 Broyden mixing:
  rms(total) = 0.29237E+01    rms(broyden)= 0.29237E+01
  rms(prec ) = 0.30756E+01
  weight for this iteration     100.00

 Free energy of the ion-electron system (eV)
  ---------------------------------------------------
  alpha Z        PSCENC =       798.33351417
  Ewald energy   TEWEN  =    -12869.93302389
  -Hartree energ DENC   =     -1111.69393914
  -exchange      EXHF   =         0.00000000
  -V(xc)+E(xc)   XCENC  =      -293.48820536
  PAW double counting   =     10738.42099860    -9719.93139476
  entropy T*S    EENTRO =        -0.00001015
  eigenvalues    EBANDS =      -868.05791461
  atomic energy  EATOM  =     13036.45147835
  Solvation  Ediel_sol  =         0.00000000
  ---------------------------------------------------
  free energy    TOTEN  =      -289.89849679 eV

  energy without entropy =     -289.89848664  energy(sigma->0) =     -289.89849171


--------------------------------------------------------------------------------------------------------




--------------------------------------- Iteration      1(   6)  ---------------------------------------


    POTLOK:  cpu time      0.1355: real time      0.1372
    SETDIJ:  cpu time      0.6008: real time      0.6034
     EDDAV:  cpu time      9.2041: real time      9.2553
       DOS:  cpu time      0.0011: real time      0.0011
    CHARGE:  cpu time      0.4222: real time      0.4240
    MIXING:  cpu time      0.0074: real time      0.0074
    --------------------------------------------
      LOOP:  cpu time     10.3711: real time     10.4283

 eigenvalue-minimisations  :  7912
 total energy-change (2. order) : 0.4053362E+00  (-0.2660821E+01)
 number of electron     359.9999996 magnetization      27.8186342
 augmentation part      -66.2735716 magnetization      29.0028451

 Broyden mixing:
  rms(total) = 0.17349E+01    rms(broyden)= 0.17349E+01
  rms(prec ) = 0.17708E+01
  weight for this iteration     100.00

 eigenvalues of (default mixing * dielectric matrix)
  average eigenvalue GAMMA=   1.0115
  1.0115

 Free energy of the ion-electron system (eV)
  ---------------------------------------------------
  alpha Z        PSCENC =       798.33351417
  Ewald energy   TEWEN  =    -12869.93302389
  -Hartree energ DENC   =     -1164.53349729
  -exchange      EXHF   =         0.00000000
  -V(xc)+E(xc)   XCENC  =      -287.04315266
  PAW double counting   =     13026.05056544   -12011.04791873
  entropy T*S    EENTRO =        -0.00000491
  eigenvalues    EBANDS =      -817.77112103
  atomic energy  EATOM  =     13036.45147835
  Solvation  Ediel_sol  =         0.00000000
  ---------------------------------------------------
  free energy    TOTEN  =      -289.49316057 eV

  energy without entropy =     -289.49315565  energy(sigma->0) =     -289.49315811


--------------------------------------------------------------------------------------------------------




--------------------------------------- Iteration      1(   7)  ---------------------------------------


    POTLOK:  cpu time      0.1314: real time      0.1324
    SETDIJ:  cpu time      0.6016: real time      0.6039
     EDDAV:  cpu time      9.3654: real time      9.4191
       DOS:  cpu time      0.0010: real time      0.0010
    CHARGE:  cpu time      0.4190: real time      0.4208
    MIXING:  cpu time      0.0080: real time      0.0080
    --------------------------------------------
      LOOP:  cpu time     10.5264: real time     10.5852

 eigenvalue-minimisations  :  8040
 total energy-change (2. order) :-0.7477252E+01  (-0.8669705E+00)
 number of electron     359.9999996 magnetization       9.2026528
 augmentation part      -66.2510089 magnetization       9.8802785

 Broyden mixing:
  rms(total) = 0.90874E+00    rms(broyden)= 0.90874E+00
  rms(prec ) = 0.92439E+00
  weight for this iteration     100.00

 eigenvalues of (default mixing * dielectric matrix)
  average eigenvalue GAMMA=   1.4510
  0.8632  2.0388

 Free energy of the ion-electron system (eV)
  ---------------------------------------------------
  alpha Z        PSCENC =       798.33351417
  Ewald energy   TEWEN  =    -12869.93302389
  -Hartree energ DENC   =     -1181.67246844
  -exchange      EXHF   =         0.00000000
  -V(xc)+E(xc)   XCENC  =      -289.96413707
  PAW double counting   =     15135.58931488   -14122.20172367
  entropy T*S    EENTRO =        -0.00000000
  eigenvalues    EBANDS =      -803.57336700
  atomic energy  EATOM  =     13036.45147835
  Solvation  Ediel_sol  =         0.00000000
  ---------------------------------------------------
  free energy    TOTEN  =      -296.97041266 eV

  energy without entropy =     -296.97041266  energy(sigma->0) =     -296.97041266


--------------------------------------------------------------------------------------------------------




--------------------------------------- Iteration      1(   8)  ---------------------------------------


    POTLOK:  cpu time      0.1334: real time      0.1342
    SETDIJ:  cpu time      0.5961: real time      0.5986
     EDDAV:  cpu time      9.4784: real time      9.5292
       DOS:  cpu time      0.0012: real time      0.0012
    CHARGE:  cpu time      0.4190: real time      0.4210
    MIXING:  cpu time      0.0077: real time      0.0077
    --------------------------------------------
      LOOP:  cpu time     10.6359: real time     10.6919

 eigenvalue-minimisations  :  8160
 total energy-change (2. order) :-0.3201795E+01  (-0.1734964E+00)
 number of electron     359.9999996 magnetization       4.4326702
 augmentation part      -66.2603592 magnetization       4.7423802

 Broyden mixing:
  rms(total) = 0.33450E+00    rms(broyden)= 0.33450E+00
  rms(prec ) = 0.33979E+00
  weight for this iteration     100.00

 eigenvalues of (default mixing * dielectric matrix)
  average eigenvalue GAMMA=   1.3557
  2.4946  0.9245  0.6479

 Free energy of the ion-electron system (eV)
  ---------------------------------------------------
  alpha Z        PSCENC =       798.33351417
  Ewald energy   TEWEN  =    -12869.93302389
  -Hartree energ DENC   =     -1186.10786471
  -exchange      EXHF   =         0.00000000
  -V(xc)+E(xc)   XCENC  =      -289.70949573
  PAW double counting   =     16901.95986648   -15889.49429902
  entropy T*S    EENTRO =        -0.00000000
  eigenvalues    EBANDS =      -801.67238357
  atomic energy  EATOM  =     13036.45147835
  Solvation  Ediel_sol  =         0.00000000
  ---------------------------------------------------
  free energy    TOTEN  =      -300.17220791 eV

  energy without entropy =     -300.17220791  energy(sigma->0) =     -300.17220791


--------------------------------------------------------------------------------------------------------




--------------------------------------- Iteration      1(   9)  ---------------------------------------


    POTLOK:  cpu time      0.1306: real time      0.1314
    SETDIJ:  cpu time      0.5992: real time      0.6015
     EDDAV:  cpu time     10.2152: real time     10.2740
       DOS:  cpu time      0.0009: real time      0.0010
    CHARGE:  cpu time      0.4230: real time      0.4248
    MIXING:  cpu time      0.0093: real time      0.0094
    --------------------------------------------
      LOOP:  cpu time     11.3783: real time     11.4420

 eigenvalue-minimisations  :  9064
 total energy-change (2. order) :-0.3697050E+00  (-0.4199011E-01)
 number of electron     359.9999996 magnetization       2.2984530
 augmentation part      -66.2997573 magnetization       2.4535306

 Broyden mixing:
  rms(total) = 0.14806E+00    rms(broyden)= 0.14806E+00
  rms(prec ) = 0.14965E+00
  weight for this iteration     100.00

 eigenvalues of (default mixing * dielectric matrix)
  average eigenvalue GAMMA=   1.3281
  2.6303  1.2321  0.8322  0.6176

 Free energy of the ion-electron system (eV)
  ---------------------------------------------------
  alpha Z        PSCENC =       798.33351417
  Ewald energy   TEWEN  =    -12869.93302389
  -Hartree energ DENC   =     -1185.03810625
  -exchange      EXHF   =         0.00000000
  -V(xc)+E(xc)   XCENC  =      -289.75690741
  PAW double counting   =     17185.04990708   -16172.92273116
  entropy T*S    EENTRO =        -0.00000000
  eigenvalues    EBANDS =      -802.72604384
  atomic energy  EATOM  =     13036.45147835
  Solvation  Ediel_sol  =         0.00000000
  ---------------------------------------------------
  free energy    TOTEN  =      -300.54191294 eV

  energy without entropy =     -300.54191294  energy(sigma->0) =     -300.54191294


--------------------------------------------------------------------------------------------------------




--------------------------------------- Iteration      1(  10)  ---------------------------------------


    POTLOK:  cpu time      0.1311: real time      0.1319
    SETDIJ:  cpu time      0.5979: real time      0.6005
     EDDAV:  cpu time      9.5491: real time      9.6023
       DOS:  cpu time      0.0011: real time      0.0011
    CHARGE:  cpu time      0.4176: real time      0.4220
    MIXING:  cpu time      0.0076: real time      0.0076
    --------------------------------------------
      LOOP:  cpu time     10.7045: real time     10.7654

 eigenvalue-minimisations  :  8216
 total energy-change (2. order) :-0.1098085E+00  (-0.9735612E-02)
 number of electron     359.9999996 magnetization       0.7454410
 augmentation part      -66.3026579 magnetization       0.8141112

 Broyden mixing:
  rms(total) = 0.72989E-01    rms(broyden)= 0.72989E-01
  rms(prec ) = 0.74053E-01
  weight for this iteration     100.00

 eigenvalues of (default mixing * dielectric matrix)
  average eigenvalue GAMMA=   1.3730
  2.7013  1.7514  0.9678  0.8192  0.6253

 Free energy of the ion-electron system (eV)
  ---------------------------------------------------
  alpha Z        PSCENC =       798.33351417
  Ewald energy   TEWEN  =    -12869.93302389
  -Hartree energ DENC   =     -1185.17519947
  -exchange      EXHF   =         0.00000000
  -V(xc)+E(xc)   XCENC  =      -289.75705411
  PAW double counting   =     17195.05406900   -16182.93619388
  entropy T*S    EENTRO =        -0.00000000
  eigenvalues    EBANDS =      -802.68931162
  atomic energy  EATOM  =     13036.45147835
  Solvation  Ediel_sol  =         0.00000000
  ---------------------------------------------------
  free energy    TOTEN  =      -300.65172145 eV

  energy without entropy =     -300.65172145  energy(sigma->0) =     -300.65172145


--------------------------------------------------------------------------------------------------------




--------------------------------------- Iteration      1(  11)  ---------------------------------------


    POTLOK:  cpu time      0.1346: real time      0.1354
    SETDIJ:  cpu time      0.5952: real time      0.5977
     EDDAV:  cpu time     10.0462: real time     10.1087
       DOS:  cpu time      0.0009: real time      0.0009
    CHARGE:  cpu time      0.4179: real time      0.4196
    MIXING:  cpu time      0.0081: real time      0.0081
    --------------------------------------------
      LOOP:  cpu time     11.2029: real time     11.2704

 eigenvalue-minimisations  :  8848
 total energy-change (2. order) :-0.3180067E-01  (-0.3607957E-02)
 number of electron     359.9999996 magnetization       0.1676668
 augmentation part      -66.2883174 magnetization       0.1873021

 Broyden mixing:
  rms(total) = 0.28694E-01    rms(broyden)= 0.28694E-01
  rms(prec ) = 0.29107E-01
  weight for this iteration     100.00

 eigenvalues of (default mixing * dielectric matrix)
  average eigenvalue GAMMA=   1.4090
  2.9157  2.1841  1.1753  0.8580  0.6959  0.6249

 Free energy of the ion-electron system (eV)
  ---------------------------------------------------
  alpha Z        PSCENC =       798.33351417
  Ewald energy   TEWEN  =    -12869.93302389
  -Hartree energ DENC   =     -1186.28712561
  -exchange      EXHF   =         0.00000000
  -V(xc)+E(xc)   XCENC  =      -289.71460514
  PAW double counting   =     17119.66671182   -16107.52269021
  entropy T*S    EENTRO =        -0.00000000
  eigenvalues    EBANDS =      -801.67778163
  atomic energy  EATOM  =     13036.45147835
  Solvation  Ediel_sol  =         0.00000000
  ---------------------------------------------------
  free energy    TOTEN  =      -300.68352212 eV

  energy without entropy =     -300.68352212  energy(sigma->0) =     -300.68352212


--------------------------------------------------------------------------------------------------------




--------------------------------------- Iteration      1(  12)  ---------------------------------------


    POTLOK:  cpu time      0.1365: real time      0.1388
    SETDIJ:  cpu time      0.5997: real time      0.6015
     EDDAV:  cpu time      9.9412: real time     10.0056
       DOS:  cpu time      0.0009: real time      0.0009
    CHARGE:  cpu time      0.4177: real time      0.4191
    MIXING:  cpu time      0.0078: real time      0.0078
    --------------------------------------------
      LOOP:  cpu time     11.1037: real time     11.1737

 eigenvalue-minimisations  :  8672
 total energy-change (2. order) :-0.3403870E-02  (-0.4743862E-03)
 number of electron     359.9999996 magnetization       0.0501167
 augmentation part      -66.2874736 magnetization       0.0542731

 Broyden mixing:
  rms(total) = 0.10021E-01    rms(broyden)= 0.10021E-01
  rms(prec ) = 0.10639E-01
  weight for this iteration     100.00

 eigenvalues of (default mixing * dielectric matrix)
  average eigenvalue GAMMA=   1.3729
  3.0234  2.3464  1.2116  0.8823  0.8823  0.6092  0.6550

 Free energy of the ion-electron system (eV)
  ---------------------------------------------------
  alpha Z        PSCENC =       798.33351417
  Ewald energy   TEWEN  =    -12869.93302389
  -Hartree energ DENC   =     -1186.41223884
  -exchange      EXHF   =         0.00000000
  -V(xc)+E(xc)   XCENC  =      -289.71572995
  PAW double counting   =     17082.48173054   -16070.31484755
  entropy T*S    EENTRO =        -0.00000000
  eigenvalues    EBANDS =      -801.57780883
  atomic energy  EATOM  =     13036.45147835
  Solvation  Ediel_sol  =         0.00000000
  ---------------------------------------------------
  free energy    TOTEN  =      -300.68692599 eV

  energy without entropy =     -300.68692599  energy(sigma->0) =     -300.68692599


--------------------------------------------------------------------------------------------------------




--------------------------------------- Iteration      1(  13)  ---------------------------------------


    POTLOK:  cpu time      0.1308: real time      0.1317
    SETDIJ:  cpu time      0.5995: real time      0.6012
     EDDAV:  cpu time     10.9395: real time     10.9996
       DOS:  cpu time      0.0008: real time      0.0008
    CHARGE:  cpu time      0.4148: real time      0.4165
    MIXING:  cpu time      0.0079: real time      0.0079
    --------------------------------------------
      LOOP:  cpu time     12.0933: real time     12.1578

 eigenvalue-minimisations  :  9824
 total energy-change (2. order) :-0.1038208E-03  (-0.5710865E-04)
 number of electron     359.9999996 magnetization       0.0130745
 augmentation part      -66.2889072 magnetization       0.0136881

 Broyden mixing:
  rms(total) = 0.38905E-02    rms(broyden)= 0.38905E-02
  rms(prec ) = 0.41042E-02
  weight for this iteration     100.00

 eigenvalues of (default mixing * dielectric matrix)
  average eigenvalue GAMMA=   1.3443
  3.0653  2.4334  1.1404  1.0040  1.0040  0.8490  0.6494  0.6085

 Free energy of the ion-electron system (eV)
  ---------------------------------------------------
  alpha Z        PSCENC =       798.33351417
  Ewald energy   TEWEN  =    -12869.93302389
  -Hartree energ DENC   =     -1186.31144324
  -exchange      EXHF   =         0.00000000
  -V(xc)+E(xc)   XCENC  =      -289.72616026
  PAW double counting   =     17068.67728710   -16056.49924238
  entropy T*S    EENTRO =        -0.00000000
  eigenvalues    EBANDS =      -801.67943967
  atomic energy  EATOM  =     13036.45147835
  Solvation  Ediel_sol  =         0.00000000
  ---------------------------------------------------
  free energy    TOTEN  =      -300.68702981 eV

  energy without entropy =     -300.68702981  energy(sigma->0) =     -300.68702981


--------------------------------------------------------------------------------------------------------




--------------------------------------- Iteration      1(  14)  ---------------------------------------


    POTLOK:  cpu time      0.1300: real time      0.1307
    SETDIJ:  cpu time      0.6004: real time      0.6020
     EDDAV:  cpu time      9.5811: real time      9.6284
       DOS:  cpu time      0.0010: real time      0.0010
    CHARGE:  cpu time      0.4188: real time      0.4203
    MIXING:  cpu time      0.0093: real time      0.0093
    --------------------------------------------
      LOOP:  cpu time     10.7405: real time     10.7917

 eigenvalue-minimisations  :  8240
 total energy-change (2. order) :-0.1301037E-04  (-0.8248877E-05)
 number of electron     359.9999996 magnetization       0.0044664
 augmentation part      -66.2886316 magnetization       0.0047414

 Broyden mixing:
  rms(total) = 0.15459E-02    rms(broyden)= 0.15459E-02
  rms(prec ) = 0.16622E-02
  weight for this iteration     100.00

 eigenvalues of (default mixing * dielectric matrix)
  average eigenvalue GAMMA=   1.3288
  3.0851  2.4633  1.4245  1.1948  0.8798  0.8798  0.7798  0.6110  0.6410

 Free energy of the ion-electron system (eV)
  ---------------------------------------------------
  alpha Z        PSCENC =       798.33351417
  Ewald energy   TEWEN  =    -12869.93302389
  -Hartree energ DENC   =     -1186.31041823
  -exchange      EXHF   =         0.00000000
  -V(xc)+E(xc)   XCENC  =      -289.72694867
  PAW double counting   =     17064.78430071   -16052.60359015
  entropy T*S    EENTRO =        -0.00000000
  eigenvalues    EBANDS =      -801.68235512
  atomic energy  EATOM  =     13036.45147835
  Solvation  Ediel_sol  =         0.00000000
  ---------------------------------------------------
  free energy    TOTEN  =      -300.68704282 eV

  energy without entropy =     -300.68704282  energy(sigma->0) =     -300.68704282


--------------------------------------------------------------------------------------------------------




--------------------------------------- Iteration      1(  15)  ---------------------------------------


    POTLOK:  cpu time      0.1321: real time      0.1327
    SETDIJ:  cpu time      0.6009: real time      0.6027
     EDDAV:  cpu time     10.0173: real time     10.0664
       DOS:  cpu time      0.0008: real time      0.0008
    CHARGE:  cpu time      0.4200: real time      0.4218
    MIXING:  cpu time      0.0097: real time      0.0097
    --------------------------------------------
      LOOP:  cpu time     11.1807: real time     11.2341

 eigenvalue-minimisations  :  8760
 total energy-change (2. order) :-0.2567528E-05  (-0.1397053E-05)
 number of electron     359.9999996 magnetization       0.0016292
 augmentation part      -66.2887768 magnetization       0.0018164

 Broyden mixing:
  rms(total) = 0.74107E-03    rms(broyden)= 0.74106E-03
  rms(prec ) = 0.79006E-03
  weight for this iteration     100.00

 eigenvalues of (default mixing * dielectric matrix)
  average eigenvalue GAMMA=   1.2977
  3.0937  2.4404  1.6554  1.1135  0.9518  0.9518  0.8159  0.7140  0.6204  0.6204

 Free energy of the ion-electron system (eV)
  ---------------------------------------------------
  alpha Z        PSCENC =       798.33351417
  Ewald energy   TEWEN  =    -12869.93302389
  -Hartree energ DENC   =     -1186.29723966
  -exchange      EXHF   =         0.00000000
  -V(xc)+E(xc)   XCENC  =      -289.72740302
  PAW double counting   =     17064.37776375   -16052.19629143
  entropy T*S    EENTRO =        -0.00000000
  eigenvalues    EBANDS =      -801.69584367
  atomic energy  EATOM  =     13036.45147835
  Solvation  Ediel_sol  =         0.00000000
  ---------------------------------------------------
  free energy    TOTEN  =      -300.68704539 eV

  energy without entropy =     -300.68704539  energy(sigma->0) =     -300.68704539


--------------------------------------------------------------------------------------------------------




--------------------------------------- Iteration      1(  16)  ---------------------------------------


    POTLOK:  cpu time      0.1302: real time      0.1309
    SETDIJ:  cpu time      0.6018: real time      0.6035
     EDDAV:  cpu time      6.5720: real time      6.6065
       DOS:  cpu time      0.0009: real time      0.0009
    --------------------------------------------
      LOOP:  cpu time      7.3048: real time      7.3417

 eigenvalue-minimisations  :  4800
 total energy-change (2. order) :-0.7598560E-06  (-0.1367270E-06)
 number of electron     359.9999996 magnetization       0.0016292
 augmentation part      -66.2887768 magnetization       0.0018164

 Free energy of the ion-electron system (eV)
  ---------------------------------------------------
  alpha Z        PSCENC =       798.33351417
  Ewald energy   TEWEN  =    -12869.93302389
  -Hartree energ DENC   =     -1186.29122053
  -exchange      EXHF   =         0.00000000
  -V(xc)+E(xc)   XCENC  =      -289.72762988
  PAW double counting   =     17064.37272855   -16052.19101780
  entropy T*S    EENTRO =        -0.00000000
  eigenvalues    EBANDS =      -801.70187513
  atomic energy  EATOM  =     13036.45147835
  Solvation  Ediel_sol  =         0.00000000
  ---------------------------------------------------
  free energy    TOTEN  =      -300.68704615 eV

  energy without entropy =     -300.68704615  energy(sigma->0) =     -300.68704615


--------------------------------------------------------------------------------------------------------




 average (electrostatic) potential at core
  the test charge radii are     1.1631  1.0808
  (the norm of the test charge is              1.0000)
       1 -33.3894       2 -33.3832       3 -33.4625       4 -33.4795       5 -33.4850
       6 -33.6554       7 -33.6305       8 -33.5079       9 -33.5784      10 -33.5458
      11 -33.3967      12 -33.3578      13 -33.3869      14 -33.4277      15 -33.4636
      16 -33.2057      17 -33.4439      18 -33.5114      19 -33.4447      20 -33.3095
      21 -33.3723      22 -33.4040      23 -33.3944      24 -33.4231      25 -33.4211
      26 -33.4121      27 -33.3873      28 -33.4056      29 -33.6967      30 -33.4369
      31 -33.4156      32 -33.6909      33 -33.4261      34 -33.4956      35 -33.2810
      36 -33.3105      37 -54.7999      38 -55.1343      39 -54.8021      40 -54.7988
      41 -54.8101      42 -55.0156      43 -55.1053      44 -54.5873      45 -54.9010
      46 -54.7745      47 -54.9414      48 -54.7415      49 -54.8156      50 -54.9911
      51 -54.7300      52 -54.8009      53 -54.6021      54 -54.8372      55 -54.7643
      56 -54.6363      57 -54.9356      58 -55.0163      59 -54.7066      60 -54.8917
      61 -54.9296      62 -54.8745      63 -54.8536      64 -54.8055      65 -54.8203
      66 -54.4656      67 -54.9176      68 -54.7369      69 -54.9355      70 -54.9637
      71 -54.8329      72 -54.7474
 
 
 
 E-fermi :   3.5838     XC(G=0):  -9.3816     alpha+bet : -8.8369

 Fermi energy:         3.5838151579

 spin component 1

 k-point     1 :       0.0000    0.0000    0.0000
  band No.  band energies     occupation 
      1     -10.9066      1.00000
      2     -10.5956      1.00000
      3     -10.4507      1.00000
      4     -10.3006      1.00000
      5     -10.2800      1.00000
      6     -10.2390      1.00000
      7     -10.1727      1.00000
      8     -10.0903      1.00000
      9      -9.9844      1.00000
     10      -9.9792      1.00000
     11      -9.9052      1.00000
     12      -9.8445      1.00000
     13      -9.8057      1.00000
     14      -9.7202      1.00000
     15      -9.7149      1.00000
     16      -9.6485      1.00000
     17      -9.6197      1.00000
     18      -9.5872      1.00000
     19      -9.5545      1.00000
     20      -9.5000      1.00000
     21      -9.4672      1.00000
     22      -9.4424      1.00000
     23      -9.3927      1.00000
     24      -9.3038      1.00000
     25      -9.2796      1.00000
     26      -9.2475      1.00000
     27      -9.2319      1.00000
     28      -9.1918      1.00000
     29      -9.1647      1.00000
     30      -9.1410      1.00000
     31      -9.0635      1.00000
     32      -9.0333      1.00000
     33      -8.9950      1.00000
     34      -8.9329      1.00000
     35      -8.8869      1.00000
     36      -8.8167      1.00000
     37      -5.3438      1.00000
     38      -5.3324      1.00000
     39      -5.2601      1.00000
     40      -5.1933      1.00000
     41      -5.0641      1.00000
     42      -5.0463      1.00000
     43      -4.9858      1.00000
     44      -4.9163      1.00000
     45      -4.7734      1.00000
     46      -4.7175      1.00000
     47      -4.5336      1.00000
     48      -4.4844      1.00000
     49      -4.4521      1.00000
     50      -4.4437      1.00000
     51      -4.4183      1.00000
     52      -4.3735      1.00000
     53      -4.3419      1.00000
     54      -4.3359      1.00000
     55      -4.3071      1.00000
     56      -4.2676      1.00000
     57      -4.2273      1.00000
     58      -4.2169      1.00000
     59      -4.2083      1.00000
     60      -4.1721      1.00000
     61      -4.1193      1.00000
     62      -4.0145      1.00000
     63      -3.9784      1.00000
     64      -3.9253      1.00000
     65      -3.8842      1.00000
     66      -3.8129      1.00000
     67      -3.6959      1.00000
     68      -3.6598      1.00000
     69      -3.5374      1.00000
     70      -3.4826      1.00000
     71      -2.5464      1.00000
     72      -2.3636      1.00000
     73      -1.7963      1.00000
     74      -1.6478      1.00000
     75      -1.5738      1.00000
     76      -1.5181      1.00000
     77      -1.4319      1.00000
     78      -1.3861      1.00000
     79      -1.3328      1.00000
     80      -1.3080      1.00000
     81      -1.2692      1.00000
     82      -1.2129      1.00000
     83      -1.1204      1.00000
     84      -1.0303      1.00000
     85      -0.9933      1.00000
     86      -0.8771      1.00000
     87      -0.8227      1.00000
     88      -0.7781      1.00000
     89      -0.7108      1.00000
     90      -0.6481      1.00000
     91      -0.5630      1.00000
     92      -0.4853      1.00000
     93      -0.4154      1.00000
     94      -0.3134      1.00000
     95      -0.2055      1.00000
     96      -0.1904      1.00000
     97      -0.1200      1.00000
     98      -0.0517      1.00000
     99       0.0119      1.00000
    100       0.0720      1.00000
    101       0.1022      1.00000
    102       0.1513      1.00000
    103       0.2395      1.00000
    104       0.2442      1.00000
    105       0.2511      1.00000
    106       0.2739      1.00000
    107       0.3275      1.00000
    108       0.3690      1.00000
    109       0.4378      1.00000
    110       0.4688      1.00000
    111       0.4790      1.00000
    112       0.5208      1.00000
    113       0.5685      1.00000
    114       0.6140      1.00000
    115       0.6423      1.00000
    116       0.6603      1.00000
    117       0.6930      1.00000
    118       0.6998      1.00000
    119       0.7297      1.00000
    120       0.7909      1.00000
    121       0.8296      1.00000
    122       0.8666      1.00000
    123       0.9394      1.00000
    124       0.9497      1.00000
    125       1.0059      1.00000
    126       1.0678      1.00000
    127       1.0713      1.00000
    128       1.0837      1.00000
    129       1.1115      1.00000
    130       1.1201      1.00000
    131       1.1695      1.00000
    132       1.2403      1.00000
    133       1.2695      1.00000
    134       1.3037      1.00000
    135       1.3312      1.00000
    136       1.3920      1.00000
    137       1.4033      1.00000
    138       1.4217      1.00000
    139       1.4423      1.00000
    140       1.5364      1.00000
    141       1.5561      1.00000
    142       1.5877      1.00000
    143       1.6159      1.00000
    144       1.6907      1.00000
    145       1.7321      1.00000
    146       1.7679      1.00000
    147       1.8359      1.00000
    148       1.8929      1.00000
    149       1.9159      1.00000
[...]
   -.313E+01 -.929E+01 -.232E+02   0.311E+01 0.124E+02 0.265E+02   -.244E+00 -.272E+01 -.244E+01   0.697E-04 -.972E-05 -.354E-03
   -.185E+02 0.123E+02 0.244E+02   0.190E+02 -.144E+02 -.276E+02   -.114E-01 0.232E+01 0.270E+01   0.127E-03 -.616E-04 -.961E-04
   -.192E+02 -.156E+02 0.266E+02   0.204E+02 0.161E+02 -.284E+02   -.124E+01 0.259E+00 0.176E+01   0.334E-03 0.298E-03 0.221E-03
   -.365E+02 -.929E+01 0.216E+02   0.383E+02 0.100E+02 -.234E+02   -.842E+00 -.447E+00 0.213E+01   0.445E-03 -.581E-04 -.220E-03
   0.350E+01 0.154E+02 0.233E+02   -.365E+01 -.169E+02 -.250E+02   -.102E-01 0.108E+01 0.179E+01   -.267E-04 -.742E-05 0.106E-03
   0.217E+01 -.197E+00 0.221E+02   -.226E+01 -.711E+00 -.239E+02   0.814E-01 0.880E+00 0.253E+01   -.386E-03 0.294E-03 0.200E-03
   0.182E+02 0.332E+02 0.298E+02   -.186E+02 -.349E+02 -.311E+02   -.159E+00 0.115E+01 0.184E+01   -.112E-03 0.713E-05 -.826E-04
   -.138E+02 -.504E+01 0.312E+02   0.149E+02 0.535E+01 -.332E+02   -.130E+01 -.449E+00 0.174E+01   0.142E-04 -.120E-03 0.641E-04
   -.417E+01 0.215E+02 0.307E+02   0.409E+01 -.228E+02 -.330E+02   0.591E+00 0.810E+00 0.222E+01   -.204E-03 -.302E-04 0.363E-03
   -.635E+01 -.166E+02 -.359E+02   0.623E+01 0.173E+02 0.378E+02   0.795E+00 -.437E+00 -.148E+01   0.124E-03 0.147E-03 0.447E-04
   0.515E+01 -.448E+01 -.366E+02   -.504E+01 0.529E+01 0.380E+02   -.211E+00 -.122E+01 -.170E+01   0.168E-03 -.932E-04 -.150E-04
   0.912E-01 -.947E+01 -.239E+02   -.367E+00 0.101E+02 0.257E+02   -.224E-01 -.771E+00 -.165E+01   0.161E-03 -.122E-03 0.202E-03
   0.701E+01 -.461E+01 -.214E+02   -.752E+01 0.508E+01 0.232E+02   0.338E+00 -.583E+00 -.176E+01   -.268E-04 0.184E-03 -.181E-03
   0.617E+00 -.175E+02 -.423E+02   -.364E+00 0.186E+02 0.440E+02   -.471E+00 -.110E+01 -.139E+01   -.281E-03 0.279E-03 0.230E-03
   0.119E+02 -.295E+01 -.397E+02   -.123E+02 0.385E+01 0.413E+02   0.861E-01 -.135E+01 -.144E+01   0.148E-03 -.183E-03 0.373E-03
   0.142E+02 0.516E+00 -.354E+02   -.147E+02 -.137E+00 0.375E+02   0.323E+00 -.404E+00 -.155E+01   0.398E-05 -.134E-03 0.163E-03
   0.847E+01 0.311E+01 0.250E+02   -.880E+01 -.384E+01 -.266E+02   0.312E+00 0.144E+01 0.191E+01   0.311E-04 0.181E-03 0.167E-03
   0.110E+02 0.524E+01 0.244E+02   -.117E+02 -.621E+01 -.264E+02   0.193E+00 0.831E+00 0.225E+01   0.291E-04 -.183E-03 0.319E-03
   -.867E+01 -.138E+01 0.285E+02   0.891E+01 0.210E+01 -.302E+02   0.309E-01 -.104E+01 0.199E+01   0.231E-03 -.255E-03 -.263E-03
   -.884E+01 -.217E+02 0.284E+02   0.966E+01 0.232E+02 -.301E+02   -.934E-01 -.977E+00 0.159E+01   -.704E-04 -.185E-03 -.169E-03
   0.156E+02 -.227E+01 0.230E+02   -.161E+02 0.263E+01 -.248E+02   0.515E+00 -.321E+00 0.201E+01   0.111E-03 -.422E-04 -.306E-03
   0.442E+01 0.115E+02 -.268E+02   -.428E+01 -.112E+02 0.283E+02   -.567E+00 -.777E+00 -.159E+01   -.250E-03 -.682E-05 -.564E-04
   -.190E+02 0.311E+01 -.126E+02   0.200E+02 -.306E+01 0.141E+02   -.553E+00 -.259E+00 -.208E+01   -.753E-04 0.629E-04 -.151E-03
   -.169E+01 0.173E+02 -.276E+02   0.175E+01 -.189E+02 0.296E+02   0.301E+00 0.763E+00 -.252E+01   -.281E-03 -.274E-04 0.160E-04
   0.761E+01 0.118E+02 -.156E+02   -.771E+01 -.129E+02 0.172E+02   0.124E+00 0.104E+01 -.226E+01   -.257E-04 0.105E-03 -.504E-04
   0.442E+01 0.847E+01 -.960E+01   -.441E+01 -.941E+01 0.115E+02   -.562E-01 0.992E+00 -.197E+01   -.231E-04 -.176E-03 -.428E-03
   0.779E-01 0.440E+01 -.104E+02   0.782E+00 -.438E+01 0.122E+02   -.106E+01 -.285E+00 -.196E+01   0.150E-03 -.335E-04 -.110E-03
   0.487E+01 0.949E+01 -.122E+02   -.507E+01 -.107E+02 0.139E+02   0.269E+00 0.113E+01 -.216E+01   -.923E-04 0.195E-03 -.232E-03
   0.430E+01 0.199E+02 -.235E+02   -.442E+01 -.214E+02 0.256E+02   0.761E-01 0.134E+01 -.203E+01   0.201E-03 0.144E-03 -.137E-03
   -.113E+02 0.521E+01 -.277E+02   0.114E+02 -.603E+01 0.297E+02   0.433E-01 0.936E+00 -.192E+01   0.154E-03 -.253E-03 -.264E-03
   -.257E+02 -.101E+02 -.211E+02   0.269E+02 0.104E+02 0.231E+02   -.135E+01 -.240E+00 -.208E+01   0.519E-04 0.204E-04 -.208E-05
   0.113E+02 0.716E+01 0.183E+02   -.118E+02 -.732E+01 -.200E+02   0.614E+00 -.101E+00 0.171E+01   0.431E-04 -.632E-04 -.279E-03
   0.933E+01 -.451E+01 0.240E+02   -.938E+01 0.547E+01 -.260E+02   -.277E+00 -.664E+00 0.197E+01   -.339E-03 0.192E-03 -.152E-03
   -.124E+02 -.125E+02 0.159E+02   0.130E+02 0.134E+02 -.172E+02   -.241E+00 -.813E+00 0.161E+01   -.390E-04 0.326E-03 0.479E-05
   -.400E+01 -.863E+01 0.161E+02   0.426E+01 0.977E+01 -.179E+02   -.609E-02 -.108E+01 0.248E+01   0.879E-05 -.373E-03 -.123E-03
   0.218E+01 -.844E+01 0.286E+02   -.268E+01 0.894E+01 -.304E+02   0.722E-01 -.767E+00 0.151E+01   0.441E-04 -.159E-03 -.277E-03
   -.909E+01 -.233E+02 0.300E+02   0.942E+01 0.251E+02 -.321E+02   -.254E+00 -.994E+00 0.170E+01   -.185E-03 0.976E-04 -.424E-03
   -.188E+02 -.728E+01 -.369E+02   0.192E+02 0.814E+01 0.391E+02   -.308E-01 -.779E+00 -.159E+01   -.734E-05 -.165E-03 -.107E-03
 -----------------------------------------------------------------------------------------------
   -.591E+01 0.111E+01 -.156E+01   0.355E-14 0.639E-13 -.711E-13   0.591E+01 -.111E+01 0.156E+01   0.459E-03 -.464E-03 -.171E-02
 
 
 POSITION                                       TOTAL-FORCE (eV/Angst)
 -----------------------------------------------------------------------------------
      1.10232      0.57902      1.30827        -0.715483     -0.422461      0.334226
      2.93182     11.16742      3.99214         0.244458     -0.201768      0.348193
      6.97990      2.71918      4.14347         0.287217      0.072885     -0.314891
      6.95239      6.72485      3.98535         0.233660     -0.078952     -0.342811
      7.08009     10.65809      4.07463         0.036742      0.535459      0.211255
     11.21645      2.34171      4.02570        -0.147458      0.422063     -0.293716
     11.24590      6.56770      4.11703        -0.310456      0.242136      0.103482
     11.36208     10.97854      4.12464        -0.342478      0.323177     -0.484275
      1.19323      2.26924      6.89884        -0.337987     -1.135343      0.264731
      0.78956      5.96542      7.06363        -0.202290      0.475295      0.015935
      0.96477     10.15865      6.92372         0.217312      0.364839      0.510547
      5.04305      1.84224      7.08182         0.004620     -0.098575     -0.391496
      5.39166      6.28912      7.11731        -0.077626     -0.033357     -0.284441
      5.05531     10.03496      7.01189        -0.189533      0.491755      0.229985
      9.22645      1.82394      7.03355        -0.270975     -0.405095     -0.266002
      9.26527      6.11265      7.08198        -0.101459      0.669600     -0.307099
      2.77110      6.96727      4.08345         0.295857     -0.395275     -0.179470
      3.11335      2.63114      4.11323         0.071628      0.234405     -0.109217
      9.21725     10.36007      7.08599         0.355642     -0.099046     -0.055764
     11.43443      8.09544      9.50496        -0.643332      0.700432      0.220389
     11.45357     12.46857      9.52841         0.085864     -0.193358      0.256748
      0.72084      4.38726      1.48361         0.295665      0.083020     -0.147219
      0.89147      8.96244      1.55028        -0.146753     -0.068009     -0.489542
      5.16330      0.45375      1.27153        -0.214710      0.221442      0.089116
      5.09561      4.78330      1.26044        -0.469886      0.158280      0.320111
      9.10251      0.41717      1.43994         0.000080      0.073760     -0.031702
      9.05522      4.80771      1.35325        -0.041226     -0.394384      0.179970
      5.03059      8.98265      1.64490        -0.004143     -0.415645     -0.880696
      3.08394      4.10879      9.56638         0.296343      0.042914     -0.019660
      2.91905      7.99258      9.67325         0.022058      0.376128     -0.017192
      3.02352     12.30365      9.64723        -0.142182     -0.104771     -0.328893
      7.18433      4.10206      9.78351         0.135383     -0.262895     -0.645591
      7.28907      8.33987      9.64866         0.273165     -0.057940      0.206518
      6.92771     12.20616      9.57673         0.266309      0.001549     -0.338415
     11.18295      3.85357      9.34181        -0.261703      0.394780      0.810445
      9.09825      8.81478      1.49327         0.463078      0.205444     -0.463663
     11.00102     12.26158      7.06361        -0.038433      0.779168     -0.080357
      2.67342      4.22543      6.99869         0.935658      0.311084      0.414185
      2.96791      8.50517      7.09759        -0.163922     -0.459053      0.093741
      7.06301      0.15979      6.93159        -0.013469     -0.026874      0.670273
      7.30748      4.53937      7.08924        -0.532526     -0.550797      0.502852
      7.03827      8.35176      7.14389        -0.211722     -0.139279     -0.238915
     11.09269      4.36001      6.89271         0.511709     -0.466970     -0.163725
      9.01809      0.09235      3.92167         0.669505      0.205009      0.417306
      0.89322      0.34340      3.94024        -0.099577     -0.415298     -0.246927
      1.06249      4.31558      3.97506        -0.298334     -0.178944      0.195098
      0.80360      8.62519      4.02892        -0.174914     -0.107080      0.112883
      5.15229      0.07162      3.77294        -0.218201      0.003026      0.319911
      5.08964      4.51018      3.81574        -0.315721     -0.452151      0.145790
      5.06188      8.56878      4.05462        -0.124521     -0.025452      0.637336
      3.05351      0.07728      7.05114        -0.017412      0.709957      0.336829
     11.40084      8.53607      6.98902        -0.497565     -0.141167      0.200893
     11.10936     10.66891      1.56036         0.275922     -0.317650      0.318082
      2.97581      2.14750      1.61697         0.720618      0.543781     -0.186383
     11.30961      2.20268      1.46807         0.020162      0.040350      0.257144
      9.21751      4.39858      3.88893        -0.425431     -0.506621     -0.065708
      0.64725      2.13863      9.50091         0.401767     -0.207073     -0.544317
      0.82808      6.40961      9.65900         0.363294     -0.814067     -0.489942
      0.95026     10.66014      9.63457         0.026175     -0.049915     -0.648238
      5.09122      2.36805      9.55934        -0.043147      0.054980     -0.063705
      4.88352      6.29462      9.60277        -0.196162     -0.266047     -0.202665
      4.95143     10.51619      9.64817         0.065908     -0.100817     -0.508860
      9.09696      2.28068      9.51620        -0.045587     -0.169736      0.062307
      9.23073      6.47467      9.57132         0.138506      0.119096      0.162852
      8.95514     10.44124      9.59245        -0.142527      0.099662     -0.066061
      2.92162      6.58679      1.54933         0.153621     -0.260308     -0.012038
      2.98480     10.57726      1.53091        -0.327448      0.298773      0.000513
      6.99623      2.24640      1.54071         0.318976      0.056524      0.264746
      6.97436      6.53211      1.31698         0.259995      0.061408      0.708026
      7.27475     10.67131      1.57108        -0.428521     -0.259934     -0.240592
     11.24821      6.11943      1.64810         0.078914      0.826312     -0.379708
      9.04693      8.32440      3.90213         0.409007      0.083614      0.607477
 -----------------------------------------------------------------------------------
    total drift:                                0.000684      0.000279      0.000386


--------------------------------------------------------------------------------------------------------



  FREE ENERGIE OF THE ION-ELECTRON SYSTEM (eV)
  ---------------------------------------------------
  free  energy   TOTEN  =      -300.68704615 eV

  energy  without entropy=     -300.68704615  energy(sigma->0) =     -300.68704615
 


--------------------------------------------------------------------------------------------------------


    POTLOK:  cpu time      0.7318: real time      0.7347


--------------------------------------------------------------------------------------------------------


     LOOP+:  cpu time    181.2027: real time    182.1865
    4ORBIT:  cpu time      0.0000: real time      0.0000



 total charge

# of ion       s       p       d       tot
------------------------------------------
    1        1.319   0.780   0.060   2.159
    2        1.320   0.778   0.056   2.154
    3        1.333   0.719   0.047   2.099
    4        1.330   0.748   0.057   2.135
    5        1.332   0.743   0.060   2.134
    6        1.339   0.692   0.047   2.078
    7        1.336   0.717   0.052   2.105
    8        1.330   0.725   0.048   2.103
    9        1.326   0.761   0.054   2.141
   10        1.329   0.766   0.056   2.151
   11        1.323   0.758   0.056   2.137
   12        1.309   0.790   0.053   2.152
   13        1.318   0.794   0.056   2.168
   14        1.330   0.758   0.055   2.142
   15        1.327   0.751   0.051   2.128
   16        1.306   0.845   0.069   2.221
   17        1.330   0.748   0.053   2.130
   18        1.321   0.758   0.053   2.132
   19        1.327   0.759   0.057   2.143
   20        1.320   0.797   0.058   2.175
   21        1.325   0.767   0.055   2.147
   22        1.329   0.754   0.058   2.141
   23        1.328   0.756   0.054   2.138
   24        1.315   0.775   0.059   2.149
   25        1.319   0.765   0.056   2.140
   26        1.332   0.735   0.055   2.122
   27        1.317   0.775   0.056   2.148
   28        1.331   0.776   0.061   2.168
   29        1.337   0.718   0.049   2.104
   30        1.330   0.757   0.056   2.143
   31        1.315   0.767   0.054   2.136
   32        1.331   0.710   0.051   2.092
   33        1.331   0.759   0.058   2.148
   34        1.322   0.751   0.050   2.124
   35        1.316   0.820   0.063   2.199
   36        1.314   0.800   0.060   2.174
   37        1.477   2.307   0.033   3.816
   38        1.480   2.322   0.040   3.842
   39        1.473   2.310   0.031   3.815
   40        1.480   2.269   0.028   3.776
   41        1.476   2.305   0.031   3.812
   42        1.479   2.314   0.039   3.831
   43        1.481   2.307   0.040   3.828
   44        1.476   2.292   0.028   3.795
   45        1.478   2.288   0.031   3.797
   46        1.475   2.293   0.029   3.798
   47        1.479   2.304   0.035   3.818
   48        1.476   2.299   0.030   3.805
   49        1.477   2.297   0.031   3.806
   50        1.477   2.315   0.037   3.829
   51        1.479   2.268   0.026   3.773
   52        1.479   2.293   0.033   3.805
   53        1.478   2.276   0.027   3.781
   54        1.473   2.323   0.034   3.830
   55        1.478   2.284   0.030   3.791
   56        1.476   2.278   0.026   3.780
   57        1.479   2.291   0.032   3.802
   58        1.481   2.304   0.037   3.821
   59        1.478   2.277   0.028   3.783
   60        1.478   2.292   0.031   3.801
   61        1.479   2.297   0.034   3.810
   62        1.478   2.290   0.032   3.799
   63        1.477   2.303   0.033   3.812
   64        1.477   2.295   0.032   3.805
   65        1.478   2.294   0.032   3.805
   66        1.476   2.271   0.023   3.770
   67        1.479   2.308   0.036   3.823
   68        1.476   2.290   0.028   3.795
   69        1.482   2.282   0.035   3.798
   70        1.477   2.308   0.037   3.823
   71        1.473   2.330   0.035   3.838
   72        1.474   2.312   0.031   3.817
--------------------------------------------------
tot        100.886 110.059   3.145 214.090



 magnetization (x)

# of ion       s       p       d       tot
------------------------------------------
    1       -0.000   0.000   0.000   0.000
    2       -0.000   0.000   0.000   0.000
    3       -0.000   0.000   0.000   0.000
    4       -0.000   0.000   0.000   0.000
    5       -0.000   0.000  -0.000   0.000
    6       -0.000   0.000   0.000   0.000
    7       -0.000   0.000  -0.000   0.000
    8       -0.000  -0.000  -0.000  -0.000
    9       -0.000   0.000   0.000   0.000
   10       -0.000   0.000   0.000   0.000
   11       -0.000   0.000   0.000   0.000
   12       -0.000   0.000   0.000   0.000
   13       -0.000   0.000   0.000   0.000
   14       -0.000   0.000   0.000   0.000
   15       -0.000   0.000   0.000   0.000
   16       -0.000   0.000  -0.000   0.000
   17       -0.000   0.000   0.000   0.000
   18       -0.000   0.000   0.000   0.000
   19       -0.000   0.000  -0.000  -0.000
   20       -0.000  -0.000  -0.000  -0.000
   21       -0.000  -0.000  -0.000  -0.000
   22       -0.000   0.000   0.000   0.000
   23       -0.000  -0.000  -0.000  -0.000
   24       -0.000   0.000   0.000  -0.000
   25       -0.000   0.000   0.000   0.000
   26       -0.000  -0.000  -0.000  -0.000
   27       -0.000   0.000  -0.000  -0.000
   28       -0.000   0.000  -0.000  -0.000
   29       -0.000   0.000   0.000   0.000
   30       -0.000   0.000   0.000   0.000
   31       -0.000   0.000   0.000   0.000
   32       -0.000   0.000   0.000   0.000
   33       -0.000  -0.000  -0.000  -0.000
   34       -0.000  -0.000  -0.000  -0.000
   35       -0.000   0.000   0.000   0.000
   36       -0.000  -0.000  -0.000  -0.000
   37       -0.000  -0.000  -0.000  -0.000
   38       -0.000  -0.000   0.000  -0.000
   39       -0.000  -0.000   0.000  -0.000
   40       -0.000  -0.000   0.000  -0.000
   41       -0.000  -0.000   0.000  -0.000
   42       -0.000  -0.000   0.000  -0.000
   43       -0.000  -0.000   0.000  -0.000
   44       -0.000  -0.000  -0.000  -0.000
   45       -0.000  -0.000   0.000  -0.000
   46       -0.000  -0.000   0.000  -0.000
   47       -0.000  -0.000  -0.000  -0.000
   48       -0.000  -0.000   0.000  -0.000
   49       -0.000  -0.000   0.000  -0.000
   50       -0.000  -0.000   0.000  -0.000
   51       -0.000  -0.000   0.000  -0.000
   52       -0.000  -0.000   0.000  -0.000
   53       -0.000  -0.000  -0.000  -0.000
   54       -0.000  -0.000   0.000  -0.000
   55       -0.000  -0.000   0.000  -0.000
   56       -0.000  -0.000   0.000  -0.000
   57       -0.000  -0.000   0.000  -0.000
   58       -0.000  -0.000   0.000  -0.000
   59       -0.000  -0.000   0.000  -0.000
   60       -0.000  -0.000   0.000  -0.000
   61       -0.000  -0.000   0.000  -0.000
   62       -0.000  -0.000   0.000  -0.000
   63       -0.000  -0.000   0.000  -0.000
   64       -0.000  -0.000   0.000  -0.000
   65       -0.000  -0.000  -0.000  -0.000
   66       -0.000  -0.000   0.000  -0.000
   67       -0.000  -0.000  -0.000  -0.000
   68       -0.000  -0.000   0.000  -0.000
   69       -0.000  -0.000   0.000  -0.000
   70       -0.000  -0.000  -0.000  -0.000
   71       -0.000  -0.000  -0.000  -0.000
   72       -0.000  -0.000  -0.000  -0.000
--------------------------------------------------
tot         -0.000  -0.000   0.000  -0.000
 

 total amount of memory used by VASP MPI-rank0   110764. kBytes
=======================================================================

   base      :      30000. kBytes
   nonl-proj :      16355. kBytes
   fftplans  :       6179. kBytes
   grid      :      15593. kBytes
   one-center:        146. kBytes
   wavefun   :      42491. kBytes
 
  
  
 General timing and accounting informations for this job:
 ========================================================
  
                  Total CPU time used (sec):      192.857
                            User time (sec):      186.617
                          System time (sec):        6.240
                         Elapsed time (sec):      195.339
  
                   Maximum memory used (kb):      313412.
                   Average memory used (kb):          N/A
  
                          Minor page faults:        96642
                          Major page faults:           66
                 Voluntary context switches:         8364
