 vasp.6.4.2 20Jul23 (build Oct 12 2023 10:31:02) complex                         
 executed on              LinuxNV date 2025.05.19  20:37:32
 running  160 mpi-ranks, with    1 threads/rank, on   10 nodes
 distrk:  each k-point on   80 cores,    2 groups
 distr:  one band on NCORE=   5 cores,   16 groups


--------------------------------------------------------------------------------------------------------


 INCAR:
   ENCUT = 360.000000
   SIGMA = 0.050000
   EDIFF = 1.00e-06
   ALGO = Normal
   GGA = PE
   PREC = Normal
   SYSTEM = ./
   ICHARG = 2
   ISMEAR = 0
   ISPIN = 1
   ISTART = 0
   ISYM = 0
   KPAR = 2
   LMAXMIX = 4
   NELM = 100
   NPAR = 16
   LASPH = .TRUE.
   LCHARG = .FALSE.
   LWAVE = .FALSE.

 POTCAR:    PAW_PBE Ge 05Jan2001                  
 POTCAR:    PAW_PBE Se 06Sep2000                  
 POTCAR:    PAW_PBE Ge 05Jan2001                  
   VRHFIN =Ge: s2p2                                                                                 
   LEXCH  = PE                                                                                      
   EATOM  =   104.9960 eV,    7.7170 Ry                                                             
                                                                                                    
   TITEL  = PAW_PBE Ge 05Jan2001                                                                    
   LULTRA =        F    use ultrasoft PP ?                                                          
   IUNSCR =        1    unscreen: 0-lin 1-nonlin 2-no                                               
   RPACOR =    2.170    partial core radius                                                         
   POMASS =   72.610; ZVAL   =    4.000    mass and valenz                                          
   RCORE  =    2.300    outmost cutoff radius                                                       
   RWIGS  =    2.300; RWIGS  =    1.217    wigner-seitz radius (au A)                               
   ENMAX  =  173.807; ENMIN  =  130.355 eV                                                          
   ICORE  =        3    local potential                                                             
   LCOR   =        T    correct aug charges                                                         
   LPAW   =        T    paw PP                                                                      
   EAUG   =  385.843                                                                                
   DEXC   =    0.000                                                                                
   RMAX   =    2.342    core radius for proj-oper                                                   
   RAUG   =    1.300    factor for augmentation sphere                                              
   RDEP   =    2.318    radius for radial grids                                                     
   RDEPT  =    2.103    core radius for aug-charge                                                  
                                                                                                    
   Atomic configuration                                                                             
   10 entries                                                                                       
     n  l   j            E        occ.                                                              
     1  0  0.50    -10959.8463   2.0000                                                             
     2  0  0.50     -1371.6056   2.0000                                                             
     2  1  1.50     -1198.4791   6.0000                                                             
     3  0  0.50      -168.4733   2.0000                                                             
     3  1  1.50      -115.6019   6.0000                                                             
     3  2  2.50       -29.3106  10.0000                                                             
     4  0  0.50       -11.7309   2.0000                                                             
     4  1  0.50        -3.8952   2.0000                                                             
     4  2  1.50        -4.0817   0.0000                                                             
     4  3  2.50        -4.0817   0.0000                                                             
   Description                                                                                      
     l       E           TYP  RCUT    TYP  RCUT                                                     
     0    -11.7309493     23  2.300                                                                 
     0     -7.4578696     23  2.300                                                                 
     1     -3.8952261     23  2.300                                                                 
     1      6.1178114     23  2.300                                                                 
     2     -4.0817478     23  2.300                                                                 
     3     -1.3605826      7  2.300                                                                 
  local pseudopotential read in
  partial core-charges read in
  partial kinetic energy density read in
  atomic valenz-charges read in
  non local Contribution for L=            0  read in
    real space projection operators read in
  non local Contribution for L=            0  read in
    real space projection operators read in
  non local Contribution for L=            1  read in
    real space projection operators read in
  non local Contribution for L=            1  read in
    real space projection operators read in
  non local Contribution for L=            2  read in
    real space projection operators read in
    PAW grid and wavefunctions read in
 
   number of l-projection  operators is LMAX  =            5
   number of lm-projection operators is LMMAX =           13
 
 POTCAR:    PAW_PBE Se 06Sep2000                  
   VRHFIN =Se: s2p4                                                                                 
   LEXCH  = PE                                                                                      
   EATOM  =   257.1286 eV,   18.8984 Ry                                                             
                                                                                                    
   TITEL  = PAW_PBE Se 06Sep2000                                                                    
   LULTRA =        F    use ultrasoft PP ?                                                          
   IUNSCR =        1    unscreen: 0-lin 1-nonlin 2-no                                               
   RPACOR =    1.900    partial core radius                                                         
   POMASS =   78.960; ZVAL   =    6.000    mass and valenz                                          
   RCORE  =    2.100    outmost cutoff radius                                                       
   RWIGS  =    2.200; RWIGS  =    1.164    wigner-seitz radius (au A)                               
   ENMAX  =  211.555; ENMIN  =  158.666 eV                                                          
   ICORE  =        3    local potential                                                             
   LCOR   =        T    correct aug charges                                                         
   LPAW   =        T    paw PP                                                                      
   EAUG   =  446.842                                                                                
   DEXC   =    0.000                                                                                
   RMAX   =    2.147    core radius for proj-oper                                                   
   RAUG   =    1.300    factor for augmentation sphere                                              
   RDEP   =    2.177    radius for radial grids                                                     
   RDEPT  =    1.928    core radius for aug-charge                                                  
                                                                                                    
   Atomic configuration                                                                             
   10 entries                                                                                       
     n  l   j            E        occ.                                                              
     1  0  0.50    -12503.4787   2.0000                                                             
     2  0  0.50     -1606.9547   2.0000                                                             
     2  1  1.50     -1413.3140   6.0000                                                             
     3  0  0.50      -213.4885   2.0000                                                             
     3  1  1.50      -152.9538   6.0000                                                             
     3  2  2.50       -53.1221  10.0000                                                             
     4  0  0.50       -17.2865   2.0000                                                             
     4  1  0.50        -6.5110   4.0000                                                             
     4  2  2.50        -6.8029   0.0000                                                             
     4  3  2.50        -6.8029   0.0000                                                             
   Description                                                                                      
     l       E           TYP  RCUT    TYP  RCUT                                                     
     0    -17.2865377     23  2.100                                                                 
     0    -15.3094411     23  2.100                                                                 
     1     -6.5110275     23  2.100                                                                 
     1     -0.0695192     23  2.100                                                                 
     2     -6.8029130     23  2.100                                                                 
     3     -1.3605826      7  2.100                                                                 
  local pseudopotential read in
  partial core-charges read in
  partial kinetic energy density read in
  atomic valenz-charges read in
  non local Contribution for L=            0  read in
    real space projection operators read in
  non local Contribution for L=            0  read in
    real space projection operators read in
  non local Contribution for L=            1  read in
    real space projection operators read in
  non local Contribution for L=            1  read in
    real space projection operators read in
  non local Contribution for L=            2  read in
    real space projection operators read in
    PAW grid and wavefunctions read in
 
   number of l-projection  operators is LMAX  =            5
   number of lm-projection operators is LMMAX =           13
 
  PAW_PBE Ge 05Jan2001                  :
 energy of atom  1       EATOM= -104.9960
 kinetic energy error for atom=    0.0005 (will be added to EATOM!!)
  PAW_PBE Se 06Sep2000                  :
 energy of atom  2       EATOM= -257.1286
 kinetic energy error for atom=    0.0030 (will be added to EATOM!!)
 
 
 POSCAR: Ge Se
  positions in cartesian coordinates
  No initial velocities read in
 exchange correlation table for  LEXCH =        8
   RHO(1)=    0.500       N(1)  =     2000
   RHO(2)=  100.500       N(2)  =     4000
 


--------------------------------------------------------------------------------------------------------


 ion  position               nearest neighbor table
   1  0.192  0.763  0.132-   5 2.59   6 2.60   6 2.60
   2  0.692  0.263  0.368-   6 2.59   5 2.60   5 2.60
   3  0.750  0.904  0.868-   7 2.59   8 2.60   8 2.60
   4  0.250  0.404  0.632-   8 2.59   7 2.60   7 2.60
   5  0.192  0.646  0.351-   1 2.59   2 2.60   2 2.60
   6  0.692  0.146  0.149-   2 2.59   1 2.60   1 2.60
   7  0.750  0.021  0.649-   3 2.59   4 2.60   4 2.60
   8  0.250  0.521  0.851-   4 2.59   3 2.60   3 2.60
 

IMPORTANT INFORMATION: All symmetrisations will be switched off!
NOSYMM: (Re-)initialisation of all symmetry stuff for point group C_1.


----------------------------------------------------------------------------------------

                                     Primitive cell                                     

  volume of cell :     202.3233

  direct lattice vectors                    reciprocal lattice vectors
     3.858100176  0.000000000  0.000000000     0.259194929  0.000000000  0.000000000
     0.000000000  4.526575088  0.000000000     0.000000000  0.220917577  0.000000000
     0.000000000  0.000000000 11.585176468     0.000000000  0.000000000  0.086317200

  length of vectors
     3.858100176  4.526575088 11.585176468     0.259194929  0.220917577  0.086317200

  position of ions in fractional coordinates (direct lattice)
     0.192028989  0.762910024  0.131971745
     0.692028953  0.262910011  0.368028228
     0.749999855  0.903756548  0.868028249
     0.249999781  0.403756501  0.631971759
     0.192028973  0.646132371  0.351109927
     0.692028989  0.146132392  0.148890049
     0.749999761  0.020534152  0.648890076
     0.249999838  0.520534176  0.851109946

  ion indices of the primitive-cell ions
   primitive index   ion index
                 1           1
                 2           2
                 3           3
                 4           4
                 5           5
                 6           6
                 7           7
                 8           8

----------------------------------------------------------------------------------------

 
 
 KPOINTS: KPOINTS created by Atomic Simulation Env

Automatic generation of k-mesh.
 Grid dimensions read from file:
 generate k-points for:    6    6    2

 Generating k-lattice:

  Cartesian coordinates                     Fractional coordinates (reciprocal lattice)
     0.043199155  0.000000000  0.000000000     0.166666667  0.000000000  0.000000000
     0.000000000  0.036819596  0.000000000     0.000000000  0.166666667  0.000000000
     0.000000000  0.000000000  0.043158600     0.000000000  0.000000000  0.500000000

  Length of vectors
     0.043199155  0.036819596  0.043158600

  Shift w.r.t. Gamma in fractional coordinates (k-lattice)
     0.000000000  0.000000000  0.000000000

 
 Subroutine IBZKPT returns following result:
 ===========================================
 
 Found     40 irreducible k-points:
 
 Following reciprocal coordinates:
            Coordinates               Weight
  0.000000  0.000000  0.000000      1.000000
  0.166667  0.000000  0.000000      2.000000
  0.333333  0.000000  0.000000      2.000000
  0.500000  0.000000  0.000000      1.000000
  0.000000  0.166667  0.000000      2.000000
  0.166667  0.166667  0.000000      2.000000
  0.166667 -0.166667  0.000000      2.000000
  0.333333  0.166667  0.000000      2.000000
  0.333333 -0.166667  0.000000      2.000000
  0.500000  0.166667  0.000000      2.000000
  0.000000  0.333333  0.000000      2.000000
  0.166667  0.333333  0.000000      2.000000
  0.166667 -0.333333  0.000000      2.000000
  0.333333  0.333333  0.000000      2.000000
  0.333333 -0.333333  0.000000      2.000000
  0.500000  0.333333  0.000000      2.000000
  0.000000  0.500000  0.000000      1.000000
  0.166667  0.500000  0.000000      2.000000
  0.333333  0.500000  0.000000      2.000000
  0.500000  0.500000  0.000000      1.000000
  0.000000  0.000000  0.500000      1.000000
  0.166667  0.000000  0.500000      2.000000
  0.333333  0.000000  0.500000      2.000000
  0.500000  0.000000  0.500000      1.000000
  0.000000  0.166667  0.500000      2.000000
  0.166667  0.166667  0.500000      2.000000
  0.166667 -0.166667  0.500000      2.000000
  0.333333  0.166667  0.500000      2.000000
  0.333333 -0.166667  0.500000      2.000000
  0.500000  0.166667  0.500000      2.000000
  0.000000  0.333333  0.500000      2.000000
  0.166667  0.333333  0.500000      2.000000
  0.166667 -0.333333  0.500000      2.000000
  0.333333  0.333333  0.500000      2.000000
  0.333333 -0.333333  0.500000      2.000000
  0.500000  0.333333  0.500000      2.000000
  0.000000  0.500000  0.500000      1.000000
  0.166667  0.500000  0.500000      2.000000
  0.333333  0.500000  0.500000      2.000000
  0.500000  0.500000  0.500000      1.000000
 
 Following cartesian coordinates:
            Coordinates               Weight
  0.000000  0.000000  0.000000      1.000000
  0.043199  0.000000  0.000000      2.000000
  0.086398  0.000000  0.000000      2.000000
  0.129597  0.000000  0.000000      1.000000
  0.000000  0.036820  0.000000      2.000000
  0.043199  0.036820  0.000000      2.000000
  0.043199 -0.036820  0.000000      2.000000
  0.086398  0.036820  0.000000      2.000000
  0.086398 -0.036820  0.000000      2.000000
  0.129597  0.036820  0.000000      2.000000
  0.000000  0.073639  0.000000      2.000000
  0.043199  0.073639  0.000000      2.000000
  0.043199 -0.073639  0.000000      2.000000
  0.086398  0.073639  0.000000      2.000000
  0.086398 -0.073639  0.000000      2.000000
  0.129597  0.073639  0.000000      2.000000
  0.000000  0.110459  0.000000      1.000000
  0.043199  0.110459  0.000000      2.000000
  0.086398  0.110459  0.000000      2.000000
  0.129597  0.110459  0.000000      1.000000
  0.000000  0.000000  0.043159      1.000000
  0.043199  0.000000  0.043159      2.000000
  0.086398  0.000000  0.043159      2.000000
  0.129597  0.000000  0.043159      1.000000
  0.000000  0.036820  0.043159      2.000000
  0.043199  0.036820  0.043159      2.000000
  0.043199 -0.036820  0.043159      2.000000
  0.086398  0.036820  0.043159      2.000000
  0.086398 -0.036820  0.043159      2.000000
  0.129597  0.036820  0.043159      2.000000
  0.000000  0.073639  0.043159      2.000000
  0.043199  0.073639  0.043159      2.000000
  0.043199 -0.073639  0.043159      2.000000
  0.086398  0.073639  0.043159      2.000000
  0.086398 -0.073639  0.043159      2.000000
  0.129597  0.073639  0.043159      2.000000
  0.000000  0.110459  0.043159      1.000000
  0.043199  0.110459  0.043159      2.000000
  0.086398  0.110459  0.043159      2.000000
  0.129597  0.110459  0.043159      1.000000
 


--------------------------------------------------------------------------------------------------------




 Dimension of arrays:
   k-points           NKPTS =     40   k-points in BZ     NKDIM =     40   number of bands    NBANDS=     32
   number of dos      NEDOS =    301   number of ions     NIONS =      8
   non local maximal  LDIM  =      5   non local SUM 2l+1 LMDIM =     13
   total plane-waves  NPLWV =  23328
   max r-space proj   IRMAX =      1   max aug-charges    IRDMAX=   6465
   dimension x,y,z NGX =    18 NGY =   24 NGZ =   54
   dimension x,y,z NGXF=    36 NGYF=   48 NGZF=  108
   support grid    NGXF=    36 NGYF=   48 NGZF=  108
   ions per type =               4   4
   NGX,Y,Z   is equivalent  to a cutoff of   7.76,  8.81,  7.75 a.u.
   NGXF,Y,Z  is equivalent  to a cutoff of  15.51, 17.63, 15.50 a.u.

 SYSTEM =  ./                                      
 POSCAR =  Ge Se                                   

 Startparameter for this run:
   NWRITE =      2    write-flag & timer
   PREC   = normal    normal or accurate (medium, high low for compatibility)
   ISTART =      0    job   : 0-new  1-cont  2-samecut
   ICHARG =      2    charge: 1-file 2-atom 10-const
   ISPIN  =      1    spin polarized calculation?
   LNONCOLLINEAR =      F non collinear calculations
   LSORBIT =      F    spin-orbit coupling
   INIWAV =      1    electr: 0-lowe 1-rand  2-diag
   LASPH  =      T    aspherical Exc in radial PAW
 Electronic Relaxation 1
   ENCUT  =  360.0 eV  26.46 Ry    5.14 a.u.   5.97  7.00 17.92*2*pi/ulx,y,z
   ENINI  =  360.0     initial cutoff
   ENAUG  =  446.8 eV  augmentation charge cutoff
   NELM   =    100;   NELMIN=  2; NELMDL= -5     # of ELM steps 
   EDIFF  = 0.1E-05   stopping-criterion for ELM
   LREAL  =      F    real-space projection
   NLSPLINE    = F    spline interpolate recip. space projectors
   LCOMPAT=      F    compatible to vasp.4.4
   GGA_COMPAT  = T    GGA compatible to vasp.4.4-vasp.4.6
   LMAXPAW     = -100 max onsite density
   LMAXMIX     =    4 max onsite mixed and CHGCAR
   VOSKOWN=      0    Vosko Wilk Nusair interpolation
   ROPT   =    0.00000   0.00000
 Ionic relaxation
   EDIFFG = 0.1E-04   stopping-criterion for IOM
   NSW    =      0    number of steps for IOM
   NBLOCK =      1;   KBLOCK =      1    inner block; outer block 
   IBRION =     -1    ionic relax: 0-MD 1-quasi-New 2-CG
   NFREE  =      0    steps in history (QN), initial steepest desc. (CG)
   ISIF   =      2    stress and relaxation
   IWAVPR =     10    prediction:  0-non 1-charg 2-wave 3-comb
   ISYM   =      0    0-nonsym 1-usesym 2-fastsym
   LCORR  =      T    Harris-Foulkes like correction to forces

   POTIM  = 0.5000    time-step for ionic-motion
   TEIN   =    0.0    initial temperature
   TEBEG  =    0.0;   TEEND  =   0.0 temperature during run
   SMASS  =  -3.00    Nose mass-parameter (am)
   estimated Nose-frequenzy (Omega)   =  0.10E-29 period in steps = 0.13E+47 mass=  -0.340E-27a.u.
   SCALEE = 1.0000    scale energy and forces
   NPACO  =    256;   APACO  = 10.0  distance and # of slots for P.C.
   PSTRESS=    0.0 pullay stress

  Mass of Ions in am
   POMASS =  72.61 78.96
  Ionic Valenz
   ZVAL   =   4.00  6.00
  Atomic Wigner-Seitz radii
   RWIGS  =  -1.00 -1.00
  virtual crystal weights 
   VCA    =   1.00  1.00
   NELECT =      40.0000    total number of electrons
   NUPDOWN=      -1.0000    fix difference up-down

 DOS related values:
   EMIN   =  10.00;   EMAX   =-10.00  energy-range for DOS
   EFERMI =   0.00;   METHOD = LEGACY      
   ISMEAR =     0;   SIGMA  =   0.05  broadening in eV -4-tet -1-fermi 0-gaus

 Electronic relaxation 2 (details)
   IALGO  =     38    algorithm
   LDIAG  =      T    sub-space diagonalisation (order eigenvalues)
   LSUBROT=      F    optimize rotation matrix (better conditioning)
   TURBO    =      0    0=normal 1=particle mesh
   IRESTART =      0    0=no restart 2=restart with 2 vectors
   NREBOOT  =      0    no. of reboots
   NMIN     =      0    reboot dimension
   EREF     =   0.00    reference energy to select bands
   IMIX   =      4    mixing-type and parameters
     AMIX     =   0.40;   BMIX     =  1.00
     AMIX_MAG =   1.60;   BMIX_MAG =  1.00
     AMIN     =   0.10
     WC   =   100.;   INIMIX=   1;  MIXPRE=   1;  MAXMIX= -45

 Intra band minimization:
   WEIMIN = 0.0000     energy-eigenvalue tresh-hold
   EBREAK =  0.78E-08  absolut break condition
   DEPER  =   0.30     relativ break condition  

   TIME   =   0.40     timestep for ELM

  volume/ion in A,a.u.               =      25.29       170.67
  Fermi-wavevector in a.u.,A,eV,Ry     =   0.953702  1.802236 12.375155  0.909548
  Thomas-Fermi vector in A             =   2.082382
 
 Write flags
   LWAVE        =      F    write WAVECAR
   LDOWNSAMPLE  =      F    k-point downsampling of WAVECAR
   LCHARG       =      F    write CHGCAR
   LVTOT        =      F    write LOCPOT, total local potential
   LVHAR        =      F    write LOCPOT, Hartree potential only
   LELF         =      F    write electronic localiz. function (ELF)
   LORBIT       =      0    0 simple, 1 ext, 2 COOP (PROOUT), +10 PAW based schemes


 Dipole corrections
   LMONO  =      F    monopole corrections only (constant potential shift)
   LDIPOL =      F    correct potential (dipole corrections)
   IDIPOL =      0    1-x, 2-y, 3-z, 4-all directions 
   EPSILON=  1.0000000 bulk dielectric constant

 Exchange correlation treatment:
   GGA     =    PE    GGA type
   LEXCH   =     8    internal setting for exchange type
   LIBXC   =     F    Libxc                    
   VOSKOWN =     0    Vosko Wilk Nusair interpolation
   LHFCALC =     F    Hartree Fock is set to
   LHFONE  =     F    Hartree Fock one center treatment
   AEXX    =    0.0000 exact exchange contribution

 Linear response parameters
   LEPSILON=     F    determine dielectric tensor
   LRPA    =     F    only Hartree local field effects (RPA)
   LNABLA  =     F    use nabla operator in PAW spheres
   LVEL    =     F    velocity operator in full k-point grid
   CSHIFT  =0.1000    complex shift for real part using Kramers Kronig
   OMEGAMAX=  -1.0    maximum frequency
   DEG_THRESHOLD= 0.2000000E-02 threshold for treating states as degnerate
   RTIME   =   -0.100 relaxation time in fs
  (WPLASMAI=    0.000 imaginary part of plasma frequency in eV, 0.658/RTIME)
   DFIELD  = 0.0000000 0.0000000 0.0000000 field for delta impulse in time
 
  Optional k-point grid parameters
   LKPOINTS_OPT  =     F    use optional k-point grid
   KPOINTS_OPT_MODE=     1    mode for optional k-point grid
 
 Orbital magnetization related:
   ORBITALMAG=     F  switch on orbital magnetization
   LCHIMAG   =     F  perturbation theory with respect to B field
   DQ        =  0.001000  dq finite difference perturbation B field
   LLRAUG    =     F  two centre corrections for induced B field
   LBONE     =     F  B-component reconstruction in AE one-centre
   LVGVCALC  =     T  calculate vGv susceptibility
   LVGVAPPL  =     F  apply vGv susceptibility instead of pGv for G=0

 Random number generation:
   RANDOM_GENERATOR = DEFAULT
   PCG_SEED         = not used


--------------------------------------------------------------------------------------------------------


 Static calculation
 charge density and potential will be updated during run
 non-spin polarized calculation
 Variant of blocked Davidson
 Davidson routine will perform the subspace rotation
 perform sub-space diagonalisation
    after iterative eigenvector-optimisation
 modified Broyden-mixing scheme, WC =      100.0
 initial mixing is a Kerker type mixing with AMIX =  0.4000 and BMIX =      1.0000
 Hartree-type preconditioning will be used
 using additional bands            12
 reciprocal scheme for non local part
 use partial core corrections
 calculate Harris-corrections to forces 
   (improved forces if not selfconsistent)
 use gradient corrections 
 use of overlap-Matrix (Vanderbilt PP)
 Gauss-broadening in eV      SIGMA  =   0.05


--------------------------------------------------------------------------------------------------------


  energy-cutoff  :      360.00
  volume of cell :      202.32
      direct lattice vectors                 reciprocal lattice vectors
     3.858100176  0.000000000  0.000000000     0.259194929  0.000000000  0.000000000
     0.000000000  4.526575088  0.000000000     0.000000000  0.220917577  0.000000000
     0.000000000  0.000000000 11.585176468     0.000000000  0.000000000  0.086317200

  length of vectors
     3.858100176  4.526575088 11.585176468     0.259194929  0.220917577  0.086317200


 
 k-points in units of 2pi/SCALE and weight: KPOINTS created by Atomic Simulation Env
   0.00000000  0.00000000  0.00000000       0.014
   0.04319915  0.00000000  0.00000000       0.028
   0.08639831  0.00000000  0.00000000       0.028
   0.12959746  0.00000000  0.00000000       0.014
   0.00000000  0.03681960  0.00000000       0.028
   0.04319915  0.03681960  0.00000000       0.028
   0.04319915 -0.03681960  0.00000000       0.028
   0.08639831  0.03681960  0.00000000       0.028
   0.08639831 -0.03681960  0.00000000       0.028
   0.12959746  0.03681960  0.00000000       0.028
   0.00000000  0.07363919  0.00000000       0.028
   0.04319915  0.07363919  0.00000000       0.028
   0.04319915 -0.07363919  0.00000000       0.028
   0.08639831  0.07363919  0.00000000       0.028
   0.08639831 -0.07363919  0.00000000       0.028
   0.12959746  0.07363919  0.00000000       0.028
   0.00000000  0.11045879  0.00000000       0.014
   0.04319915  0.11045879  0.00000000       0.028
   0.08639831  0.11045879  0.00000000       0.028
   0.12959746  0.11045879  0.00000000       0.014
   0.00000000  0.00000000  0.04315860       0.014
   0.04319915  0.00000000  0.04315860       0.028
   0.08639831  0.00000000  0.04315860       0.028
   0.12959746  0.00000000  0.04315860       0.014
   0.00000000  0.03681960  0.04315860       0.028
   0.04319915  0.03681960  0.04315860       0.028
   0.04319915 -0.03681960  0.04315860       0.028
   0.08639831  0.03681960  0.04315860       0.028
   0.08639831 -0.03681960  0.04315860       0.028
   0.12959746  0.03681960  0.04315860       0.028
   0.00000000  0.07363919  0.04315860       0.028
   0.04319915  0.07363919  0.04315860       0.028
   0.04319915 -0.07363919  0.04315860       0.028
   0.08639831  0.07363919  0.04315860       0.028
   0.08639831 -0.07363919  0.04315860       0.028
   0.12959746  0.07363919  0.04315860       0.028
   0.00000000  0.11045879  0.04315860       0.014
   0.04319915  0.11045879  0.04315860       0.028
   0.08639831  0.11045879  0.04315860       0.028
   0.12959746  0.11045879  0.04315860       0.014
 
 k-points in reciprocal lattice and weights: KPOINTS created by Atomic Simulation Env
   0.00000000  0.00000000  0.00000000       0.014
   0.16666667  0.00000000  0.00000000       0.028
   0.33333333  0.00000000  0.00000000       0.028
   0.50000000  0.00000000  0.00000000       0.014
   0.00000000  0.16666667  0.00000000       0.028
   0.16666667  0.16666667  0.00000000       0.028
   0.16666667 -0.16666667  0.00000000       0.028
   0.33333333  0.16666667  0.00000000       0.028
   0.33333333 -0.16666667  0.00000000       0.028
   0.50000000  0.16666667  0.00000000       0.028
   0.00000000  0.33333333  0.00000000       0.028
   0.16666667  0.33333333  0.00000000       0.028
   0.16666667 -0.33333333  0.00000000       0.028
   0.33333333  0.33333333  0.00000000       0.028
   0.33333333 -0.33333333  0.00000000       0.028
   0.50000000  0.33333333  0.00000000       0.028
   0.00000000  0.50000000  0.00000000       0.014
   0.16666667  0.50000000  0.00000000       0.028
   0.33333333  0.50000000  0.00000000       0.028
   0.50000000  0.50000000  0.00000000       0.014
   0.00000000  0.00000000  0.50000000       0.014
   0.16666667  0.00000000  0.50000000       0.028
   0.33333333  0.00000000  0.50000000       0.028
   0.50000000  0.00000000  0.50000000       0.014
   0.00000000  0.16666667  0.50000000       0.028
   0.16666667  0.16666667  0.50000000       0.028
   0.16666667 -0.16666667  0.50000000       0.028
   0.33333333  0.16666667  0.50000000       0.028
   0.33333333 -0.16666667  0.50000000       0.028
   0.50000000  0.16666667  0.50000000       0.028
   0.00000000  0.33333333  0.50000000       0.028
   0.16666667  0.33333333  0.50000000       0.028
   0.16666667 -0.33333333  0.50000000       0.028
   0.33333333  0.33333333  0.50000000       0.028
   0.33333333 -0.33333333  0.50000000       0.028
   0.50000000  0.33333333  0.50000000       0.028
   0.00000000  0.50000000  0.50000000       0.014
   0.16666667  0.50000000  0.50000000       0.028
   0.33333333  0.50000000  0.50000000       0.028
   0.50000000  0.50000000  0.50000000       0.014
 
 position of ions in fractional coordinates (direct lattice) 
   0.19202899  0.76291002  0.13197174
   0.69202895  0.26291001  0.36802823
   0.74999985  0.90375655  0.86802825
   0.24999978  0.40375650  0.63197176
   0.19202897  0.64613237  0.35110993
   0.69202899  0.14613239  0.14889005
   0.74999976  0.02053415  0.64889008
   0.24999984  0.52053418  0.85110995
 
 position of ions in cartesian coordinates  (Angst):
   0.74086707  3.45336951  1.52891595
   2.66991702  1.19008191  4.26367197
   2.89357457  4.09092188 10.05626045
   0.96452420  1.82763412  7.32150435
   0.74086701  2.92476670  4.06767047
   2.66991716  0.66147925  1.72491749
   2.89357421  0.09294938  7.51750603
   0.96452442  2.35623703  9.86025892
 


--------------------------------------------------------------------------------------------------------


 k-point   1 :   0.0000 0.0000 0.0000  plane waves:    3119
 k-point   2 :   0.1667 0.0000 0.0000  plane waves:    3116
 k-point   3 :   0.3333 0.0000 0.0000  plane waves:    3142
 k-point   4 :   0.5000 0.0000 0.0000  plane waves:    3148
 k-point   5 :   0.0000 0.1667 0.0000  plane waves:    3108
 k-point   6 :   0.1667 0.1667 0.0000  plane waves:    3123
 k-point   7 :   0.1667-0.1667 0.0000  plane waves:    3123
 k-point   8 :   0.3333 0.1667 0.0000  plane waves:    3135
 k-point   9 :   0.3333-0.1667 0.0000  plane waves:    3135
 k-point  10 :   0.5000 0.1667 0.0000  plane waves:    3138
 k-point  11 :   0.0000 0.3333 0.0000  plane waves:    3116
 k-point  12 :   0.1667 0.3333 0.0000  plane waves:    3133
 k-point  13 :   0.1667-0.3333 0.0000  plane waves:    3133
 k-point  14 :   0.3333 0.3333 0.0000  plane waves:    3155
 k-point  15 :   0.3333-0.3333 0.0000  plane waves:    3155
 k-point  16 :   0.5000 0.3333 0.0000  plane waves:    3152
 k-point  17 :   0.0000 0.5000 0.0000  plane waves:    3134
 k-point  18 :   0.1667 0.5000 0.0000  plane waves:    3140
 k-point  19 :   0.3333 0.5000 0.0000  plane waves:    3144
 k-point  20 :   0.5000 0.5000 0.0000  plane waves:    3144
 k-point  21 :   0.0000 0.0000 0.5000  plane waves:    3092
 k-point  22 :   0.1667 0.0000 0.5000  plane waves:    3124
 k-point  23 :   0.3333 0.0000 0.5000  plane waves:    3140
 k-point  24 :   0.5000 0.0000 0.5000  plane waves:    3132
 k-point  25 :   0.0000 0.1667 0.5000  plane waves:    3112
 k-point  26 :   0.1667 0.1667 0.5000  plane waves:    3140
 k-point  27 :   0.1667-0.1667 0.5000  plane waves:    3140
 k-point  28 :   0.3333 0.1667 0.5000  plane waves:    3134
 k-point  29 :   0.3333-0.1667 0.5000  plane waves:    3134
 k-point  30 :   0.5000 0.1667 0.5000  plane waves:    3144
 k-point  31 :   0.0000 0.3333 0.5000  plane waves:    3130
 k-point  32 :   0.1667 0.3333 0.5000  plane waves:    3148
 k-point  33 :   0.1667-0.3333 0.5000  plane waves:    3148
 k-point  34 :   0.3333 0.3333 0.5000  plane waves:    3142
 k-point  35 :   0.3333-0.3333 0.5000  plane waves:    3142
 k-point  36 :   0.5000 0.3333 0.5000  plane waves:    3152
 k-point  37 :   0.0000 0.5000 0.5000  plane waves:    3132
 k-point  38 :   0.1667 0.5000 0.5000  plane waves:    3148
 k-point  39 :   0.3333 0.5000 0.5000  plane waves:    3140
 k-point  40 :   0.5000 0.5000 0.5000  plane waves:    3160

 maximum and minimum number of plane-waves per node :       659      606

 maximum number of plane-waves:      3160
 maximum index in each direction: 
   IXMAX=    5   IYMAX=    7   IZMAX=   17
   IXMIN=   -6   IYMIN=   -7   IZMIN=  -18


 parallel 3D FFT for wavefunctions:
    minimum data exchange during FFTs selected (reduces bandwidth)
 parallel 3D FFT for charge:
    minimum data exchange during FFTs selected (reduces bandwidth)


 total amount of memory used by VASP MPI-rank0    37119. kBytes
=======================================================================

   base      :      30000. kBytes
   nonl-proj :       5406. kBytes
   fftplans  :        334. kBytes
   grid      :        503. kBytes
   one-center:         16. kBytes
   wavefun   :        860. kBytes
 
     INWAV:  cpu time      0.0000: real time      0.0001
 Broyden mixing: mesh for mixing (old mesh)
   NGX = 11   NGY = 15   NGZ = 35
  (NGX  = 36   NGY  = 48   NGZ  =108)
  gives a total of   5775 points

 initial charge density was supplied:
 charge density of overlapping atoms calculated
 number of electron      40.0000000 magnetization 
 keeping initial charge density in first step


--------------------------------------------------------------------------------------------------------


 Maximum index for augmentation-charges           250 (set IRDMAX)


--------------------------------------------------------------------------------------------------------


 First call to EWALD:  gamma=   0.302
 Maximum number of real-space cells 4x 3x 2
 Maximum number of reciprocal cells 2x 2x 5

    FEWALD:  cpu time      0.0011: real time      0.0011


--------------------------------------- Ionic step        1  -------------------------------------------




--------------------------------------- Iteration      1(   1)  ---------------------------------------


    POTLOK:  cpu time      0.0083: real time      0.0084
    SETDIJ:  cpu time      0.2189: real time      0.2193
     EDDAV:  cpu time      0.3031: real time      0.3045
       DOS:  cpu time      0.0010: real time      0.0010
    --------------------------------------------
      LOOP:  cpu time      0.5312: real time      0.5332

 eigenvalue-minimisations  :  2560
 total energy-change (2. order) : 0.1319346E+03  (-0.1287337E+04)
 number of electron      40.0000000 magnetization 
 augmentation part       40.0000000 magnetization 

 Free energy of the ion-electron system (eV)
  ---------------------------------------------------
  alpha Z        PSCENC =        83.74935623
  Ewald energy   TEWEN  =     -1382.50115087
  -Hartree energ DENC   =      -146.69998006
  -exchange      EXHF   =         0.00000000
  -V(xc)+E(xc)   XCENC  =       -33.71497885
  PAW double counting   =      1193.78262552    -1080.73714043
  entropy T*S    EENTRO =        -0.00207741
  eigenvalues    EBANDS =        49.57336935
  atomic energy  EATOM  =      1448.48460880
  Solvation  Ediel_sol  =         0.00000000
  ---------------------------------------------------
  free energy    TOTEN  =       131.93463227 eV

  energy without entropy =      131.93670968  energy(sigma->0) =      131.93567097


--------------------------------------------------------------------------------------------------------




--------------------------------------- Iteration      1(   2)  ---------------------------------------


     EDDAV:  cpu time      0.4378: real time      0.4406
       DOS:  cpu time      0.0009: real time      0.0009
    --------------------------------------------
      LOOP:  cpu time      0.4387: real time      0.4416

 eigenvalue-minimisations  :  3744
 total energy-change (2. order) :-0.1569605E+03  (-0.1523965E+03)
 number of electron      40.0000000 magnetization 
 augmentation part       40.0000000 magnetization 

 Free energy of the ion-electron system (eV)
  ---------------------------------------------------
  alpha Z        PSCENC =        83.74935623
  Ewald energy   TEWEN  =     -1382.50115087
  -Hartree energ DENC   =      -146.69998006
  -exchange      EXHF   =         0.00000000
  -V(xc)+E(xc)   XCENC  =       -33.71497885
  PAW double counting   =      1193.78262552    -1080.73714043
  entropy T*S    EENTRO =        -0.00005913
  eigenvalues    EBANDS =      -107.38918476
  atomic energy  EATOM  =      1448.48460880
  Solvation  Ediel_sol  =         0.00000000
  ---------------------------------------------------
  free energy    TOTEN  =       -25.02590356 eV

  energy without entropy =      -25.02584443  energy(sigma->0) =      -25.02587400


--------------------------------------------------------------------------------------------------------




--------------------------------------- Iteration      1(   3)  ---------------------------------------


     EDDAV:  cpu time      0.3932: real time      0.3949
       DOS:  cpu time      0.0008: real time      0.0008
    --------------------------------------------
      LOOP:  cpu time      0.3940: real time      0.3956

 eigenvalue-minimisations  :  3216
 total energy-change (2. order) :-0.8871100E+01  (-0.8850776E+01)
 number of electron      40.0000000 magnetization 
 augmentation part       40.0000000 magnetization 

 Free energy of the ion-electron system (eV)
  ---------------------------------------------------
  alpha Z        PSCENC =        83.74935623
  Ewald energy   TEWEN  =     -1382.50115087
  -Hartree energ DENC   =      -146.69998006
  -exchange      EXHF   =         0.00000000
  -V(xc)+E(xc)   XCENC  =       -33.71497885
  PAW double counting   =      1193.78262552    -1080.73714043
  entropy T*S    EENTRO =        -0.00000001
  eigenvalues    EBANDS =      -116.26034384
  atomic energy  EATOM  =      1448.48460880
  Solvation  Ediel_sol  =         0.00000000
  ---------------------------------------------------
  free energy    TOTEN  =       -33.89700352 eV

  energy without entropy =      -33.89700351  energy(sigma->0) =      -33.89700352


--------------------------------------------------------------------------------------------------------




--------------------------------------- Iteration      1(   4)  ---------------------------------------


     EDDAV:  cpu time      0.4149: real time      0.4165
       DOS:  cpu time      0.0007: real time      0.0007
    --------------------------------------------
      LOOP:  cpu time      0.4156: real time      0.4172

 eigenvalue-minimisations  :  3232
 total energy-change (2. order) :-0.6476400E-01  (-0.6474998E-01)
 number of electron      40.0000000 magnetization 
 augmentation part       40.0000000 magnetization 

 Free energy of the ion-electron system (eV)
  ---------------------------------------------------
  alpha Z        PSCENC =        83.74935623
  Ewald energy   TEWEN  =     -1382.50115087
  -Hartree energ DENC   =      -146.69998006
  -exchange      EXHF   =         0.00000000
  -V(xc)+E(xc)   XCENC  =       -33.71497885
  PAW double counting   =      1193.78262552    -1080.73714043
  entropy T*S    EENTRO =        -0.00000001
  eigenvalues    EBANDS =      -116.32510785
  atomic energy  EATOM  =      1448.48460880
  Solvation  Ediel_sol  =         0.00000000
  ---------------------------------------------------
  free energy    TOTEN  =       -33.96176752 eV

  energy without entropy =      -33.96176752  energy(sigma->0) =      -33.96176752


--------------------------------------------------------------------------------------------------------




--------------------------------------- Iteration      1(   5)  ---------------------------------------


     EDDAV:  cpu time      0.3735: real time      0.3754
       DOS:  cpu time      0.0006: real time      0.0006
    CHARGE:  cpu time      0.0056: real time      0.0056
    MIXING:  cpu time      0.0004: real time      0.0004
    --------------------------------------------
      LOOP:  cpu time      0.3802: real time      0.3821

 eigenvalue-minimisations  :  3216
 total energy-change (2. order) :-0.4609677E-03  (-0.4609538E-03)
 number of electron      39.9999946 magnetization 
 augmentation part       -7.4313826 magnetization 

 Broyden mixing:
  rms(total) = 0.65441E+00    rms(broyden)= 0.65439E+00
  rms(prec ) = 0.73577E+00
  weight for this iteration     100.00

 Free energy of the ion-electron system (eV)
  ---------------------------------------------------
  alpha Z        PSCENC =        83.74935623
  Ewald energy   TEWEN  =     -1382.50115087
  -Hartree energ DENC   =      -146.69998006
  -exchange      EXHF   =         0.00000000
  -V(xc)+E(xc)   XCENC  =       -33.71497885
  PAW double counting   =      1193.78262552    -1080.73714043
  entropy T*S    EENTRO =        -0.00000001
  eigenvalues    EBANDS =      -116.32556881
  atomic energy  EATOM  =      1448.48460880
  Solvation  Ediel_sol  =         0.00000000
  ---------------------------------------------------
  free energy    TOTEN  =       -33.96222849 eV

  energy without entropy =      -33.96222848  energy(sigma->0) =      -33.96222849


--------------------------------------------------------------------------------------------------------




--------------------------------------- Iteration      1(   6)  ---------------------------------------


    POTLOK:  cpu time      0.0076: real time      0.0078
    SETDIJ:  cpu time      0.2186: real time      0.2191
     EDDAV:  cpu time      0.3792: real time      0.3809
       DOS:  cpu time      0.0010: real time      0.0010
    CHARGE:  cpu time      0.0053: real time      0.0053
    MIXING:  cpu time      0.0005: real time      0.0005
    --------------------------------------------
      LOOP:  cpu time      0.6123: real time      0.6145

 eigenvalue-minimisations  :  3216
 total energy-change (2. order) : 0.4090690E+00  (-0.8505749E-01)
 number of electron      39.9999948 magnetization 
 augmentation part       -7.3684366 magnetization 

 Broyden mixing:
  rms(total) = 0.41216E+00    rms(broyden)= 0.41216E+00
  rms(prec ) = 0.43207E+00
  weight for this iteration     100.00

 eigenvalues of (default mixing * dielectric matrix)
  average eigenvalue GAMMA=   2.1563
  2.1563

 Free energy of the ion-electron system (eV)
  ---------------------------------------------------
  alpha Z        PSCENC =        83.74935623
  Ewald energy   TEWEN  =     -1382.50115087
  -Hartree energ DENC   =      -153.04885945
  -exchange      EXHF   =         0.00000000
  -V(xc)+E(xc)   XCENC  =       -33.08869412
  PAW double counting   =      1456.85118042    -1344.12201054
  entropy T*S    EENTRO =        -0.00064092
  eigenvalues    EBANDS =      -109.87694905
  atomic energy  EATOM  =      1448.48460880
  Solvation  Ediel_sol  =         0.00000000
  ---------------------------------------------------
  free energy    TOTEN  =       -33.55315950 eV

  energy without entropy =      -33.55251858  energy(sigma->0) =      -33.55283904


--------------------------------------------------------------------------------------------------------




--------------------------------------- Iteration      1(   7)  ---------------------------------------


    POTLOK:  cpu time      0.0076: real time      0.0078
    SETDIJ:  cpu time      0.2233: real time      0.2241
     EDDAV:  cpu time      0.3647: real time      0.3666
       DOS:  cpu time      0.0009: real time      0.0009
    CHARGE:  cpu time      0.0053: real time      0.0053
    MIXING:  cpu time      0.0005: real time      0.0005
    --------------------------------------------
      LOOP:  cpu time      0.6023: real time      0.6051

 eigenvalue-minimisations  :  3120
 total energy-change (2. order) : 0.7454314E-02  (-0.2305028E-01)
 number of electron      39.9999948 magnetization 
 augmentation part       -7.3489716 magnetization 

 Broyden mixing:
  rms(total) = 0.13533E+00    rms(broyden)= 0.13533E+00
  rms(prec ) = 0.14406E+00
  weight for this iteration     100.00

 eigenvalues of (default mixing * dielectric matrix)
  average eigenvalue GAMMA=   1.7935
  1.2055  2.3814

 Free energy of the ion-electron system (eV)
  ---------------------------------------------------
  alpha Z        PSCENC =        83.74935623
  Ewald energy   TEWEN  =     -1382.50115087
  -Hartree energ DENC   =      -155.94344265
  -exchange      EXHF   =         0.00000000
  -V(xc)+E(xc)   XCENC  =       -32.61613914
  PAW double counting   =      1777.92929716    -1665.42586781
  entropy T*S    EENTRO =        -0.00042290
  eigenvalues    EBANDS =      -107.22194401
  atomic energy  EATOM  =      1448.48460880
  Solvation  Ediel_sol  =         0.00000000
  ---------------------------------------------------
  free energy    TOTEN  =       -33.54570519 eV

  energy without entropy =      -33.54528229  energy(sigma->0) =      -33.54549374


--------------------------------------------------------------------------------------------------------




--------------------------------------- Iteration      1(   8)  ---------------------------------------


    POTLOK:  cpu time      0.0076: real time      0.0077
    SETDIJ:  cpu time      0.2222: real time      0.2227
     EDDAV:  cpu time      0.3775: real time      0.3796
       DOS:  cpu time      0.0010: real time      0.0010
    CHARGE:  cpu time      0.0055: real time      0.0055
    MIXING:  cpu time      0.0005: real time      0.0005
    --------------------------------------------
      LOOP:  cpu time      0.6143: real time      0.6170

 eigenvalue-minimisations  :  2976
 total energy-change (2. order) : 0.1418109E-02  (-0.2827074E-02)
 number of electron      39.9999948 magnetization 
 augmentation part       -7.3589629 magnetization 

 Broyden mixing:
  rms(total) = 0.17922E-01    rms(broyden)= 0.17922E-01
  rms(prec ) = 0.22583E-01
  weight for this iteration     100.00

 eigenvalues of (default mixing * dielectric matrix)
  average eigenvalue GAMMA=   1.6824
  2.5008  1.2732  1.2732

 Free energy of the ion-electron system (eV)
  ---------------------------------------------------
  alpha Z        PSCENC =        83.74935623
  Ewald energy   TEWEN  =     -1382.50115087
  -Hartree energ DENC   =      -156.07310399
  -exchange      EXHF   =         0.00000000
  -V(xc)+E(xc)   XCENC  =       -32.47265355
  PAW double counting   =      1920.82113729    -1808.37497843
  entropy T*S    EENTRO =        -0.00051273
  eigenvalues    EBANDS =      -107.17698983
  atomic energy  EATOM  =      1448.48460880
  Solvation  Ediel_sol  =         0.00000000
  ---------------------------------------------------
  free energy    TOTEN  =       -33.54428708 eV

  energy without entropy =      -33.54377435  energy(sigma->0) =      -33.54403071


--------------------------------------------------------------------------------------------------------




--------------------------------------- Iteration      1(   9)  ---------------------------------------


    POTLOK:  cpu time      0.0077: real time      0.0078
    SETDIJ:  cpu time      0.2187: real time      0.2193
     EDDAV:  cpu time      0.3865: real time      0.3883
       DOS:  cpu time      0.0010: real time      0.0010
    CHARGE:  cpu time      0.0054: real time      0.0054
    MIXING:  cpu time      0.0005: real time      0.0005
    --------------------------------------------
      LOOP:  cpu time      0.6198: real time      0.6223

 eigenvalue-minimisations  :  3280
 total energy-change (2. order) :-0.3027886E-03  (-0.4434810E-03)
 number of electron      39.9999948 magnetization 
 augmentation part       -7.3562283 magnetization 

 Broyden mixing:
  rms(total) = 0.69546E-02    rms(broyden)= 0.69546E-02
  rms(prec ) = 0.80842E-02
  weight for this iteration     100.00

 eigenvalues of (default mixing * dielectric matrix)
  average eigenvalue GAMMA=   1.7396
  2.3182  2.3182  1.1609  1.1609

 Free energy of the ion-electron system (eV)
  ---------------------------------------------------
  alpha Z        PSCENC =        83.74935623
  Ewald energy   TEWEN  =     -1382.50115087
  -Hartree energ DENC   =      -156.52718005
  -exchange      EXHF   =         0.00000000
  -V(xc)+E(xc)   XCENC  =       -32.42577054
  PAW double counting   =      1933.95665097    -1821.52158792
  entropy T*S    EENTRO =        -0.00049879
  eigenvalues    EBANDS =      -106.75901768
  atomic energy  EATOM  =      1448.48460880
  Solvation  Ediel_sol  =         0.00000000
  ---------------------------------------------------
  free energy    TOTEN  =       -33.54458987 eV

  energy without entropy =      -33.54409107  energy(sigma->0) =      -33.54434047


--------------------------------------------------------------------------------------------------------




--------------------------------------- Iteration      1(  10)  ---------------------------------------


    POTLOK:  cpu time      0.0076: real time      0.0078
    SETDIJ:  cpu time      0.2180: real time      0.2186
     EDDAV:  cpu time      0.3766: real time      0.3785
       DOS:  cpu time      0.0009: real time      0.0009
    CHARGE:  cpu time      0.0054: real time      0.0054
    MIXING:  cpu time      0.0005: real time      0.0005
    --------------------------------------------
      LOOP:  cpu time      0.6090: real time      0.6116

 eigenvalue-minimisations  :  3120
 total energy-change (2. order) :-0.1560482E-03  (-0.4104372E-04)
 number of electron      39.9999948 magnetization 
 augmentation part       -7.3566140 magnetization 

 Broyden mixing:
  rms(total) = 0.23958E-02    rms(broyden)= 0.23958E-02
  rms(prec ) = 0.29497E-02
  weight for this iteration     100.00

 eigenvalues of (default mixing * dielectric matrix)
  average eigenvalue GAMMA=   1.7347
  2.6116  2.6116  1.1529  1.1529  1.1445

 Free energy of the ion-electron system (eV)
  ---------------------------------------------------
  alpha Z        PSCENC =        83.74935623
  Ewald energy   TEWEN  =     -1382.50115087
  -Hartree energ DENC   =      -156.53818558
  -exchange      EXHF   =         0.00000000
  -V(xc)+E(xc)   XCENC  =       -32.42250966
  PAW double counting   =      1927.98914585    -1815.54819604
  entropy T*S    EENTRO =        -0.00051257
  eigenvalues    EBANDS =      -106.75730207
  atomic energy  EATOM  =      1448.48460880
  Solvation  Ediel_sol  =         0.00000000
  ---------------------------------------------------
  free energy    TOTEN  =       -33.54474591 eV

  energy without entropy =      -33.54423335  energy(sigma->0) =      -33.54448963


--------------------------------------------------------------------------------------------------------




--------------------------------------- Iteration      1(  11)  ---------------------------------------


    POTLOK:  cpu time      0.0092: real time      0.0093
    SETDIJ:  cpu time      0.2165: real time      0.2169
     EDDAV:  cpu time      0.3703: real time      0.3723
       DOS:  cpu time      0.0010: real time      0.0010
    CHARGE:  cpu time      0.0056: real time      0.0057
    MIXING:  cpu time      0.0005: real time      0.0005
    --------------------------------------------
      LOOP:  cpu time      0.6032: real time      0.6057

 eigenvalue-minimisations  :  3216
 total energy-change (2. order) :-0.4683511E-04  (-0.6199364E-05)
 number of electron      39.9999948 magnetization 
 augmentation part       -7.3565950 magnetization 

 Broyden mixing:
  rms(total) = 0.12446E-02    rms(broyden)= 0.12446E-02
  rms(prec ) = 0.14425E-02
  weight for this iteration     100.00

 eigenvalues of (default mixing * dielectric matrix)
  average eigenvalue GAMMA=   1.7725
  2.5608  2.5608  2.2640  1.1359  1.1359  0.9777

 Free energy of the ion-electron system (eV)
  ---------------------------------------------------
  alpha Z        PSCENC =        83.74935623
  Ewald energy   TEWEN  =     -1382.50115087
  -Hartree energ DENC   =      -156.58861398
  -exchange      EXHF   =         0.00000000
  -V(xc)+E(xc)   XCENC  =       -32.41524724
  PAW double counting   =      1928.56417175    -1816.12312241
  entropy T*S    EENTRO =        -0.00051354
  eigenvalues    EBANDS =      -106.71428148
  atomic energy  EATOM  =      1448.48460880
  Solvation  Ediel_sol  =         0.00000000
  ---------------------------------------------------
  free energy    TOTEN  =       -33.54479275 eV

  energy without entropy =      -33.54427921  energy(sigma->0) =      -33.54453598


--------------------------------------------------------------------------------------------------------




--------------------------------------- Iteration      1(  12)  ---------------------------------------


    POTLOK:  cpu time      0.0077: real time      0.0078
    SETDIJ:  cpu time      0.2209: real time      0.2215
     EDDAV:  cpu time      0.3949: real time      0.3968
       DOS:  cpu time      0.0010: real time      0.0010
    CHARGE:  cpu time      0.0056: real time      0.0056
    MIXING:  cpu time      0.0005: real time      0.0005
    --------------------------------------------
      LOOP:  cpu time      0.6306: real time      0.6334

 eigenvalue-minimisations  :  3264
 total energy-change (2. order) :-0.3101590E-05  (-0.1253353E-05)
 number of electron      39.9999948 magnetization 
 augmentation part       -7.3564585 magnetization 

 Broyden mixing:
  rms(total) = 0.33709E-03    rms(broyden)= 0.33708E-03
  rms(prec ) = 0.44594E-03
  weight for this iteration     100.00

 eigenvalues of (default mixing * dielectric matrix)
  average eigenvalue GAMMA=   1.7310
  2.9998  2.3922  2.2206  1.0077  1.0906  1.0906  1.3155

 Free energy of the ion-electron system (eV)
  ---------------------------------------------------
  alpha Z        PSCENC =        83.74935623
  Ewald energy   TEWEN  =     -1382.50115087
  -Hartree energ DENC   =      -156.60744876
  -exchange      EXHF   =         0.00000000
  -V(xc)+E(xc)   XCENC  =       -32.41355214
  PAW double counting   =      1928.26055572    -1815.81963310
  entropy T*S    EENTRO =        -0.00051185
  eigenvalues    EBANDS =      -106.69701988
  atomic energy  EATOM  =      1448.48460880
  Solvation  Ediel_sol  =         0.00000000
  ---------------------------------------------------
  free energy    TOTEN  =       -33.54479585 eV

  energy without entropy =      -33.54428400  energy(sigma->0) =      -33.54453993


--------------------------------------------------------------------------------------------------------




--------------------------------------- Iteration      1(  13)  ---------------------------------------


    POTLOK:  cpu time      0.0079: real time      0.0080
    SETDIJ:  cpu time      0.2177: real time      0.2183
     EDDAV:  cpu time      0.3276: real time      0.3291
       DOS:  cpu time      0.0009: real time      0.0009
    --------------------------------------------
      LOOP:  cpu time      0.5541: real time      0.5563

 eigenvalue-minimisations  :  2640
 total energy-change (2. order) :-0.6635503E-06  (-0.2624590E-06)
 number of electron      39.9999948 magnetization 
 augmentation part       -7.3564585 magnetization 

 Free energy of the ion-electron system (eV)
  ---------------------------------------------------
  alpha Z        PSCENC =        83.74935623
  Ewald energy   TEWEN  =     -1382.50115087
  -Hartree energ DENC   =      -156.61040282
  -exchange      EXHF   =         0.00000000
  -V(xc)+E(xc)   XCENC  =       -32.41298096
  PAW double counting   =      1928.34046480    -1815.89940450
  entropy T*S    EENTRO =        -0.00051256
  eigenvalues    EBANDS =      -106.69477463
  atomic energy  EATOM  =      1448.48460880
  Solvation  Ediel_sol  =         0.00000000
  ---------------------------------------------------
  free energy    TOTEN  =       -33.54479651 eV

  energy without entropy =      -33.54428395  energy(sigma->0) =      -33.54454023


--------------------------------------------------------------------------------------------------------




 average (electrostatic) potential at core
  the test charge radii are     1.1631  1.0808
  (the norm of the test charge is              1.0000)
       1 -33.7944       2 -33.7944       3 -33.7944       4 -33.7944       5 -55.3075
       6 -55.3075       7 -55.3075       8 -55.3075
 
 
 
 E-fermi :   3.0913     XC(G=0):  -9.0529     alpha+bet : -8.3433

 Fermi energy:         3.0912589291

 k-point     1 :       0.0000    0.0000    0.0000
  band No.  band energies     occupation 
      1     -11.2219      2.00000
      2     -11.0149      2.00000
      3      -9.9523      2.00000
      4      -9.6611      2.00000
      5      -4.9933      2.00000
      6      -4.4492      2.00000
      7      -2.8457      2.00000
      8      -2.8303      2.00000
      9      -2.0665      2.00000
     10      -0.7163      2.00000
     11      -0.3709      2.00000
     12      -0.3357      2.00000
     13      -0.0903      2.00000
     14       0.1507      2.00000
     15       1.0016      2.00000
     16       1.1372      2.00000
     17       1.4814      2.00000
     18       1.6981      2.00000
     19       2.0336      2.00000
     20       3.0577      1.65731
     21       3.1244      0.34900
     22       5.2081      0.00000
     23       5.6964      0.00000
     24       5.6966      0.00000
     25       6.1748      0.00000
     26       6.5962      0.00000
     27       6.9516      0.00000
     28       7.0641      0.00000
     29       7.7559      0.00000
     30       7.9865      0.00000
     31       8.0783      0.00000
     32       8.4377      0.00000

 k-point     2 :       0.1667    0.0000    0.0000
  band No.  band energies     occupation 
      1     -11.0357      2.00000
      2     -10.8382      2.00000
      3      -9.8457      2.00000
      4      -9.5946      2.00000
      5      -5.1940      2.00000
      6      -4.7001      2.00000
      7      -3.3600      2.00000
      8      -3.1607      2.00000
      9      -1.9355      2.00000
     10      -0.5705      2.00000
     11      -0.4919      2.00000
     12      -0.2522      2.00000
     13      -0.1069      2.00000
     14       0.0124      2.00000
     15       0.8242      2.00000
     16       0.9659      2.00000
     17       1.5908      2.00000
     18       1.8326      2.00000
     19       1.9117      2.00000
     20       2.9868      1.99688
     21       3.3214      0.00000
     22       5.1995      0.00000
     23       5.6473      0.00000
     24       5.9106      0.00000
     25       6.0763      0.00000
     26       6.3714      0.00000
     27       6.5847      0.00000
     28       7.0997      0.00000
     29       7.3379      0.00000
     30       7.4443      0.00000
     31       7.6589      0.00000
     32       8.1203      0.00000

 k-point     3 :       0.3333    0.0000    0.0000
  band No.  band energies     occupation 
      1     -10.5294      2.00000
      2     -10.3686      2.00000
      3      -9.6790      2.00000
      4      -9.5610      2.00000
      5      -5.5917      2.00000
      6      -5.1505      2.00000
      7      -4.5178      2.00000
      8      -4.1251      2.00000
      9      -1.3842      2.00000
     10      -0.5154      2.00000
     11      -0.3742      2.00000
     12       0.1050      2.00000
     13       0.2227      2.00000
     14       0.5088      2.00000
     15       0.7705      2.00000
     16       0.9411      2.00000
     17       1.2546      2.00000
     18       1.7456      2.00000
     19       2.1682      2.00000
     20       2.5621      2.00000
     21       3.9153      0.00000
     22       3.9391      0.00000
     23       4.4615      0.00000
     24       5.1336      0.00000
     25       5.1784      0.00000
     26       5.2731      0.00000
     27       5.6169      0.00000
     28       6.3586      0.00000
     29       6.4000      0.00000
     30       6.8503      0.00000
     31       7.0568      0.00000
     32       7.9741      0.00000

 k-point     4 :       0.5000    0.0000    0.0000
  band No.  band energies     occupation 
      1      -9.9104      2.00000
      2      -9.9104      2.00000
      3      -9.8433      2.00000
      4      -9.8433      2.00000
      5      -5.4594      2.00000
      6      -5.4594      2.00000
      7      -5.0066      2.00000
      8      -5.0066      2.00000
      9      -0.6397      2.00000
     10      -0.6397      2.00000
     11       0.1120      2.00000
     12       0.1120      2.00000
     13       0.6821      2.00000
     14       0.6821      2.00000
     15       0.7890      2.00000
     16       0.7890      2.00000
     17       1.3524      2.00000
     18       1.3524      2.00000
     19       2.1687      2.00000
     20       2.1687      2.00000
     21       3.8608      0.00000
     22       3.8608      0.00000
     23       4.5107      0.00000
     24       4.5107      0.00000
     25       4.9674      0.00000
     26       4.9674      0.00000
     27       5.1074      0.00000
     28       5.1074      0.00000
     29       5.7079      0.00000
     30       5.7079      0.00000
     31       7.4210      0.00000
     32       7.4210      0.00000

 k-point     5 :       0.0000    0.1667    0.0000
  band No.  band energies     occupation 
      1     -11.1058      2.00000
      2     -10.9102      2.00000
      3      -9.9589      2.00000
      4      -9.7205      2.00000
      5      -5.2184      2.00000
      6      -4.6844      2.00000
      7      -3.6642      2.00000
      8      -3.0836      2.00000
      9      -1.8926      2.00000
     10      -0.2777      2.00000
     11       0.0156      2.00000
     12       0.0468      2.00000
     13       0.1361      2.00000
     14       0.2807      2.00000
     15       1.1709      2.00000
     16       1.4645      2.00000
     17       1.4703      2.00000
     18       1.6056      2.00000
     19       2.0744      2.00000
     20       2.9419      1.99998
     21       3.4575      0.00000
     22       5.1726      0.00000
     23       5.3827      0.00000
     24       5.6032      0.00000
     25       5.7841      0.00000
     26       6.1937      0.00000
     27       6.4777      0.00000
     28       7.0770      0.00000
     29       7.1972      0.00000
     30       7.4401      0.00000
     31       7.8961      0.00000
     32       8.5338      0.00000

 k-point     6 :       0.1667    0.1667    0.0000
  band No.  band energies     occupation 
      1     -10.9257      2.00000
      2     -10.7386      2.00000
      3      -9.8545      2.00000
      4      -9.6468      2.00000
      5      -5.3152      2.00000
      6      -4.7785      2.00000
      7      -3.7813      2.00000
      8      -3.4330      2.00000
      9      -1.7520      2.00000
     10      -1.0590      2.00000
     11      -0.7824      2.00000
     12      -0.0831      2.00000
     13       0.3503      2.00000
     14       0.6154      2.00000
     15       0.8744      2.00000
     16       0.9153      2.00000
     17       1.5401      2.00000
     18       1.9626      2.00000
     19       2.2314      2.00000
     20       2.8195      2.00000
     21       3.6151      0.00000
     22       4.9289      0.00000
     23       5.0796      0.00000
     24       5.3754      0.00000
     25       6.0699      0.00000
     26       6.5261      0.00000
     27       6.6754      0.00000
     28       7.2025      0.00000
     29       7.3610      0.00000
     30       7.3678      0.00000
     31       7.4054      0.00000
     32       8.0689      0.00000

 k-point     7 :       0.1667   -0.1667    0.0000
  band No.  band energies     occupation 
      1     -10.9246      2.00000
      2     -10.7397      2.00000
      3      -9.8520      2.00000
      4      -9.6496      2.00000
      5      -5.3000      2.00000
      6      -4.7948      2.00000
      7      -3.8576      2.00000
      8      -3.3425      2.00000
      9      -1.7426      2.00000
     10      -1.0792      2.00000
     11      -0.7443      2.00000
     12      -0.1148      2.00000
     13       0.3489      2.00000
     14       0.5874      2.00000
     15       0.8677      2.00000
     16       0.9194      2.00000
     17       1.4825      2.00000
     18       2.0127      2.00000
     19       2.1860      2.00000
     20       2.9321      1.99999
     21       3.6391      0.00000
     22       4.8377      0.00000
     23       5.1430      0.00000
     24       5.4301      0.00000
     25       6.0111      0.00000
     26       6.5458      0.00000
     27       6.6399      0.00000
     28       7.0309      0.00000
     29       7.2579      0.00000
     30       7.3313      0.00000
     31       7.5343      0.00000
     32       8.3624      0.00000

 k-point     8 :       0.3333    0.1667    0.0000
  band No.  band energies     occupation 
      1     -10.4415      2.00000
      2     -10.2890      2.00000
      3      -9.6831      2.00000
      4      -9.5807      2.00000
      5      -5.5479      2.00000
      6      -5.0458      2.00000
      7      -4.5095      2.00000
      8      -4.2358      2.00000
      9      -1.3081      2.00000
     10      -1.2988      2.00000
     11      -1.0853      2.00000
     12      -0.1949      2.00000
     13       0.2082      2.00000
     14       0.5657      2.00000
     15       0.5950      2.00000
     16       0.9902      2.00000
     17       1.1872      2.00000
     18       1.6610      2.00000
     19       1.9776      2.00000
     20       2.5227      2.00000
     21       3.7540      0.00000
     22       4.6425      0.00000
     23       4.7006      0.00000
     24       5.1200      0.00000
     25       5.2829      0.00000
     26       5.8220      0.00000
     27       6.2072      0.00000
     28       6.9731      0.00000
     29       7.0905      0.00000
     30       7.4994      0.00000
     31       7.7238      0.00000
     32       7.8730      0.00000

 k-point     9 :       0.3333   -0.1667    0.0000
  band No.  band energies     occupation 
      1     -10.4390      2.00000
      2     -10.2916      2.00000
      3      -9.6768      2.00000
      4      -9.5876      2.00000
      5      -5.5161      2.00000
      6      -5.0796      2.00000
      7      -4.5884      2.00000
      8      -4.1498      2.00000
      9      -1.3025      2.00000
     10      -1.2954      2.00000
     11      -1.0607      2.00000
     12      -0.2111      2.00000
     13       0.2401      2.00000
     14       0.4959      2.00000
     15       0.5631      2.00000
     16       0.9897      2.00000
     17       1.1917      2.00000
     18       1.6396      2.00000
     19       1.9146      2.00000
     20       2.7070      2.00000
     21       3.7455      0.00000
     22       4.6152      0.00000
     23       4.6644      0.00000
     24       5.2442      0.00000
     25       5.3174      0.00000
     26       5.7890      0.00000
     27       6.2361      0.00000
     28       6.7719      0.00000
     29       6.8123      0.00000
     30       7.4941      0.00000
     31       7.8706      0.00000
     32       8.0672      0.00000

 k-point    10 :       0.5000    0.1667    0.0000
  band No.  band energies     occupation 
      1      -9.8710      2.00000
      2      -9.8687      2.00000
      3      -9.8081      2.00000
      4      -9.8061      2.00000
      5      -5.3919      2.00000
      6      -5.3505      2.00000
      7      -4.9630      2.00000
      8      -4.9195      2.00000
      9      -0.8829      2.00000
     10      -0.8549      2.00000
     11      -0.4728      2.00000
     12      -0.4716      2.00000
     13      -0.0591      2.00000
     14       0.0400      2.00000
     15       0.4395      2.00000
     16       0.4479      2.00000
     17       1.2997      2.00000
     18       1.3294      2.00000
     19       2.1682      2.00000
     20       2.2805      2.00000
     21       4.0557      0.00000
     22       4.0582      0.00000
     23       4.8642      0.00000
     24       4.9103      0.00000
     25       5.6411      0.00000
     26       5.8265      0.00000
     27       6.1346      0.00000
     28       6.1668      0.00000
     29       6.6039      0.00000
     30       6.6426      0.00000
     31       7.1921      0.00000
     32       7.4632      0.00000

 k-point    11 :       0.0000    0.3333    0.0000
  band No.  band energies     occupation 
      1     -10.7848      2.00000
      2     -10.6290      2.00000
      3     -10.0459      2.00000
      4      -9.9387      2.00000
      5      -5.4958      2.00000
      6      -4.9235      2.00000
      7      -4.6509      2.00000
      8      -3.9864      2.00000
      9      -1.3652      2.00000
     10       0.2698      2.00000
     11       0.4289      2.00000
     12       0.6199      2.00000
     13       0.6456      2.00000
     14       0.7925      2.00000
     15       1.1798      2.00000
     16       1.2301      2.00000
     17       1.3588      2.00000
     18       2.5196      2.00000
     19       2.5960      2.00000
     20       2.8014      2.00000
     21       4.1365      0.00000
     22       4.2313      0.00000
     23       4.5324      0.00000
     24       5.2706      0.00000
     25       5.6151      0.00000
     26       5.6249      0.00000
     27       5.8985      0.00000
     28       6.1982      0.00000
     29       6.3662      0.00000
     30       6.8421      0.00000
     31       7.6541      0.00000
     32       8.5984      0.00000

 k-point    12 :       0.1667    0.3333    0.0000
  band No.  band energies     occupation 
      1     -10.6231      2.00000
      2     -10.4741      2.00000
      3      -9.9374      2.00000
      4      -9.8423      2.00000
      5      -5.4460      2.00000
      6      -4.8525      2.00000
      7      -4.5922      2.00000
      8      -4.0505      2.00000
      9      -1.2440      2.00000
     10      -1.0367      2.00000
     11      -0.7292      2.00000
     12      -0.0932      2.00000
     13       0.1850      2.00000
     14       0.4399      2.00000
     15       0.7624      2.00000
     16       1.3563      2.00000
     17       2.0057      2.00000
     18       2.0293      2.00000
     19       2.3290      2.00000
     20       2.6564      2.00000
     21       4.0895      0.00000
     22       4.8528      0.00000
     23       5.2880      0.00000
     24       5.3485      0.00000
     25       5.6094      0.00000
     26       5.7843      0.00000
     27       6.3790      0.00000
     28       7.0405      0.00000
     29       7.3502      0.00000
     30       7.5319      0.00000
     31       7.7427      0.00000
     32       8.1681      0.00000

 k-point    13 :       0.1667   -0.3333    0.0000
  band No.  band energies     occupation 
      1     -10.6209      2.00000
      2     -10.4763      2.00000
      3      -9.9335      2.00000
      4      -9.8464      2.00000
      5      -5.4269      2.00000
      6      -4.8718      2.00000
      7      -4.6338      2.00000
      8      -4.0045      2.00000
      9      -1.2153      2.00000
     10      -1.0626      2.00000
     11      -0.6865      2.00000
     12      -0.1397      2.00000
     13       0.2201      2.00000
     14       0.3628      2.00000
     15       0.7681      2.00000
     16       1.3530      2.00000
     17       1.9853      2.00000
     18       2.0313      2.00000
     19       2.3237      2.00000
     20       2.7498      2.00000
     21       4.0850      0.00000
     22       4.8618      0.00000
     23       5.1979      0.00000
     24       5.3830      0.00000
     25       5.5568      0.00000
     26       5.9436      0.00000
     27       6.4564      0.00000
     28       6.8232      0.00000
     29       7.3343      0.00000
     30       7.4827      0.00000
     31       7.6307      0.00000
     32       8.4553      0.00000

 k-point    14 :       0.3333    0.3333    0.0000
  band No.  band energies     occupation 
      1     -10.2071      2.00000
      2     -10.0870      2.00000
      3      -9.7296      2.00000
      4      -9.6793      2.00000
      5      -5.3895      2.00000
      6      -4.8178      2.00000
      7      -4.6873      2.00000
      8      -4.4216      2.00000
      9      -1.8766      2.00000
     10      -1.5468      2.00000
     11      -1.2512      2.00000
     12      -0.7854      2.00000
     13      -0.5068      2.00000
     14       0.0058      2.00000
     15       0.1854      2.00000
     16       0.6630      2.00000
     17       0.8465      2.00000
     18       1.5241      2.00000
     19       1.9721      2.00000
     20       2.3586      2.00000
     21       3.9530      0.00000
     22       5.4458      0.00000
     23       5.5408      0.00000
     24       5.8832      0.00000
     25       6.5289      0.00000
     26       7.0049      0.00000
     27       7.1275      0.00000
     28       7.4957      0.00000
     29       7.6433      0.00000
     30       7.9588      0.00000
     31       8.1416      0.00000
     32       8.9883      0.00000

 k-point    15 :       0.3333   -0.3333    0.0000
  band No.  band energies     occupation 
      1     -10.2020      2.00000
      2     -10.0920      2.00000
      3      -9.7194      2.00000
      4      -9.6902      2.00000
      5      -5.3371      2.00000
      6      -4.8739      2.00000
      7      -4.7942      2.00000
      8      -4.3064      2.00000
      9      -1.8886      2.00000
     10      -1.5159      2.00000
     11      -1.2286      2.00000
     12      -0.7904      2.00000
     13      -0.5356      2.00000
     14       0.1027      2.00000
     15       0.1125      2.00000
     16       0.6323      2.00000
     17       0.7480      2.00000
     18       1.5624      2.00000
     19       1.8573      2.00000
     20       2.5961      2.00000
     21       3.9854      0.00000
     22       5.3792      0.00000
     23       5.3936      0.00000
     24       6.0074      0.00000
     25       6.6040      0.00000
     26       6.9455      0.00000
     27       7.0058      0.00000
     28       7.3047      0.00000
     29       7.6914      0.00000
     30       8.0983      0.00000
     31       8.1120      0.00000
     32       8.9611      0.00000

 k-point    16 :       0.5000    0.3333    0.0000
  band No.  band energies     occupation 
      1      -9.7874      2.00000
      2      -9.7820      2.00000
      3      -9.7349      2.00000
      4      -9.7301      2.00000
      5      -5.2264      2.00000
      6      -5.1333      2.00000
      7      -4.8462      2.00000
      8      -4.7479      2.00000
      9      -1.4714      2.00000
     10      -1.4571      2.00000
     11      -1.2422      2.00000
     12      -1.2376      2.00000
     13      -0.6611      2.00000
     14      -0.6267      2.00000
     15      -0.0979      2.00000
     16      -0.0499      2.00000
     17       0.6944      2.00000
     18       0.7590      2.00000
     19       2.0504      2.00000
     20       2.2905      2.00000
     21       4.6049      0.00000
     22       4.6930      0.00000
     23       6.2205      0.00000
     24       6.3420      0.00000
     25       6.7085      0.00000
     26       6.7425      0.00000
     27       7.2901      0.00000
     28       7.4870      0.00000
     29       7.9660      0.00000
     30       8.0853      0.00000
     31       8.4814      0.00000
     32       8.4826      0.00000

 k-point    17 :       0.0000    0.5000    0.0000
  band No.  band energies     occupation 
      1     -10.3539      2.00000
      2     -10.3539      2.00000
      3     -10.2760      2.00000
      4     -10.2760      2.00000
      5      -5.3331      2.00000
      6      -5.3331      2.00000
      7      -4.6922      2.00000
      8      -4.6922      2.00000
      9      -0.5933      2.00000
     10      -0.5933      2.00000
     11       0.9097      2.00000
     12       0.9097      2.00000
     13       1.0393      2.00000
     14       1.0393      2.00000
     15       1.1569      2.00000
     16       1.1569      2.00000
     17       2.2372      2.00000
     18       2.2372      2.00000
     19       2.6171      2.00000
     20       2.6171      2.00000
     21       4.4333      0.00000
     22       4.4333      0.00000
     23       4.7170      0.00000
     24       4.7170      0.00000
     25       5.1560      0.00000
     26       5.1560      0.00000
     27       5.6604      0.00000
     28       5.6604      0.00000
     29       6.0562      0.00000
     30       6.0562      0.00000
     31       8.2357      0.00000
     32       8.2357      0.00000

 k-point    18 :       0.1667    0.5000    0.0000
  band No.  band energies     occupation 
      1     -10.2220      2.00000
      2     -10.2197      2.00000
      3     -10.1499      2.00000
      4     -10.1477      2.00000
      5      -5.2421      2.00000
      6      -5.2178      2.00000
      7      -4.6296      2.00000
      8      -4.6050      2.00000
      9      -0.6074      2.00000
     10      -0.5943      2.00000
     11      -0.4987      2.00000
     12      -0.4442      2.00000
     13      -0.2535      2.00000
     14      -0.2100      2.00000
     15       1.0777      2.00000
     16       1.1240      2.00000
     17       2.0849      2.00000
     18       2.2196      2.00000
     19       2.4913      2.00000
     20       2.5092      2.00000
     21       4.5219      0.00000
     22       4.5409      0.00000
     23       5.3619      0.00000
     24       5.4541      0.00000
     25       5.7506      0.00000
     26       5.8209      0.00000
     27       6.6873      0.00000
     28       6.8101      0.00000
     29       7.0196      0.00000
     30       7.0745      0.00000
     31       7.9850      0.00000
     32       8.2021      0.00000

[...]
     32       7.5239      0.00000

 k-point    32 :       0.1667    0.3333    0.5000
  band No.  band energies     occupation 
      1     -10.5558      2.00000
      2     -10.5558      2.00000
      3      -9.8824      2.00000
      4      -9.8824      2.00000
      5      -5.2130      2.00000
      6      -5.2130      2.00000
      7      -4.2933      2.00000
      8      -4.2933      2.00000
      9      -0.9443      2.00000
     10      -0.9443      2.00000
     11      -0.4714      2.00000
     12      -0.4714      2.00000
     13       0.2090      2.00000
     14       0.2090      2.00000
     15       0.9867      2.00000
     16       0.9867      2.00000
     17       2.0413      2.00000
     18       2.0413      2.00000
     19       2.2902      2.00000
     20       2.2902      2.00000
     21       4.9651      0.00000
     22       4.9651      0.00000
     23       5.3838      0.00000
     24       5.3838      0.00000
     25       5.8083      0.00000
     26       5.8083      0.00000
     27       6.5463      0.00000
     28       6.5463      0.00000
     29       7.1751      0.00000
     30       7.1751      0.00000
     31       7.6500      0.00000
     32       7.6500      0.00000

 k-point    33 :       0.1667   -0.3333    0.5000
  band No.  band energies     occupation 
      1     -10.5552      2.00000
      2     -10.5552      2.00000
      3      -9.8831      2.00000
      4      -9.8831      2.00000
      5      -5.2123      2.00000
      6      -5.2123      2.00000
      7      -4.2951      2.00000
      8      -4.2951      2.00000
      9      -0.9557      2.00000
     10      -0.9557      2.00000
     11      -0.4462      2.00000
     12      -0.4462      2.00000
     13       0.2226      2.00000
     14       0.2226      2.00000
     15       0.9550      2.00000
     16       0.9550      2.00000
     17       2.0618      2.00000
     18       2.0618      2.00000
     19       2.2675      2.00000
     20       2.2675      2.00000
     21       4.9863      0.00000
     22       4.9864      0.00000
     23       5.3106      0.00000
     24       5.3106      0.00000
     25       5.8167      0.00000
     26       5.8167      0.00000
     27       6.6128      0.00000
     28       6.6128      0.00000
     29       7.2532      0.00000
     30       7.2532      0.00000
     31       7.6298      0.00000
     32       7.6298      0.00000

 k-point    34 :       0.3333    0.3333    0.5000
  band No.  band energies     occupation 
      1     -10.1522      2.00000
      2     -10.1522      2.00000
      3      -9.6996      2.00000
      4      -9.6996      2.00000
      5      -5.1501      2.00000
      6      -5.1501      2.00000
      7      -4.5316      2.00000
      8      -4.5316      2.00000
      9      -1.7295      2.00000
     10      -1.7295      2.00000
     11      -0.9244      2.00000
     12      -0.9244      2.00000
     13      -0.2736      2.00000
     14      -0.2736      2.00000
     15       0.4035      2.00000
     16       0.4035      2.00000
     17       1.1942      2.00000
     18       1.1942      2.00000
     19       1.9190      2.00000
     20       1.9190      2.00000
     21       5.1814      0.00000
     22       5.1814      0.00000
     23       5.7728      0.00000
     24       5.7728      0.00000
     25       6.4045      0.00000
     26       6.4045      0.00000
     27       7.1910      0.00000
     28       7.1910      0.00000
     29       7.5416      0.00000
     30       7.5416      0.00000
     31       8.8949      0.00000
     32       8.8949      0.00000

 k-point    35 :       0.3333   -0.3333    0.5000
  band No.  band energies     occupation 
      1     -10.1510      2.00000
      2     -10.1510      2.00000
      3      -9.7011      2.00000
      4      -9.7011      2.00000
      5      -5.1464      2.00000
      6      -5.1464      2.00000
      7      -4.5367      2.00000
      8      -4.5367      2.00000
      9      -1.7413      2.00000
     10      -1.7413      2.00000
     11      -0.8888      2.00000
     12      -0.8888      2.00000
     13      -0.2816      2.00000
     14      -0.2816      2.00000
     15       0.3918      2.00000
     16       0.3918      2.00000
     17       1.2243      2.00000
     18       1.2243      2.00000
     19       1.8634      2.00000
     20       1.8634      2.00000
     21       5.2341      0.00000
     22       5.2341      0.00000
     23       5.7235      0.00000
     24       5.7235      0.00000
     25       6.5153      0.00000
     26       6.5153      0.00000
     27       7.1584      0.00000
     28       7.1584      0.00000
     29       7.4917      0.00000
     30       7.4917      0.00000
     31       8.8883      0.00000
     32       8.8883      0.00000

 k-point    36 :       0.5000    0.3333    0.5000
  band No.  band energies     occupation 
      1      -9.7662      2.00000
      2      -9.7662      2.00000
      3      -9.7517      2.00000
      4      -9.7517      2.00000
      5      -5.0632      2.00000
      6      -5.0632      2.00000
      7      -4.9341      2.00000
      8      -4.9341      2.00000
      9      -1.3562      2.00000
     10      -1.3562      2.00000
     11      -1.3033      2.00000
     12      -1.3033      2.00000
     13      -0.4697      2.00000
     14      -0.4697      2.00000
     15      -0.3824      2.00000
     16      -0.3824      2.00000
     17       1.3635      2.00000
     18       1.3635      2.00000
     19       1.4187      2.00000
     20       1.4187      2.00000
     21       5.5006      0.00000
     22       5.5006      0.00000
     23       5.8380      0.00000
     24       5.8380      0.00000
     25       6.6702      0.00000
     26       6.6702      0.00000
     27       6.8242      0.00000
     28       6.8242      0.00000
     29       8.3414      0.00000
     30       8.3414      0.00000
     31       8.3971      0.00000
     32       8.3971      0.00000

 k-point    37 :       0.0000    0.5000    0.5000
  band No.  band energies     occupation 
      1     -10.3422      2.00000
      2     -10.3422      2.00000
      3     -10.2886      2.00000
      4     -10.2886      2.00000
      5      -5.2141      2.00000
      6      -5.2141      2.00000
      7      -4.8554      2.00000
      8      -4.8554      2.00000
      9       0.0453      2.00000
     10       0.0453      2.00000
     11       0.3168      2.00000
     12       0.3168      2.00000
     13       0.9168      2.00000
     14       0.9168      2.00000
     15       1.0339      2.00000
     16       1.0339      2.00000
     17       2.4236      2.00000
     18       2.4236      2.00000
     19       2.4461      2.00000
     20       2.4461      2.00000
     21       4.5271      0.00000
     22       4.5271      0.00000
     23       4.5910      0.00000
     24       4.5910      0.00000
     25       5.7210      0.00000
     26       5.7210      0.00000
     27       5.9497      0.00000
     28       5.9497      0.00000
     29       6.2715      0.00000
     30       6.2715      0.00000
     31       7.1006      0.00000
     32       7.1006      0.00000

 k-point    38 :       0.1667    0.5000    0.5000
  band No.  band energies     occupation 
      1     -10.2088      2.00000
      2     -10.2088      2.00000
      3     -10.1617      2.00000
      4     -10.1617      2.00000
      5      -5.1208      2.00000
      6      -5.1208      2.00000
      7      -4.7648      2.00000
      8      -4.7648      2.00000
      9      -0.5784      2.00000
     10      -0.5784      2.00000
     11      -0.3827      2.00000
     12      -0.3827      2.00000
     13       0.2700      2.00000
     14       0.2700      2.00000
     15       0.4310      2.00000
     16       0.4310      2.00000
     17       2.1124      2.00000
     18       2.1124      2.00000
     19       2.3079      2.00000
     20       2.3079      2.00000
     21       5.2510      0.00000
     22       5.2510      0.00000
     23       5.4324      0.00000
     24       5.4324      0.00000
     25       5.8966      0.00000
     26       5.8966      0.00000
     27       6.6673      0.00000
     28       6.6673      0.00000
     29       7.0895      0.00000
     30       7.0895      0.00000
     31       7.2757      0.00000
     32       7.2757      0.00000

 k-point    39 :       0.3333    0.5000    0.5000
  band No.  band energies     occupation 
      1      -9.9033      2.00000
      2      -9.9033      2.00000
      3      -9.8752      2.00000
      4      -9.8752      2.00000
      5      -4.9891      2.00000
      6      -4.9891      2.00000
      7      -4.7103      2.00000
      8      -4.7103      2.00000
      9      -1.6569      2.00000
     10      -1.6569      2.00000
     11      -1.4481      2.00000
     12      -1.4481      2.00000
     13      -0.0999      2.00000
     14      -0.0999      2.00000
     15      -0.0306      2.00000
     16      -0.0306      2.00000
     17       1.2610      2.00000
     18       1.2610      2.00000
     19       1.5365      2.00000
     20       1.5365      2.00000
     21       5.5945      0.00000
     22       5.5945      0.00000
     23       6.3278      0.00000
     24       6.3278      0.00000
     25       6.8557      0.00000
     26       6.8557      0.00000
     27       7.1945      0.00000
     28       7.1945      0.00000
     29       8.5632      0.00000
     30       8.5632      0.00000
     31       8.6722      0.00000
     32       8.6722      0.00000

 k-point    40 :       0.5000    0.5000    0.5000
  band No.  band energies     occupation 
      1      -9.7203      2.00000
      2      -9.7203      2.00000
      3      -9.7142      2.00000
      4      -9.7142      2.00000
      5      -4.9724      2.00000
      6      -4.9724      2.00000
      7      -4.8412      2.00000
      8      -4.8412      2.00000
      9      -1.5871      2.00000
     10      -1.5871      2.00000
     11      -1.5367      2.00000
     12      -1.5367      2.00000
     13      -0.8655      2.00000
     14      -0.8655      2.00000
     15      -0.7728      2.00000
     16      -0.7728      2.00000
     17       1.3588      2.00000
     18       1.3588      2.00000
     19       1.4277      2.00000
     20       1.4277      2.00000
     21       5.4580      0.00000
     22       5.4580      0.00000
     23       5.9156      0.00000
     24       5.9156      0.00000
     25       7.5987      0.00000
     26       7.5987      0.00000
     27       7.6454      0.00000
     28       7.6454      0.00000
     29       9.0491      0.00000
     30       9.0491      0.00000
     31       9.3104      0.00000
     32       9.3104      0.00000


--------------------------------------------------------------------------------------------------------


 soft charge-density along one line, spin component            1
         0         1         2         3         4         5         6         7         8         9
 total charge-density along one line
 
 pseudopotential strength for first ion, spin component:            1
 14.612  18.233   0.041   0.045   0.000   0.074   0.082   0.001
 18.233  22.766   0.052   0.057   0.000   0.093   0.103   0.001
  0.041   0.052   3.240  -0.002  -0.000   5.517  -0.004  -0.000
  0.045   0.057  -0.002   3.238  -0.000  -0.004   5.513  -0.000
  0.000   0.000  -0.000  -0.000   3.242  -0.000  -0.000   5.520
  0.074   0.093   5.517  -0.004  -0.000   9.452  -0.007  -0.000
  0.082   0.103  -0.004   5.513  -0.000  -0.007   9.445  -0.000
  0.001   0.001  -0.000  -0.000   5.520  -0.000  -0.000   9.457
 -0.000  -0.000   0.000  -0.000   0.007   0.000  -0.000   0.013
 -0.005  -0.006   0.012   0.013  -0.000   0.021   0.023  -0.000
 -0.004  -0.005  -0.003   0.011  -0.000  -0.007   0.021  -0.000
 -0.000  -0.000  -0.000   0.000   0.012  -0.000   0.000   0.021
  0.002   0.002  -0.012   0.000   0.000  -0.022   0.000   0.000
 total augmentation occupancy for first ion, spin component:            1
  2.734  -0.702   0.347   0.359  -0.001  -0.065  -0.064   0.001  -0.000  -0.010  -0.005   0.000   0.009
 -0.702   0.667  -0.435  -0.480   0.000   0.069   0.074  -0.000   0.001   0.001   0.007   0.000  -0.004
  0.347  -0.435   1.227   0.047   0.000  -0.201   0.004   0.000  -0.000   0.043  -0.098  -0.000   0.000
  0.359  -0.480   0.047   1.322   0.002   0.004  -0.211  -0.001  -0.000  -0.017   0.104  -0.002  -0.005
 -0.001   0.000   0.000   0.002   1.242   0.000  -0.001  -0.214   0.146   0.000  -0.000   0.035  -0.000
 -0.065   0.069  -0.201   0.004   0.000   0.037  -0.002  -0.000  -0.000  -0.007   0.017  -0.000   0.000
 -0.064   0.074   0.004  -0.211  -0.001  -0.002   0.039   0.000  -0.000   0.003  -0.018   0.000   0.001
  0.001  -0.000   0.000  -0.001  -0.214  -0.000   0.000   0.041  -0.025  -0.000   0.000  -0.006   0.000
 -0.000   0.001  -0.000  -0.000   0.146  -0.000  -0.000  -0.025   0.031  -0.000  -0.000   0.002   0.000
 -0.010   0.001   0.043  -0.017   0.000  -0.007   0.003  -0.000  -0.000   0.011  -0.006  -0.000   0.001
 -0.005   0.007  -0.098   0.104  -0.000   0.017  -0.018   0.000  -0.000  -0.006   0.030   0.000  -0.002
  0.000   0.000  -0.000  -0.002   0.035  -0.000   0.000  -0.006   0.002  -0.000   0.000   0.009   0.000
  0.009  -0.004   0.000  -0.005  -0.000   0.000   0.001   0.000   0.000   0.001  -0.002   0.000   0.008


------------------------ aborting loop because EDIFF is reached ----------------------------------------


    CHARGE:  cpu time      0.0054: real time      0.0054
    FORLOC:  cpu time      0.0002: real time      0.0002
    FORNL :  cpu time      0.0414: real time      0.0415
    STRESS:  cpu time      0.2790: real time      0.2798
    FORCOR:  cpu time      0.0068: real time      0.0068
    FORHAR:  cpu time      0.0015: real time      0.0015
    MIXING:  cpu time      0.0010: real time      0.0010
    OFIELD:  cpu time      0.0000: real time      0.0000

  FORCE on cell =-STRESS in cart. coord.  units (eV):
  Direction    XX          YY          ZZ          XY          YZ          ZX
  --------------------------------------------------------------------------------------
  Alpha Z    83.74936    83.74936    83.74936
  Ewald    -407.87595  -455.20625  -519.42060    -2.18806    -0.00000     0.00000
  Hartree    79.77776    61.59801    15.23718    -0.99907    -0.00000     0.00000
  E(xc)    -141.02107  -141.01879  -141.38780    -0.01447     0.00000     0.00000
  Local    -232.80574  -173.38072   -66.14721     3.32421     0.00000    -0.00000
  n-local   240.62680   239.98323   241.77744    -0.01123    -0.00000     0.00000
  augment   -11.37628   -11.75278   -12.07250     0.01319     0.00000     0.00000
  Kinetic   390.00287   396.39788   399.74392    -0.27635    -0.00000    -0.00000
  Fock        0.00000     0.00000     0.00000     0.00000     0.00000     0.00000
  -------------------------------------------------------------------------------------
  Total       1.07774     0.36995     1.47978    -0.15177    -0.00000    -0.00000
  in kB       8.53451     2.92959    11.71824    -1.20187    -0.00000    -0.00001
  external pressure =        7.73 kB  Pullay stress =        0.00 kB


 VOLUME and BASIS-vectors are now :
 -----------------------------------------------------------------------------
  energy-cutoff  :      360.00
  volume of cell :      202.32
      direct lattice vectors                 reciprocal lattice vectors
     3.858100176  0.000000000  0.000000000     0.259194929  0.000000000  0.000000000
     0.000000000  4.526575088  0.000000000     0.000000000  0.220917577  0.000000000
     0.000000000  0.000000000 11.585176468     0.000000000  0.000000000  0.086317200

  length of vectors
     3.858100176  4.526575088 11.585176468     0.259194929  0.220917577  0.086317200


 FORCES acting on ions
    electron-ion (+dipol)            ewald-force                    non-local-force                 convergence-correction
 -----------------------------------------------------------------------------------------------
   -.787E-01 0.145E+02 0.298E+02   0.352E-01 -.170E+02 -.327E+02   0.221E-01 0.245E+01 0.307E+01   -.279E-04 -.174E-04 -.499E-03
   -.787E-01 0.145E+02 -.298E+02   0.352E-01 -.170E+02 0.327E+02   0.221E-01 0.245E+01 -.307E+01   -.275E-04 -.171E-04 0.497E-03
   0.787E-01 -.145E+02 -.298E+02   -.352E-01 0.170E+02 0.327E+02   -.221E-01 -.245E+01 -.307E+01   0.277E-04 0.166E-04 0.500E-03
   0.787E-01 -.145E+02 0.298E+02   -.353E-01 0.170E+02 -.327E+02   -.221E-01 -.245E+01 0.307E+01   0.277E-04 0.174E-04 -.497E-03
   0.105E+00 -.178E+02 -.371E+02   -.656E-01 0.193E+02 0.389E+02   -.494E-01 -.137E+01 -.190E+01   0.598E-04 -.259E-03 0.701E-03
   0.105E+00 -.178E+02 0.371E+02   -.656E-01 0.193E+02 -.389E+02   -.494E-01 -.137E+01 0.190E+01   0.611E-04 -.260E-03 -.705E-03
   -.105E+00 0.178E+02 0.371E+02   0.656E-01 -.193E+02 -.389E+02   0.489E-01 0.137E+01 0.190E+01   -.604E-04 0.258E-03 -.702E-03
   -.105E+00 0.178E+02 -.371E+02   0.656E-01 -.193E+02 0.389E+02   0.489E-01 0.137E+01 -.190E+01   -.605E-04 0.260E-03 0.706E-03
 -----------------------------------------------------------------------------------------------
   0.337E-04 0.393E-05 0.142E-05   0.486E-14 -.355E-14 0.711E-14   -.838E-03 -.293E-05 -.177E-05   -.565E-07 -.145E-05 -.336E-06
 
 
 POSITION                                       TOTAL-FORCE (eV/Angst)
 -----------------------------------------------------------------------------------
      0.74087      3.45337      1.52892        -0.021205     -0.081481      0.217168
      2.66992      1.19008      4.26367        -0.021204     -0.081481     -0.217165
      2.89357      4.09092     10.05626         0.021489      0.081488     -0.217179
      0.96452      1.82763      7.32150         0.021489      0.081489      0.217179
      0.74087      2.92477      4.06767        -0.009389      0.178562     -0.070988
      2.66992      0.66148      1.72492        -0.009389      0.178562      0.070986
      2.89357      0.09295      7.51751         0.009104     -0.178570      0.071024
      0.96452      2.35624      9.86026         0.009104     -0.178570     -0.071025
 -----------------------------------------------------------------------------------
    total drift:                               -0.000804     -0.000000     -0.000001


--------------------------------------------------------------------------------------------------------



  FREE ENERGIE OF THE ION-ELECTRON SYSTEM (eV)
  ---------------------------------------------------
  free  energy   TOTEN  =       -33.54479651 eV

  energy  without entropy=      -33.54428395  energy(sigma->0) =      -33.54454023
 


--------------------------------------------------------------------------------------------------------


    POTLOK:  cpu time      0.2226: real time      0.2232


--------------------------------------------------------------------------------------------------------


     LOOP+:  cpu time      7.7766: real time      7.8105
    4ORBIT:  cpu time      0.0000: real time      0.0000

 total amount of memory used by VASP MPI-rank0    37119. kBytes
=======================================================================

   base      :      30000. kBytes
   nonl-proj :       5406. kBytes
   fftplans  :        334. kBytes
   grid      :        503. kBytes
   one-center:         16. kBytes
   wavefun   :        860. kBytes
 
  
  
 General timing and accounting informations for this job:
 ========================================================
  
                  Total CPU time used (sec):        9.406
                            User time (sec):        9.174
                          System time (sec):        0.232
                         Elapsed time (sec):        9.732
  
                   Maximum memory used (kb):      174232.
                   Average memory used (kb):          N/A
  
                          Minor page faults:        18947
                          Major page faults:           77
                 Voluntary context switches:         2091
