 vasp.6.4.2 20Jul23 (build Oct 12 2023 10:31:02) complex                         
 executed on              LinuxNV date 2025.05.28  19:04:30
 running  128 mpi-ranks, with    1 threads/rank, on    2 nodes
 distrk:  each k-point on   64 cores,    2 groups
 distr:  one band on NCORE=   4 cores,   16 groups


--------------------------------------------------------------------------------------------------------


 INCAR:
   ENCUT = 360.000000
   SIGMA = 0.050000
   EDIFF = 1.00e-06
   ALGO = Normal
   GGA = PE
   PREC = Normal
   SYSTEM = ./
   ICHARG = 2
   ISMEAR = 0
   ISPIN = 1
   ISTART = 0
   ISYM = 0
   KPAR = 2
   LMAXMIX = 4
   NELM = 100
   NPAR = 16
   LASPH = .TRUE.
   LCHARG = .FALSE.
   LWAVE = .FALSE.

 POTCAR:    PAW_PBE Ge 05Jan2001                  
 POTCAR:    PAW_PBE Se 06Sep2000                  
 POTCAR:    PAW_PBE Ge 05Jan2001                  
   VRHFIN =Ge: s2p2                                                                                 
   LEXCH  = PE                                                                                      
   EATOM  =   104.9960 eV,    7.7170 Ry                                                             
                                                                                                    
   TITEL  = PAW_PBE Ge 05Jan2001                                                                    
   LULTRA =        F    use ultrasoft PP ?                                                          
   IUNSCR =        1    unscreen: 0-lin 1-nonlin 2-no                                               
   RPACOR =    2.170    partial core radius                                                         
   POMASS =   72.610; ZVAL   =    4.000    mass and valenz                                          
   RCORE  =    2.300    outmost cutoff radius                                                       
   RWIGS  =    2.300; RWIGS  =    1.217    wigner-seitz radius (au A)                               
   ENMAX  =  173.807; ENMIN  =  130.355 eV                                                          
   ICORE  =        3    local potential                                                             
   LCOR   =        T    correct aug charges                                                         
   LPAW   =        T    paw PP                                                                      
   EAUG   =  385.843                                                                                
   DEXC   =    0.000                                                                                
   RMAX   =    2.342    core radius for proj-oper                                                   
   RAUG   =    1.300    factor for augmentation sphere                                              
   RDEP   =    2.318    radius for radial grids                                                     
   RDEPT  =    2.103    core radius for aug-charge                                                  
                                                                                                    
   Atomic configuration                                                                             
   10 entries                                                                                       
     n  l   j            E        occ.                                                              
     1  0  0.50    -10959.8463   2.0000                                                             
     2  0  0.50     -1371.6056   2.0000                                                             
     2  1  1.50     -1198.4791   6.0000                                                             
     3  0  0.50      -168.4733   2.0000                                                             
     3  1  1.50      -115.6019   6.0000                                                             
     3  2  2.50       -29.3106  10.0000                                                             
     4  0  0.50       -11.7309   2.0000                                                             
     4  1  0.50        -3.8952   2.0000                                                             
     4  2  1.50        -4.0817   0.0000                                                             
     4  3  2.50        -4.0817   0.0000                                                             
   Description                                                                                      
     l       E           TYP  RCUT    TYP  RCUT                                                     
     0    -11.7309493     23  2.300                                                                 
     0     -7.4578696     23  2.300                                                                 
     1     -3.8952261     23  2.300                                                                 
     1      6.1178114     23  2.300                                                                 
     2     -4.0817478     23  2.300                                                                 
     3     -1.3605826      7  2.300                                                                 
  local pseudopotential read in
  partial core-charges read in
  partial kinetic energy density read in
  atomic valenz-charges read in
  non local Contribution for L=            0  read in
    real space projection operators read in
  non local Contribution for L=            0  read in
    real space projection operators read in
  non local Contribution for L=            1  read in
    real space projection operators read in
  non local Contribution for L=            1  read in
    real space projection operators read in
  non local Contribution for L=            2  read in
    real space projection operators read in
    PAW grid and wavefunctions read in
 
   number of l-projection  operators is LMAX  =            5
   number of lm-projection operators is LMMAX =           13
 
 POTCAR:    PAW_PBE Se 06Sep2000                  
   VRHFIN =Se: s2p4                                                                                 
   LEXCH  = PE                                                                                      
   EATOM  =   257.1286 eV,   18.8984 Ry                                                             
                                                                                                    
   TITEL  = PAW_PBE Se 06Sep2000                                                                    
   LULTRA =        F    use ultrasoft PP ?                                                          
   IUNSCR =        1    unscreen: 0-lin 1-nonlin 2-no                                               
   RPACOR =    1.900    partial core radius                                                         
   POMASS =   78.960; ZVAL   =    6.000    mass and valenz                                          
   RCORE  =    2.100    outmost cutoff radius                                                       
   RWIGS  =    2.200; RWIGS  =    1.164    wigner-seitz radius (au A)                               
   ENMAX  =  211.555; ENMIN  =  158.666 eV                                                          
   ICORE  =        3    local potential                                                             
   LCOR   =        T    correct aug charges                                                         
   LPAW   =        T    paw PP                                                                      
   EAUG   =  446.842                                                                                
   DEXC   =    0.000                                                                                
   RMAX   =    2.147    core radius for proj-oper                                                   
   RAUG   =    1.300    factor for augmentation sphere                                              
   RDEP   =    2.177    radius for radial grids                                                     
   RDEPT  =    1.928    core radius for aug-charge                                                  
                                                                                                    
   Atomic configuration                                                                             
   10 entries                                                                                       
     n  l   j            E        occ.                                                              
     1  0  0.50    -12503.4787   2.0000                                                             
     2  0  0.50     -1606.9547   2.0000                                                             
     2  1  1.50     -1413.3140   6.0000                                                             
     3  0  0.50      -213.4885   2.0000                                                             
     3  1  1.50      -152.9538   6.0000                                                             
     3  2  2.50       -53.1221  10.0000                                                             
     4  0  0.50       -17.2865   2.0000                                                             
     4  1  0.50        -6.5110   4.0000                                                             
     4  2  2.50        -6.8029   0.0000                                                             
     4  3  2.50        -6.8029   0.0000                                                             
   Description                                                                                      
     l       E           TYP  RCUT    TYP  RCUT                                                     
     0    -17.2865377     23  2.100                                                                 
     0    -15.3094411     23  2.100                                                                 
     1     -6.5110275     23  2.100                                                                 
     1     -0.0695192     23  2.100                                                                 
     2     -6.8029130     23  2.100                                                                 
     3     -1.3605826      7  2.100                                                                 
  local pseudopotential read in
  partial core-charges read in
  partial kinetic energy density read in
  atomic valenz-charges read in
  non local Contribution for L=            0  read in
    real space projection operators read in
  non local Contribution for L=            0  read in
    real space projection operators read in
  non local Contribution for L=            1  read in
    real space projection operators read in
  non local Contribution for L=            1  read in
    real space projection operators read in
  non local Contribution for L=            2  read in
    real space projection operators read in
    PAW grid and wavefunctions read in
 
   number of l-projection  operators is LMAX  =            5
   number of lm-projection operators is LMMAX =           13
 
  PAW_PBE Ge 05Jan2001                  :
 energy of atom  1       EATOM= -104.9960
 kinetic energy error for atom=    0.0005 (will be added to EATOM!!)
  PAW_PBE Se 06Sep2000                  :
 energy of atom  2       EATOM= -257.1286
 kinetic energy error for atom=    0.0030 (will be added to EATOM!!)
 
 
 POSCAR: Ge Se
  positions in cartesian coordinates
  No initial velocities read in
 exchange correlation table for  LEXCH =        8
   RHO(1)=    0.500       N(1)  =     2000
   RHO(2)=  100.500       N(2)  =     4000
 


--------------------------------------------------------------------------------------------------------


 ion  position               nearest neighbor table
   1  0.111  0.250  0.124-   6 2.58   6 2.58   5 2.60
   2  0.611  0.750  0.376-   5 2.58   5 2.58   6 2.60
   3  0.889  0.750  0.876-   8 2.58   8 2.58   7 2.60
   4  0.389  0.250  0.624-   7 2.58   7 2.58   8 2.60
   5  0.982  0.250  0.351-   2 2.58   2 2.58   1 2.60
   6  0.482  0.750  0.149-   1 2.58   1 2.58   2 2.60
   7  0.018  0.750  0.649-   4 2.58   4 2.58   3 2.60
   8  0.518  0.250  0.851-   3 2.58   3 2.58   4 2.60
 

IMPORTANT INFORMATION: All symmetrisations will be switched off!
NOSYMM: (Re-)initialisation of all symmetry stuff for point group C_1.


----------------------------------------------------------------------------------------

                                     Primitive cell                                     

  volume of cell :     196.8830

  direct lattice vectors                    reciprocal lattice vectors
     4.650000000  0.000000000  0.000000000     0.215053763  0.000000000  0.000000000
     0.000000000  3.800000000  0.000000000     0.000000000  0.263157895  0.000000000
     0.000000000  0.000000000 11.142221000     0.000000000  0.000000000  0.089748713

  length of vectors
     4.650000000  3.800000000 11.142221000     0.215053763  0.263157895  0.089748713

  position of ions in fractional coordinates (direct lattice)
     0.110730506  0.250000000  0.123753492
     0.610730506  0.750000000  0.376246508
     0.889269494  0.750000000  0.876246508
     0.389269494  0.250000000  0.623753492
     0.982048091  0.250000000  0.350852110
     0.482048091  0.750000000  0.149147890
     0.017951909  0.750000000  0.649147890
     0.517951909  0.250000000  0.850852110

  ion indices of the primitive-cell ions
   primitive index   ion index
                 1           1
                 2           2
                 3           3
                 4           4
                 5           5
                 6           6
                 7           7
                 8           8

----------------------------------------------------------------------------------------

 
 
 KPOINTS: KPOINTS created by Atomic Simulation Env

Automatic generation of k-mesh.
 Grid dimensions read from file:
 generate k-points for:    6    6    2

 Generating k-lattice:

  Cartesian coordinates                     Fractional coordinates (reciprocal lattice)
     0.035842294  0.000000000  0.000000000     0.166666667  0.000000000  0.000000000
     0.000000000  0.043859649  0.000000000     0.000000000  0.166666667  0.000000000
     0.000000000  0.000000000  0.044874357     0.000000000  0.000000000  0.500000000

  Length of vectors
     0.035842294  0.043859649  0.044874357

  Shift w.r.t. Gamma in fractional coordinates (k-lattice)
     0.000000000  0.000000000  0.000000000

 
 Subroutine IBZKPT returns following result:
 ===========================================
 
 Found     40 irreducible k-points:
 
 Following reciprocal coordinates:
            Coordinates               Weight
  0.000000  0.000000  0.000000      1.000000
  0.166667  0.000000  0.000000      2.000000
  0.333333  0.000000  0.000000      2.000000
  0.500000  0.000000  0.000000      1.000000
  0.000000  0.166667  0.000000      2.000000
  0.166667  0.166667  0.000000      2.000000
 -0.166667  0.166667  0.000000      2.000000
  0.333333  0.166667  0.000000      2.000000
 -0.333333  0.166667  0.000000      2.000000
  0.500000  0.166667  0.000000      2.000000
  0.000000  0.333333  0.000000      2.000000
  0.166667  0.333333  0.000000      2.000000
 -0.166667  0.333333  0.000000      2.000000
  0.333333  0.333333  0.000000      2.000000
 -0.333333  0.333333  0.000000      2.000000
  0.500000  0.333333  0.000000      2.000000
  0.000000  0.500000  0.000000      1.000000
  0.166667  0.500000  0.000000      2.000000
  0.333333  0.500000  0.000000      2.000000
  0.500000  0.500000  0.000000      1.000000
  0.000000  0.000000  0.500000      1.000000
  0.166667  0.000000  0.500000      2.000000
  0.333333  0.000000  0.500000      2.000000
  0.500000  0.000000  0.500000      1.000000
  0.000000  0.166667  0.500000      2.000000
  0.166667  0.166667  0.500000      2.000000
 -0.166667  0.166667  0.500000      2.000000
  0.333333  0.166667  0.500000      2.000000
 -0.333333  0.166667  0.500000      2.000000
  0.500000  0.166667  0.500000      2.000000
  0.000000  0.333333  0.500000      2.000000
  0.166667  0.333333  0.500000      2.000000
 -0.166667  0.333333  0.500000      2.000000
  0.333333  0.333333  0.500000      2.000000
 -0.333333  0.333333  0.500000      2.000000
  0.500000  0.333333  0.500000      2.000000
  0.000000  0.500000  0.500000      1.000000
  0.166667  0.500000  0.500000      2.000000
  0.333333  0.500000  0.500000      2.000000
  0.500000  0.500000  0.500000      1.000000
 
 Following cartesian coordinates:
            Coordinates               Weight
  0.000000  0.000000  0.000000      1.000000
  0.035842  0.000000  0.000000      2.000000
  0.071685  0.000000  0.000000      2.000000
  0.107527  0.000000  0.000000      1.000000
  0.000000  0.043860  0.000000      2.000000
  0.035842  0.043860  0.000000      2.000000
 -0.035842  0.043860  0.000000      2.000000
  0.071685  0.043860  0.000000      2.000000
 -0.071685  0.043860  0.000000      2.000000
  0.107527  0.043860  0.000000      2.000000
  0.000000  0.087719  0.000000      2.000000
  0.035842  0.087719  0.000000      2.000000
 -0.035842  0.087719  0.000000      2.000000
  0.071685  0.087719  0.000000      2.000000
 -0.071685  0.087719  0.000000      2.000000
  0.107527  0.087719  0.000000      2.000000
  0.000000  0.131579  0.000000      1.000000
  0.035842  0.131579  0.000000      2.000000
  0.071685  0.131579  0.000000      2.000000
  0.107527  0.131579  0.000000      1.000000
  0.000000  0.000000  0.044874      1.000000
  0.035842  0.000000  0.044874      2.000000
  0.071685  0.000000  0.044874      2.000000
  0.107527  0.000000  0.044874      1.000000
  0.000000  0.043860  0.044874      2.000000
  0.035842  0.043860  0.044874      2.000000
 -0.035842  0.043860  0.044874      2.000000
  0.071685  0.043860  0.044874      2.000000
 -0.071685  0.043860  0.044874      2.000000
  0.107527  0.043860  0.044874      2.000000
  0.000000  0.087719  0.044874      2.000000
  0.035842  0.087719  0.044874      2.000000
 -0.035842  0.087719  0.044874      2.000000
  0.071685  0.087719  0.044874      2.000000
 -0.071685  0.087719  0.044874      2.000000
  0.107527  0.087719  0.044874      2.000000
  0.000000  0.131579  0.044874      1.000000
  0.035842  0.131579  0.044874      2.000000
  0.071685  0.131579  0.044874      2.000000
  0.107527  0.131579  0.044874      1.000000
 


--------------------------------------------------------------------------------------------------------




 Dimension of arrays:
   k-points           NKPTS =     40   k-points in BZ     NKDIM =     40   number of bands    NBANDS=     32
   number of dos      NEDOS =    301   number of ions     NIONS =      8
   non local maximal  LDIM  =      5   non local SUM 2l+1 LMDIM =     13
   total plane-waves  NPLWV =  23328
   max r-space proj   IRMAX =      1   max aug-charges    IRDMAX=   6639
   dimension x,y,z NGX =    24 NGY =   18 NGZ =   54
   dimension x,y,z NGXF=    48 NGYF=   36 NGZF=  108
   support grid    NGXF=    48 NGYF=   36 NGZF=  108
   ions per type =               4   4
   NGX,Y,Z   is equivalent  to a cutoff of   8.58,  7.87,  8.06 a.u.
   NGXF,Y,Z  is equivalent  to a cutoff of  17.16, 15.75, 16.11 a.u.

 SYSTEM =  ./                                      
 POSCAR =  Ge Se                                   

 Startparameter for this run:
   NWRITE =      2    write-flag & timer
   PREC   = normal    normal or accurate (medium, high low for compatibility)
   ISTART =      0    job   : 0-new  1-cont  2-samecut
   ICHARG =      2    charge: 1-file 2-atom 10-const
   ISPIN  =      1    spin polarized calculation?
   LNONCOLLINEAR =      F non collinear calculations
   LSORBIT =      F    spin-orbit coupling
   INIWAV =      1    electr: 0-lowe 1-rand  2-diag
   LASPH  =      T    aspherical Exc in radial PAW
 Electronic Relaxation 1
   ENCUT  =  360.0 eV  26.46 Ry    5.14 a.u.   7.19  5.88 17.24*2*pi/ulx,y,z
   ENINI  =  360.0     initial cutoff
   ENAUG  =  446.8 eV  augmentation charge cutoff
   NELM   =    100;   NELMIN=  2; NELMDL= -5     # of ELM steps 
   EDIFF  = 0.1E-05   stopping-criterion for ELM
   LREAL  =      F    real-space projection
   NLSPLINE    = F    spline interpolate recip. space projectors
   LCOMPAT=      F    compatible to vasp.4.4
   GGA_COMPAT  = T    GGA compatible to vasp.4.4-vasp.4.6
   LMAXPAW     = -100 max onsite density
   LMAXMIX     =    4 max onsite mixed and CHGCAR
   VOSKOWN=      0    Vosko Wilk Nusair interpolation
   ROPT   =    0.00000   0.00000
 Ionic relaxation
   EDIFFG = 0.1E-04   stopping-criterion for IOM
   NSW    =      0    number of steps for IOM
   NBLOCK =      1;   KBLOCK =      1    inner block; outer block 
   IBRION =     -1    ionic relax: 0-MD 1-quasi-New 2-CG
   NFREE  =      0    steps in history (QN), initial steepest desc. (CG)
   ISIF   =      2    stress and relaxation
   IWAVPR =     10    prediction:  0-non 1-charg 2-wave 3-comb
   ISYM   =      0    0-nonsym 1-usesym 2-fastsym
   LCORR  =      T    Harris-Foulkes like correction to forces

   POTIM  = 0.5000    time-step for ionic-motion
   TEIN   =    0.0    initial temperature
   TEBEG  =    0.0;   TEEND  =   0.0 temperature during run
   SMASS  =  -3.00    Nose mass-parameter (am)
   estimated Nose-frequenzy (Omega)   =  0.10E-29 period in steps = 0.13E+47 mass=  -0.494E-27a.u.
   SCALEE = 1.0000    scale energy and forces
   NPACO  =    256;   APACO  = 10.0  distance and # of slots for P.C.
   PSTRESS=    0.0 pullay stress

  Mass of Ions in am
   POMASS =  72.61 78.96
  Ionic Valenz
   ZVAL   =   4.00  6.00
  Atomic Wigner-Seitz radii
   RWIGS  =  -1.00 -1.00
  virtual crystal weights 
   VCA    =   1.00  1.00
   NELECT =      40.0000    total number of electrons
   NUPDOWN=      -1.0000    fix difference up-down

 DOS related values:
   EMIN   =  10.00;   EMAX   =-10.00  energy-range for DOS
   EFERMI =   0.00;   METHOD = LEGACY      
   ISMEAR =     0;   SIGMA  =   0.05  broadening in eV -4-tet -1-fermi 0-gaus

 Electronic relaxation 2 (details)
   IALGO  =     38    algorithm
   LDIAG  =      T    sub-space diagonalisation (order eigenvalues)
   LSUBROT=      F    optimize rotation matrix (better conditioning)
   TURBO    =      0    0=normal 1=particle mesh
   IRESTART =      0    0=no restart 2=restart with 2 vectors
   NREBOOT  =      0    no. of reboots
   NMIN     =      0    reboot dimension
   EREF     =   0.00    reference energy to select bands
   IMIX   =      4    mixing-type and parameters
     AMIX     =   0.40;   BMIX     =  1.00
     AMIX_MAG =   1.60;   BMIX_MAG =  1.00
     AMIN     =   0.10
     WC   =   100.;   INIMIX=   1;  MIXPRE=   1;  MAXMIX= -45

 Intra band minimization:
   WEIMIN = 0.0000     energy-eigenvalue tresh-hold
   EBREAK =  0.78E-08  absolut break condition
   DEPER  =   0.30     relativ break condition  

   TIME   =   0.40     timestep for ELM

  volume/ion in A,a.u.               =      24.61       166.08
  Fermi-wavevector in a.u.,A,eV,Ry     =   0.962407  1.818685 12.602084  0.926227
  Thomas-Fermi vector in A             =   2.091863
 
 Write flags
   LWAVE        =      F    write WAVECAR
   LDOWNSAMPLE  =      F    k-point downsampling of WAVECAR
   LCHARG       =      F    write CHGCAR
   LVTOT        =      F    write LOCPOT, total local potential
   LVHAR        =      F    write LOCPOT, Hartree potential only
   LELF         =      F    write electronic localiz. function (ELF)
   LORBIT       =      0    0 simple, 1 ext, 2 COOP (PROOUT), +10 PAW based schemes


 Dipole corrections
   LMONO  =      F    monopole corrections only (constant potential shift)
   LDIPOL =      F    correct potential (dipole corrections)
   IDIPOL =      0    1-x, 2-y, 3-z, 4-all directions 
   EPSILON=  1.0000000 bulk dielectric constant

 Exchange correlation treatment:
   GGA     =    PE    GGA type
   LEXCH   =     8    internal setting for exchange type
   LIBXC   =     F    Libxc                    
   VOSKOWN =     0    Vosko Wilk Nusair interpolation
   LHFCALC =     F    Hartree Fock is set to
   LHFONE  =     F    Hartree Fock one center treatment
   AEXX    =    0.0000 exact exchange contribution

 Linear response parameters
   LEPSILON=     F    determine dielectric tensor
   LRPA    =     F    only Hartree local field effects (RPA)
   LNABLA  =     F    use nabla operator in PAW spheres
   LVEL    =     F    velocity operator in full k-point grid
   CSHIFT  =0.1000    complex shift for real part using Kramers Kronig
   OMEGAMAX=  -1.0    maximum frequency
   DEG_THRESHOLD= 0.2000000E-02 threshold for treating states as degnerate
   RTIME   =   -0.100 relaxation time in fs
  (WPLASMAI=    0.000 imaginary part of plasma frequency in eV, 0.658/RTIME)
   DFIELD  = 0.0000000 0.0000000 0.0000000 field for delta impulse in time
 
  Optional k-point grid parameters
   LKPOINTS_OPT  =     F    use optional k-point grid
   KPOINTS_OPT_MODE=     1    mode for optional k-point grid
 
 Orbital magnetization related:
   ORBITALMAG=     F  switch on orbital magnetization
   LCHIMAG   =     F  perturbation theory with respect to B field
   DQ        =  0.001000  dq finite difference perturbation B field
   LLRAUG    =     F  two centre corrections for induced B field
   LBONE     =     F  B-component reconstruction in AE one-centre
   LVGVCALC  =     T  calculate vGv susceptibility
   LVGVAPPL  =     F  apply vGv susceptibility instead of pGv for G=0

 Random number generation:
   RANDOM_GENERATOR = DEFAULT
   PCG_SEED         = not used


--------------------------------------------------------------------------------------------------------


 Static calculation
 charge density and potential will be updated during run
 non-spin polarized calculation
 Variant of blocked Davidson
 Davidson routine will perform the subspace rotation
 perform sub-space diagonalisation
    after iterative eigenvector-optimisation
 modified Broyden-mixing scheme, WC =      100.0
 initial mixing is a Kerker type mixing with AMIX =  0.4000 and BMIX =      1.0000
 Hartree-type preconditioning will be used
 using additional bands            12
 reciprocal scheme for non local part
 use partial core corrections
 calculate Harris-corrections to forces 
   (improved forces if not selfconsistent)
 use gradient corrections 
 use of overlap-Matrix (Vanderbilt PP)
 Gauss-broadening in eV      SIGMA  =   0.05


--------------------------------------------------------------------------------------------------------


  energy-cutoff  :      360.00
  volume of cell :      196.88
      direct lattice vectors                 reciprocal lattice vectors
     4.650000000  0.000000000  0.000000000     0.215053763  0.000000000  0.000000000
     0.000000000  3.800000000  0.000000000     0.000000000  0.263157895  0.000000000
     0.000000000  0.000000000 11.142221000     0.000000000  0.000000000  0.089748713

  length of vectors
     4.650000000  3.800000000 11.142221000     0.215053763  0.263157895  0.089748713


 
 k-points in units of 2pi/SCALE and weight: KPOINTS created by Atomic Simulation Env
   0.00000000  0.00000000  0.00000000       0.014
   0.03584229  0.00000000  0.00000000       0.028
   0.07168459  0.00000000  0.00000000       0.028
   0.10752688  0.00000000  0.00000000       0.014
   0.00000000  0.04385965  0.00000000       0.028
   0.03584229  0.04385965  0.00000000       0.028
  -0.03584229  0.04385965  0.00000000       0.028
   0.07168459  0.04385965  0.00000000       0.028
  -0.07168459  0.04385965  0.00000000       0.028
   0.10752688  0.04385965  0.00000000       0.028
   0.00000000  0.08771930  0.00000000       0.028
   0.03584229  0.08771930  0.00000000       0.028
  -0.03584229  0.08771930  0.00000000       0.028
   0.07168459  0.08771930  0.00000000       0.028
  -0.07168459  0.08771930  0.00000000       0.028
   0.10752688  0.08771930  0.00000000       0.028
   0.00000000  0.13157895  0.00000000       0.014
   0.03584229  0.13157895  0.00000000       0.028
   0.07168459  0.13157895  0.00000000       0.028
   0.10752688  0.13157895  0.00000000       0.014
   0.00000000  0.00000000  0.04487436       0.014
   0.03584229  0.00000000  0.04487436       0.028
   0.07168459  0.00000000  0.04487436       0.028
   0.10752688  0.00000000  0.04487436       0.014
   0.00000000  0.04385965  0.04487436       0.028
   0.03584229  0.04385965  0.04487436       0.028
  -0.03584229  0.04385965  0.04487436       0.028
   0.07168459  0.04385965  0.04487436       0.028
  -0.07168459  0.04385965  0.04487436       0.028
   0.10752688  0.04385965  0.04487436       0.028
   0.00000000  0.08771930  0.04487436       0.028
   0.03584229  0.08771930  0.04487436       0.028
  -0.03584229  0.08771930  0.04487436       0.028
   0.07168459  0.08771930  0.04487436       0.028
  -0.07168459  0.08771930  0.04487436       0.028
   0.10752688  0.08771930  0.04487436       0.028
   0.00000000  0.13157895  0.04487436       0.014
   0.03584229  0.13157895  0.04487436       0.028
   0.07168459  0.13157895  0.04487436       0.028
   0.10752688  0.13157895  0.04487436       0.014
 
 k-points in reciprocal lattice and weights: KPOINTS created by Atomic Simulation Env
   0.00000000  0.00000000  0.00000000       0.014
   0.16666667  0.00000000  0.00000000       0.028
   0.33333333  0.00000000  0.00000000       0.028
   0.50000000  0.00000000  0.00000000       0.014
   0.00000000  0.16666667  0.00000000       0.028
   0.16666667  0.16666667  0.00000000       0.028
  -0.16666667  0.16666667  0.00000000       0.028
   0.33333333  0.16666667  0.00000000       0.028
  -0.33333333  0.16666667  0.00000000       0.028
   0.50000000  0.16666667  0.00000000       0.028
   0.00000000  0.33333333  0.00000000       0.028
   0.16666667  0.33333333  0.00000000       0.028
  -0.16666667  0.33333333  0.00000000       0.028
   0.33333333  0.33333333  0.00000000       0.028
  -0.33333333  0.33333333  0.00000000       0.028
   0.50000000  0.33333333  0.00000000       0.028
   0.00000000  0.50000000  0.00000000       0.014
   0.16666667  0.50000000  0.00000000       0.028
   0.33333333  0.50000000  0.00000000       0.028
   0.50000000  0.50000000  0.00000000       0.014
   0.00000000  0.00000000  0.50000000       0.014
   0.16666667  0.00000000  0.50000000       0.028
   0.33333333  0.00000000  0.50000000       0.028
   0.50000000  0.00000000  0.50000000       0.014
   0.00000000  0.16666667  0.50000000       0.028
   0.16666667  0.16666667  0.50000000       0.028
  -0.16666667  0.16666667  0.50000000       0.028
   0.33333333  0.16666667  0.50000000       0.028
  -0.33333333  0.16666667  0.50000000       0.028
   0.50000000  0.16666667  0.50000000       0.028
   0.00000000  0.33333333  0.50000000       0.028
   0.16666667  0.33333333  0.50000000       0.028
  -0.16666667  0.33333333  0.50000000       0.028
   0.33333333  0.33333333  0.50000000       0.028
  -0.33333333  0.33333333  0.50000000       0.028
   0.50000000  0.33333333  0.50000000       0.028
   0.00000000  0.50000000  0.50000000       0.014
   0.16666667  0.50000000  0.50000000       0.028
   0.33333333  0.50000000  0.50000000       0.028
   0.50000000  0.50000000  0.50000000       0.014
 
 position of ions in fractional coordinates (direct lattice) 
   0.11073051  0.25000000  0.12375349
   0.61073051  0.75000000  0.37624651
   0.88926949  0.75000000  0.87624651
   0.38926949  0.25000000  0.62375349
   0.98204809  0.25000000  0.35085211
   0.48204809  0.75000000  0.14914789
   0.01795191  0.75000000  0.64914789
   0.51795191  0.25000000  0.85085211
 
 position of ions in cartesian coordinates  (Angst):
   0.51489685  0.95000000  1.37888876
   2.83989685  2.85000000  4.19222174
   4.13510315  2.85000000  9.76333224
   1.81010315  0.95000000  6.94999926
   4.56652362  0.95000000  3.90927175
   2.24152362  2.85000000  1.66183875
   0.08347638  2.85000000  7.23294925
   2.40847638  0.95000000  9.48038225
 


--------------------------------------------------------------------------------------------------------


 k-point   1 :   0.0000 0.0000 0.0000  plane waves:    3067
 k-point   2 :   0.1667 0.0000 0.0000  plane waves:    3035
 k-point   3 :   0.3333 0.0000 0.0000  plane waves:    3034
 k-point   4 :   0.5000 0.0000 0.0000  plane waves:    3054
 k-point   5 :   0.0000 0.1667 0.0000  plane waves:    3058
 k-point   6 :   0.1667 0.1667 0.0000  plane waves:    3045
 k-point   7 :  -0.1667 0.1667 0.0000  plane waves:    3045
 k-point   8 :   0.3333 0.1667 0.0000  plane waves:    3056
 k-point   9 :  -0.3333 0.1667 0.0000  plane waves:    3056
 k-point  10 :   0.5000 0.1667 0.0000  plane waves:    3050
 k-point  11 :   0.0000 0.3333 0.0000  plane waves:    3056
 k-point  12 :   0.1667 0.3333 0.0000  plane waves:    3063
 k-point  13 :  -0.1667 0.3333 0.0000  plane waves:    3063
 k-point  14 :   0.3333 0.3333 0.0000  plane waves:    3072
 k-point  15 :  -0.3333 0.3333 0.0000  plane waves:    3072
 k-point  16 :   0.5000 0.3333 0.0000  plane waves:    3070
 k-point  17 :   0.0000 0.5000 0.0000  plane waves:    3044
 k-point  18 :   0.1667 0.5000 0.0000  plane waves:    3054
 k-point  19 :   0.3333 0.5000 0.0000  plane waves:    3066
 k-point  20 :   0.5000 0.5000 0.0000  plane waves:    3084
 k-point  21 :   0.0000 0.0000 0.5000  plane waves:    3058
 k-point  22 :   0.1667 0.0000 0.5000  plane waves:    3044
 k-point  23 :   0.3333 0.0000 0.5000  plane waves:    3052
 k-point  24 :   0.5000 0.0000 0.5000  plane waves:    3048
 k-point  25 :   0.0000 0.1667 0.5000  plane waves:    3052
 k-point  26 :   0.1667 0.1667 0.5000  plane waves:    3044
 k-point  27 :  -0.1667 0.1667 0.5000  plane waves:    3044
 k-point  28 :   0.3333 0.1667 0.5000  plane waves:    3048
 k-point  29 :  -0.3333 0.1667 0.5000  plane waves:    3048
 k-point  30 :   0.5000 0.1667 0.5000  plane waves:    3064
 k-point  31 :   0.0000 0.3333 0.5000  plane waves:    3040
 k-point  32 :   0.1667 0.3333 0.5000  plane waves:    3050
 k-point  33 :  -0.1667 0.3333 0.5000  plane waves:    3050
 k-point  34 :   0.3333 0.3333 0.5000  plane waves:    3058
 k-point  35 :  -0.3333 0.3333 0.5000  plane waves:    3058
 k-point  36 :   0.5000 0.3333 0.5000  plane waves:    3056
 k-point  37 :   0.0000 0.5000 0.5000  plane waves:    3060
 k-point  38 :   0.1667 0.5000 0.5000  plane waves:    3064
 k-point  39 :   0.3333 0.5000 0.5000  plane waves:    3076
 k-point  40 :   0.5000 0.5000 0.5000  plane waves:    3048

 maximum and minimum number of plane-waves per node :       795      736

 maximum number of plane-waves:      3084
 maximum index in each direction: 
   IXMAX=    7   IYMAX=    5   IZMAX=   17
   IXMIN=   -7   IYMIN=   -6   IZMIN=  -17


 parallel 3D FFT for wavefunctions:
    minimum data exchange during FFTs selected (reduces bandwidth)
 parallel 3D FFT for charge:
    minimum data exchange during FFTs selected (reduces bandwidth)


 total amount of memory used by VASP MPI-rank0    38303. kBytes
=======================================================================

   base      :      30000. kBytes
   nonl-proj :       6488. kBytes
   fftplans  :        320. kBytes
   grid      :        455. kBytes
   one-center:         16. kBytes
   wavefun   :       1024. kBytes
 
     INWAV:  cpu time      0.0000: real time      0.0001
 Broyden mixing: mesh for mixing (old mesh)
   NGX = 15   NGY = 11   NGZ = 35
  (NGX  = 48   NGY  = 36   NGZ  =108)
  gives a total of   5775 points

 initial charge density was supplied:
 charge density of overlapping atoms calculated
 number of electron      40.0000000 magnetization 
 keeping initial charge density in first step


--------------------------------------------------------------------------------------------------------


 Maximum index for augmentation-charges           337 (set IRDMAX)


--------------------------------------------------------------------------------------------------------


 First call to EWALD:  gamma=   0.305
 Maximum number of real-space cells 3x 4x 2
 Maximum number of reciprocal cells 2x 2x 5

    FEWALD:  cpu time      0.0013: real time      0.0013


--------------------------------------- Ionic step        1  -------------------------------------------




--------------------------------------- Iteration      1(   1)  ---------------------------------------


    POTLOK:  cpu time      0.0063: real time      0.0066
    SETDIJ:  cpu time      0.1441: real time      0.1448
     EDDAV:  cpu time      0.2596: real time      0.2623
       DOS:  cpu time      0.0012: real time      0.0013
    --------------------------------------------
      LOOP:  cpu time      0.4112: real time      0.4150

 eigenvalue-minimisations  :  2560
 total energy-change (2. order) : 0.1304347E+03  (-0.1278267E+04)
 number of electron      40.0000000 magnetization 
 augmentation part       40.0000000 magnetization 

 Free energy of the ion-electron system (eV)
  ---------------------------------------------------
  alpha Z        PSCENC =        86.06350757
  Ewald energy   TEWEN  =     -1406.74794688
  -Hartree energ DENC   =      -133.39397404
  -exchange      EXHF   =         0.00000000
  -V(xc)+E(xc)   XCENC  =       -33.56661267
  PAW double counting   =      1193.78262552    -1080.73714043
  entropy T*S    EENTRO =        -0.00206453
  eigenvalues    EBANDS =        56.55168427
  atomic energy  EATOM  =      1448.48460880
  Solvation  Ediel_sol  =         0.00000000
  ---------------------------------------------------
  free energy    TOTEN  =       130.43468760 eV

  energy without entropy =      130.43675213  energy(sigma->0) =      130.43571987


--------------------------------------------------------------------------------------------------------




--------------------------------------- Iteration      1(   2)  ---------------------------------------


     EDDAV:  cpu time      0.3259: real time      0.3289
       DOS:  cpu time      0.0006: real time      0.0006
    --------------------------------------------
      LOOP:  cpu time      0.3265: real time      0.3295

 eigenvalue-minimisations  :  3760
 total energy-change (2. order) :-0.1560525E+03  (-0.1514540E+03)
 number of electron      40.0000000 magnetization 
 augmentation part       40.0000000 magnetization 

 Free energy of the ion-electron system (eV)
  ---------------------------------------------------
  alpha Z        PSCENC =        86.06350757
  Ewald energy   TEWEN  =     -1406.74794688
  -Hartree energ DENC   =      -133.39397404
  -exchange      EXHF   =         0.00000000
  -V(xc)+E(xc)   XCENC  =       -33.56661267
  PAW double counting   =      1193.78262552    -1080.73714043
  entropy T*S    EENTRO =        -0.00000000
  eigenvalues    EBANDS =       -99.50284195
  atomic energy  EATOM  =      1448.48460880
  Solvation  Ediel_sol  =         0.00000000
  ---------------------------------------------------
  free energy    TOTEN  =       -25.61777409 eV

  energy without entropy =      -25.61777409  energy(sigma->0) =      -25.61777409


--------------------------------------------------------------------------------------------------------




--------------------------------------- Iteration      1(   3)  ---------------------------------------


     EDDAV:  cpu time      0.2926: real time      0.2954
       DOS:  cpu time      0.0005: real time      0.0005
    --------------------------------------------
      LOOP:  cpu time      0.2931: real time      0.2959

 eigenvalue-minimisations  :  3056
 total energy-change (2. order) :-0.8521345E+01  (-0.8504242E+01)
 number of electron      40.0000000 magnetization 
 augmentation part       40.0000000 magnetization 

 Free energy of the ion-electron system (eV)
  ---------------------------------------------------
  alpha Z        PSCENC =        86.06350757
  Ewald energy   TEWEN  =     -1406.74794688
  -Hartree energ DENC   =      -133.39397404
  -exchange      EXHF   =         0.00000000
  -V(xc)+E(xc)   XCENC  =       -33.56661267
  PAW double counting   =      1193.78262552    -1080.73714043
  entropy T*S    EENTRO =        -0.00000000
  eigenvalues    EBANDS =      -108.02418690
  atomic energy  EATOM  =      1448.48460880
  Solvation  Ediel_sol  =         0.00000000
  ---------------------------------------------------
  free energy    TOTEN  =       -34.13911904 eV

  energy without entropy =      -34.13911904  energy(sigma->0) =      -34.13911904


--------------------------------------------------------------------------------------------------------




--------------------------------------- Iteration      1(   4)  ---------------------------------------


     EDDAV:  cpu time      0.3099: real time      0.3131
       DOS:  cpu time      0.0010: real time      0.0010
    --------------------------------------------
      LOOP:  cpu time      0.3109: real time      0.3141

 eigenvalue-minimisations  :  3376
 total energy-change (2. order) :-0.5771292E-01  (-0.5770559E-01)
 number of electron      40.0000000 magnetization 
 augmentation part       40.0000000 magnetization 

 Free energy of the ion-electron system (eV)
  ---------------------------------------------------
  alpha Z        PSCENC =        86.06350757
  Ewald energy   TEWEN  =     -1406.74794688
  -Hartree energ DENC   =      -133.39397404
  -exchange      EXHF   =         0.00000000
  -V(xc)+E(xc)   XCENC  =       -33.56661267
  PAW double counting   =      1193.78262552    -1080.73714043
  entropy T*S    EENTRO =        -0.00000000
  eigenvalues    EBANDS =      -108.08189982
  atomic energy  EATOM  =      1448.48460880
  Solvation  Ediel_sol  =         0.00000000
  ---------------------------------------------------
  free energy    TOTEN  =       -34.19683196 eV

  energy without entropy =      -34.19683196  energy(sigma->0) =      -34.19683196


--------------------------------------------------------------------------------------------------------




--------------------------------------- Iteration      1(   5)  ---------------------------------------


     EDDAV:  cpu time      0.2841: real time      0.2873
       DOS:  cpu time      0.0005: real time      0.0005
    CHARGE:  cpu time      0.0042: real time      0.0042
    MIXING:  cpu time      0.0007: real time      0.0007
    --------------------------------------------
      LOOP:  cpu time      0.2895: real time      0.2927

 eigenvalue-minimisations  :  3024
 total energy-change (2. order) :-0.3514408E-03  (-0.3514369E-03)
 number of electron      39.9999955 magnetization 
 augmentation part       -7.3974812 magnetization 

 Broyden mixing:
  rms(total) = 0.64894E+00    rms(broyden)= 0.64893E+00
  rms(prec ) = 0.73280E+00
  weight for this iteration     100.00

 Free energy of the ion-electron system (eV)
  ---------------------------------------------------
  alpha Z        PSCENC =        86.06350757
  Ewald energy   TEWEN  =     -1406.74794688
  -Hartree energ DENC   =      -133.39397404
  -exchange      EXHF   =         0.00000000
  -V(xc)+E(xc)   XCENC  =       -33.56661267
  PAW double counting   =      1193.78262552    -1080.73714043
  entropy T*S    EENTRO =        -0.00000000
  eigenvalues    EBANDS =      -108.08225126
  atomic energy  EATOM  =      1448.48460880
  Solvation  Ediel_sol  =         0.00000000
  ---------------------------------------------------
  free energy    TOTEN  =       -34.19718340 eV

  energy without entropy =      -34.19718340  energy(sigma->0) =      -34.19718340


--------------------------------------------------------------------------------------------------------




--------------------------------------- Iteration      1(   6)  ---------------------------------------


    POTLOK:  cpu time      0.0055: real time      0.0057
    SETDIJ:  cpu time      0.1371: real time      0.1377
     EDDAV:  cpu time      0.3127: real time      0.3159
       DOS:  cpu time      0.0006: real time      0.0006
    CHARGE:  cpu time      0.0058: real time      0.0058
    MIXING:  cpu time      0.0005: real time      0.0005
    --------------------------------------------
      LOOP:  cpu time      0.4622: real time      0.4663

 eigenvalue-minimisations  :  3120
 total energy-change (2. order) : 0.3777741E+00  (-0.7658961E-01)
 number of electron      39.9999956 magnetization 
 augmentation part       -7.3409908 magnetization 

 Broyden mixing:
  rms(total) = 0.40883E+00    rms(broyden)= 0.40883E+00
  rms(prec ) = 0.43147E+00
  weight for this iteration     100.00

 eigenvalues of (default mixing * dielectric matrix)
  average eigenvalue GAMMA=   2.2058
  2.2058

 Free energy of the ion-electron system (eV)
  ---------------------------------------------------
  alpha Z        PSCENC =        86.06350757
  Ewald energy   TEWEN  =     -1406.74794688
  -Hartree energ DENC   =      -139.29842329
  -exchange      EXHF   =         0.00000000
  -V(xc)+E(xc)   XCENC  =       -32.95238424
  PAW double counting   =      1458.47777785    -1345.75548373
  entropy T*S    EENTRO =        -0.00000000
  eigenvalues    EBANDS =      -102.09106541
  atomic energy  EATOM  =      1448.48460880
  Solvation  Ediel_sol  =         0.00000000
  ---------------------------------------------------
  free energy    TOTEN  =       -33.81940933 eV

  energy without entropy =      -33.81940933  energy(sigma->0) =      -33.81940933


--------------------------------------------------------------------------------------------------------




--------------------------------------- Iteration      1(   7)  ---------------------------------------


    POTLOK:  cpu time      0.0064: real time      0.0066
    SETDIJ:  cpu time      0.1372: real time      0.1378
     EDDAV:  cpu time      0.2723: real time      0.2751
       DOS:  cpu time      0.0005: real time      0.0005
    CHARGE:  cpu time      0.0040: real time      0.0040
    MIXING:  cpu time      0.0005: real time      0.0005
    --------------------------------------------
      LOOP:  cpu time      0.4209: real time      0.4246

 eigenvalue-minimisations  :  2880
 total energy-change (2. order) : 0.1403214E-01  (-0.2316710E-01)
 number of electron      39.9999956 magnetization 
 augmentation part       -7.3276385 magnetization 

 Broyden mixing:
  rms(total) = 0.12920E+00    rms(broyden)= 0.12920E+00
  rms(prec ) = 0.13808E+00
  weight for this iteration     100.00

 eigenvalues of (default mixing * dielectric matrix)
  average eigenvalue GAMMA=   1.7889
  1.1868  2.3911

 Free energy of the ion-electron system (eV)
  ---------------------------------------------------
  alpha Z        PSCENC =        86.06350757
  Ewald energy   TEWEN  =     -1406.74794688
  -Hartree energ DENC   =      -141.98990464
  -exchange      EXHF   =         0.00000000
  -V(xc)+E(xc)   XCENC  =       -32.46115935
  PAW double counting   =      1788.14141544    -1675.66362723
  entropy T*S    EENTRO =        -0.00000000
  eigenvalues    EBANDS =       -99.63227089
  atomic energy  EATOM  =      1448.48460880
  Solvation  Ediel_sol  =         0.00000000
  ---------------------------------------------------
  free energy    TOTEN  =       -33.80537719 eV

  energy without entropy =      -33.80537719  energy(sigma->0) =      -33.80537719


--------------------------------------------------------------------------------------------------------




--------------------------------------- Iteration      1(   8)  ---------------------------------------


    POTLOK:  cpu time      0.0054: real time      0.0056
    SETDIJ:  cpu time      0.1368: real time      0.1373
     EDDAV:  cpu time      0.2785: real time      0.2811
       DOS:  cpu time      0.0006: real time      0.0006
    CHARGE:  cpu time      0.0047: real time      0.0047
    MIXING:  cpu time      0.0005: real time      0.0005
    --------------------------------------------
      LOOP:  cpu time      0.4265: real time      0.4299

 eigenvalue-minimisations  :  2992
 total energy-change (2. order) : 0.1446071E-02  (-0.2205613E-02)
 number of electron      39.9999956 magnetization 
 augmentation part       -7.3356765 magnetization 

 Broyden mixing:
  rms(total) = 0.18401E-01    rms(broyden)= 0.18401E-01
  rms(prec ) = 0.22314E-01
  weight for this iteration     100.00

 eigenvalues of (default mixing * dielectric matrix)
  average eigenvalue GAMMA=   1.6966
  2.5075  1.2912  1.2912

 Free energy of the ion-electron system (eV)
  ---------------------------------------------------
  alpha Z        PSCENC =        86.06350757
  Ewald energy   TEWEN  =     -1406.74794688
  -Hartree energ DENC   =      -142.13228118
  -exchange      EXHF   =         0.00000000
  -V(xc)+E(xc)   XCENC  =       -32.31401226
  PAW double counting   =      1927.09401590    -1814.67873500
  entropy T*S    EENTRO =        -0.00000000
  eigenvalues    EBANDS =       -99.57308806
  atomic energy  EATOM  =      1448.48460880
  Solvation  Ediel_sol  =         0.00000000
  ---------------------------------------------------
  free energy    TOTEN  =       -33.80393112 eV

  energy without entropy =      -33.80393112  energy(sigma->0) =      -33.80393112


--------------------------------------------------------------------------------------------------------




--------------------------------------- Iteration      1(   9)  ---------------------------------------


    POTLOK:  cpu time      0.0053: real time      0.0055
    SETDIJ:  cpu time      0.1368: real time      0.1374
     EDDAV:  cpu time      0.2942: real time      0.2972
       DOS:  cpu time      0.0005: real time      0.0005
    CHARGE:  cpu time      0.0038: real time      0.0039
    MIXING:  cpu time      0.0005: real time      0.0005
    --------------------------------------------
      LOOP:  cpu time      0.4412: real time      0.4450

 eigenvalue-minimisations  :  3152
 total energy-change (2. order) :-0.2751574E-03  (-0.3655090E-03)
 number of electron      39.9999956 magnetization 
 augmentation part       -7.3337903 magnetization 

 Broyden mixing:
  rms(total) = 0.65963E-02    rms(broyden)= 0.65963E-02
  rms(prec ) = 0.73522E-02
  weight for this iteration     100.00

 eigenvalues of (default mixing * dielectric matrix)
  average eigenvalue GAMMA=   1.7203
  2.2724  2.2724  1.1681  1.1681

 Free energy of the ion-electron system (eV)
  ---------------------------------------------------
  alpha Z        PSCENC =        86.06350757
  Ewald energy   TEWEN  =     -1406.74794688
  -Hartree energ DENC   =      -142.48292137
  -exchange      EXHF   =         0.00000000
  -V(xc)+E(xc)   XCENC  =       -32.27398085
  PAW double counting   =      1941.30820233    -1828.90236743
  entropy T*S    EENTRO =        -0.00000000
  eigenvalues    EBANDS =       -99.25330843
  atomic energy  EATOM  =      1448.48460880
  Solvation  Ediel_sol  =         0.00000000
  ---------------------------------------------------
  free energy    TOTEN  =       -33.80420628 eV

  energy without entropy =      -33.80420628  energy(sigma->0) =      -33.80420628


--------------------------------------------------------------------------------------------------------




--------------------------------------- Iteration      1(  10)  ---------------------------------------


    POTLOK:  cpu time      0.0052: real time      0.0055
    SETDIJ:  cpu time      0.1367: real time      0.1372
     EDDAV:  cpu time      0.2707: real time      0.2720
       DOS:  cpu time      0.0003: real time      0.0003
    CHARGE:  cpu time      0.0030: real time      0.0030
    MIXING:  cpu time      0.0003: real time      0.0003
    --------------------------------------------
      LOOP:  cpu time      0.4162: real time      0.4184

 eigenvalue-minimisations  :  3120
 total energy-change (2. order) :-0.8962042E-04  (-0.2666721E-04)
 number of electron      39.9999956 magnetization 
 augmentation part       -7.3336970 magnetization 

 Broyden mixing:
  rms(total) = 0.24055E-02    rms(broyden)= 0.24055E-02
  rms(prec ) = 0.29440E-02
  weight for this iteration     100.00

 eigenvalues of (default mixing * dielectric matrix)
  average eigenvalue GAMMA=   1.7417
  2.6769  2.3920  1.1686  1.2354  1.2354

 Free energy of the ion-electron system (eV)
  ---------------------------------------------------
  alpha Z        PSCENC =        86.06350757
  Ewald energy   TEWEN  =     -1406.74794688
  -Hartree energ DENC   =      -142.51047584
  -exchange      EXHF   =         0.00000000
  -V(xc)+E(xc)   XCENC  =       -32.27135761
  PAW double counting   =      1934.95324307    -1822.54250369
  entropy T*S    EENTRO =        -0.00000000
  eigenvalues    EBANDS =       -99.23337131
  atomic energy  EATOM  =      1448.48460880
  Solvation  Ediel_sol  =         0.00000000
  ---------------------------------------------------
  free energy    TOTEN  =       -33.80429590 eV

  energy without entropy =      -33.80429590  energy(sigma->0) =      -33.80429590


--------------------------------------------------------------------------------------------------------




--------------------------------------- Iteration      1(  11)  ---------------------------------------


    POTLOK:  cpu time      0.0036: real time      0.0037
    SETDIJ:  cpu time      0.1368: real time      0.1372
     EDDAV:  cpu time      0.1818: real time      0.1828
       DOS:  cpu time      0.0003: real time      0.0003
    CHARGE:  cpu time      0.0032: real time      0.0032
    MIXING:  cpu time      0.0003: real time      0.0003
    --------------------------------------------
      LOOP:  cpu time      0.3260: real time      0.3276

 eigenvalue-minimisations  :  2816
 total energy-change (2. order) :-0.2733320E-04  (-0.3903911E-05)
 number of electron      39.9999956 magnetization 
 augmentation part       -7.3339382 magnetization 

 Broyden mixing:
  rms(total) = 0.12528E-02    rms(broyden)= 0.12528E-02
  rms(prec ) = 0.13765E-02
  weight for this iteration     100.00

 eigenvalues of (default mixing * dielectric matrix)
  average eigenvalue GAMMA=   1.7134
  2.4481  2.4481  2.1124  1.1761  1.1761  0.9197

 Free energy of the ion-electron system (eV)
  ---------------------------------------------------
  alpha Z        PSCENC =        86.06350757
  Ewald energy   TEWEN  =     -1406.74794688
  -Hartree energ DENC   =      -142.53452907
  -exchange      EXHF   =         0.00000000
  -V(xc)+E(xc)   XCENC  =       -32.26487416
  PAW double counting   =      1936.50812207    -1824.09777207
  entropy T*S    EENTRO =        -0.00000000
  eigenvalues    EBANDS =       -99.21543949
  atomic energy  EATOM  =      1448.48460880
  Solvation  Ediel_sol  =         0.00000000
  ---------------------------------------------------
  free energy    TOTEN  =       -33.80432323 eV

  energy without entropy =      -33.80432323  energy(sigma->0) =      -33.80432323


--------------------------------------------------------------------------------------------------------




--------------------------------------- Iteration      1(  12)  ---------------------------------------


    POTLOK:  cpu time      0.0038: real time      0.0040
    SETDIJ:  cpu time      0.1165: real time      0.1167
     EDDAV:  cpu time      0.1979: real time      0.1990
       DOS:  cpu time      0.0003: real time      0.0003
    --------------------------------------------
      LOOP:  cpu time      0.3185: real time      0.3200

 eigenvalue-minimisations  :  3344
 total energy-change (2. order) :-0.4472209E-06  (-0.5339317E-06)
 number of electron      39.9999956 magnetization 
 augmentation part       -7.3339382 magnetization 

 Free energy of the ion-electron system (eV)
  ---------------------------------------------------
  alpha Z        PSCENC =        86.06350757
  Ewald energy   TEWEN  =     -1406.74794688
  -Hartree energ DENC   =      -142.54748818
  -exchange      EXHF   =         0.00000000
  -V(xc)+E(xc)   XCENC  =       -32.26394903
  PAW double counting   =      1935.65614296    -1823.24553066
  entropy T*S    EENTRO =        -0.00000000
  eigenvalues    EBANDS =       -99.20366825
  atomic energy  EATOM  =      1448.48460880
  Solvation  Ediel_sol  =         0.00000000
  ---------------------------------------------------
  free energy    TOTEN  =       -33.80432368 eV

  energy without entropy =      -33.80432368  energy(sigma->0) =      -33.80432368


--------------------------------------------------------------------------------------------------------




 average (electrostatic) potential at core
  the test charge radii are     1.1631  1.0808
  (the norm of the test charge is              1.0000)
       1 -33.6057       2 -33.6057       3 -33.6057       4 -33.6057       5 -55.1026
       6 -55.1026       7 -55.1026       8 -55.1026
 
 
 
 E-fermi :   3.4451     XC(G=0):  -9.2146     alpha+bet : -8.5739

 Fermi energy:         3.4451383420

 k-point     1 :       0.0000    0.0000    0.0000
  band No.  band energies     occupation 
      1     -11.0850      2.00000
      2     -10.7937      2.00000
      3      -9.8299      2.00000
      4      -9.3972      2.00000
      5      -4.9568      2.00000
      6      -4.4118      2.00000
      7      -2.8805      2.00000
      8      -2.3582      2.00000
      9      -1.8899      2.00000
     10      -0.6015      2.00000
     11      -0.4717      2.00000
     12      -0.1983      2.00000
     13       0.2142      2.00000
     14       0.5613      2.00000
     15       1.2893      2.00000
     16       1.3996      2.00000
     17       1.9016      2.00000
     18       2.1980      2.00000
     19       2.2491      2.00000
     20       3.1990      2.00000
     21       3.9493      0.00000
     22       5.4751      0.00000
     23       5.7435      0.00000
     24       5.7920      0.00000
     25       6.0591      0.00000
     26       6.2566      0.00000
     27       6.5993      0.00000
     28       7.2203      0.00000
     29       7.9919      0.00000
     30       8.4318      0.00000
     31       8.4801      0.00000
     32       8.8889      0.00000

 k-point     2 :       0.1667    0.0000    0.0000
  band No.  band energies     occupation 
      1     -10.9778      2.00000
      2     -10.6937      2.00000
      3      -9.8550      2.00000
      4      -9.4661      2.00000
      5      -5.2217      2.00000
      6      -4.4841      2.00000
      7      -3.5329      2.00000
      8      -2.8339      2.00000
      9      -1.6939      2.00000
     10      -0.2577      2.00000
     11       0.1554      2.00000
     12       0.2992      2.00000
     13       0.3414      2.00000
     14       0.6744      2.00000
     15       1.4218      2.00000
     16       1.7178      2.00000
     17       1.7889      2.00000
     18       1.8650      2.00000
     19       2.5376      2.00000
     20       3.0150      2.00000
     21       4.1095      0.00000
     22       5.1412      0.00000
     23       5.7070      0.00000
     24       5.7479      0.00000
     25       5.8713      0.00000
     26       6.2196      0.00000
     27       6.6164      0.00000
     28       6.9679      0.00000
     29       7.4458      0.00000
     30       7.8702      0.00000
     31       8.4236      0.00000
     32       8.5173      0.00000

 k-point     3 :       0.3333    0.0000    0.0000
  band No.  band energies     occupation 
      1     -10.6838      2.00000
      2     -10.4185      2.00000
      3      -9.9893      2.00000
      4      -9.6909      2.00000
      5      -5.4871      2.00000
      6      -4.5532      2.00000
      7      -4.5511      2.00000
      8      -3.6321      2.00000
      9      -1.2322      2.00000
     10       0.2069      2.00000
     11       0.6889      2.00000
     12       0.9773      2.00000
     13       1.0205      2.00000
     14       1.1028      2.00000
     15       1.3943      2.00000
     16       1.4952      2.00000
     17       1.6920      2.00000
     18       2.5947      2.00000
     19       2.6170      2.00000
     20       3.0046      2.00000
     21       4.3485      0.00000
     22       4.6763      0.00000
     23       4.8369      0.00000
     24       5.3881      0.00000
     25       5.7360      0.00000
     26       5.9879      0.00000
     27       6.4801      0.00000
     28       6.6390      0.00000
     29       6.7506      0.00000
     30       7.5161      0.00000
     31       7.5512      0.00000
     32       8.8286      0.00000

 k-point     4 :       0.5000    0.0000    0.0000
  band No.  band energies     occupation 
      1     -10.2990      2.00000
      2     -10.2990      2.00000
      3     -10.0453      2.00000
      4     -10.0453      2.00000
      5      -5.2751      2.00000
      6      -5.2751      2.00000
      7      -4.2795      2.00000
      8      -4.2795      2.00000
      9      -0.5056      2.00000
     10      -0.5056      2.00000
     11       1.1266      2.00000
     12       1.1266      2.00000
     13       1.3589      2.00000
     14       1.3589      2.00000
     15       1.6556      2.00000
     16       1.6556      2.00000
     17       2.1436      2.00000
     18       2.1436      2.00000
     19       2.7598      2.00000
     20       2.7598      2.00000
     21       4.5593      0.00000
     22       4.5593      0.00000
     23       5.1543      0.00000
     24       5.1543      0.00000
     25       5.6839      0.00000
     26       5.6839      0.00000
     27       5.8023      0.00000
     28       5.8023      0.00000
     29       6.8098      0.00000
     30       6.8098      0.00000
     31       8.5480      0.00000
     32       8.5480      0.00000

 k-point     5 :       0.0000    0.1667    0.0000
  band No.  band energies     occupation 
      1     -10.8887      2.00000
      2     -10.6117      2.00000
      3      -9.7074      2.00000
      4      -9.3279      2.00000
      5      -5.0923      2.00000
      6      -4.6034      2.00000
      7      -3.1076      2.00000
      8      -2.9458      2.00000
      9      -1.7019      2.00000
     10      -0.3895      2.00000
     11      -0.3870      2.00000
     12      -0.3048      2.00000
     13       0.0514      2.00000
     14       0.1539      2.00000
     15       1.2008      2.00000
     16       1.2178      2.00000
     17       1.4625      2.00000
     18       2.2900      2.00000
     19       2.4074      2.00000
     20       2.9669      2.00000
     21       4.1331      0.00000
     22       5.1350      0.00000
     23       5.6602      0.00000
     24       5.8203      0.00000
     25       6.3905      0.00000
     26       6.5783      0.00000
     27       6.8457      0.00000
     28       6.8691      0.00000
     29       7.1321      0.00000
     30       8.1180      0.00000
     31       8.1587      0.00000
     32       8.2596      0.00000

 k-point     6 :       0.1667    0.1667    0.0000
  band No.  band energies     occupation 
      1     -10.7865      2.00000
      2     -10.5172      2.00000
      3      -9.7327      2.00000
      4      -9.3893      2.00000
      5      -5.2530      2.00000
      6      -4.5870      2.00000
      7      -3.6143      2.00000
      8      -3.1618      2.00000
      9      -1.5345      2.00000
     10      -0.8580      2.00000
     11      -0.5470      2.00000
     12      -0.0126      2.00000
     13       0.6932      2.00000
     14       0.7265      2.00000
     15       0.9385      2.00000
     16       1.1536      2.00000
     17       1.8828      2.00000
     18       1.9356      2.00000
     19       2.5603      2.00000
     20       2.8825      2.00000
     21       4.2686      0.00000
     22       5.0771      0.00000
     23       5.4266      0.00000
     24       5.5847      0.00000
     25       6.1562      0.00000
     26       6.4184      0.00000
     27       6.9754      0.00000
     28       7.0997      0.00000
     29       7.4394      0.00000
     30       7.6342      0.00000
     31       7.8674      0.00000
     32       8.6746      0.00000

 k-point     7 :      -0.1667    0.1667    0.0000
  band No.  band energies     occupation 
      1     -10.7865      2.00000
      2     -10.5172      2.00000
      3      -9.7327      2.00000
      4      -9.3893      2.00000
      5      -5.2530      2.00000
      6      -4.5870      2.00000
      7      -3.6143      2.00000
      8      -3.1618      2.00000
      9      -1.5345      2.00000
     10      -0.8580      2.00000
     11      -0.5470      2.00000
     12      -0.0126      2.00000
     13       0.6932      2.00000
     14       0.7265      2.00000
     15       0.9385      2.00000
     16       1.1536      2.00000
     17       1.8828      2.00000
     18       1.9356      2.00000
     19       2.5603      2.00000
     20       2.8825      2.00000
     21       4.2686      0.00000
     22       5.0771      0.00000
     23       5.4266      0.00000
     24       5.5847      0.00000
     25       6.1562      0.00000
     26       6.4184      0.00000
     27       6.9754      0.00000
     28       7.0997      0.00000
     29       7.4394      0.00000
     30       7.6342      0.00000
     31       7.8674      0.00000
     32       8.6746      0.00000

 k-point     8 :       0.3333    0.1667    0.0000
  band No.  band energies     occupation 
      1     -10.5082      2.00000
      2     -10.2588      2.00000
      3      -9.8604      2.00000
      4      -9.5905      2.00000
      5      -5.3976      2.00000
      6      -4.5259      2.00000
      7      -4.4838      2.00000
      8      -3.7112      2.00000
      9      -1.0686      2.00000
     10      -0.8427      2.00000
     11      -0.4975      2.00000
     12       0.1534      2.00000
     13       0.3419      2.00000
     14       0.7336      2.00000
     15       1.1561      2.00000
     16       1.6530      2.00000
     17       1.9793      2.00000
     18       2.0890      2.00000
     19       2.6069      2.00000
     20       2.6798      2.00000
     21       4.4982      0.00000
     22       5.1375      0.00000
     23       5.5193      0.00000
     24       5.6586      0.00000
     25       5.9338      0.00000
     26       6.2047      0.00000
     27       6.6562      0.00000
     28       7.3599      0.00000
     29       7.3798      0.00000
     30       7.6146      0.00000
     31       7.9771      0.00000
     32       8.6777      0.00000

 k-point     9 :      -0.3333    0.1667    0.0000
  band No.  band energies     occupation 
      1     -10.5082      2.00000
      2     -10.2588      2.00000
      3      -9.8604      2.00000
      4      -9.5905      2.00000
      5      -5.3976      2.00000
      6      -4.5259      2.00000
      7      -4.4838      2.00000
      8      -3.7112      2.00000
      9      -1.0686      2.00000
     10      -0.8427      2.00000
     11      -0.4975      2.00000
     12       0.1534      2.00000
     13       0.3419      2.00000
     14       0.7336      2.00000
     15       1.1561      2.00000
     16       1.6530      2.00000
     17       1.9793      2.00000
     18       2.0890      2.00000
     19       2.6069      2.00000
     20       2.6798      2.00000
     21       4.4982      0.00000
     22       5.1375      0.00000
     23       5.5193      0.00000
     24       5.6586      0.00000
     25       5.9338      0.00000
     26       6.2047      0.00000
     27       6.6562      0.00000
     28       7.3599      0.00000
     29       7.3798      0.00000
     30       7.6146      0.00000
     31       7.9771      0.00000
     32       8.6777      0.00000

 k-point    10 :       0.5000    0.1667    0.0000
  band No.  band energies     occupation 
      1     -10.1482      2.00000
      2     -10.1482      2.00000
      3      -9.9128      2.00000
      4      -9.9128      2.00000
      5      -5.1538      2.00000
      6      -5.1538      2.00000
      7      -4.2427      2.00000
      8      -4.2427      2.00000
      9      -0.5754      2.00000
     10      -0.5754      2.00000
     11      -0.1895      2.00000
     12      -0.1895      2.00000
     13       0.0802      2.00000
     14       0.0802      2.00000
     15       1.5102      2.00000
     16       1.5102      2.00000
     17       2.2384      2.00000
     18       2.2384      2.00000
     19       2.6536      2.00000
     20       2.6536      2.00000
     21       4.7191      0.00000
     22       4.7191      0.00000
     23       5.6946      0.00000
     24       5.6946      0.00000
     25       6.4235      0.00000
     26       6.4235      0.00000
     27       6.8510      0.00000
     28       6.8510      0.00000
     29       7.3604      0.00000
     30       7.3604      0.00000
     31       8.3373      0.00000
     32       8.3373      0.00000

 k-point    11 :       0.0000    0.3333    0.0000
  band No.  band energies     occupation 
      1     -10.3522      2.00000
      2     -10.1316      2.00000
      3      -9.4930      2.00000
      4      -9.3012      2.00000
      5      -5.3987      2.00000
      6      -4.9698      2.00000
      7      -4.2199      2.00000
      8      -3.9053      2.00000
      9      -1.1156      2.00000
     10      -0.5014      2.00000
     11      -0.2969      2.00000
     12       0.1052      2.00000
     13       0.3249      2.00000
     14       0.4731      2.00000
     15       0.8156      2.00000
     16       1.3090      2.00000
     17       1.4879      2.00000
     18       2.1036      2.00000
     19       2.1832      2.00000
     20       2.2317      2.00000
     21       4.0215      0.00000
     22       4.4461      0.00000
     23       4.6088      0.00000
     24       5.1143      0.00000
     25       5.2926      0.00000
     26       5.8056      0.00000
     27       5.9412      0.00000
     28       6.5340      0.00000
     29       6.9337      0.00000
     30       6.9882      0.00000
     31       7.6001      0.00000
     32       8.0827      0.00000

 k-point    12 :       0.1667    0.3333    0.0000
  band No.  band energies     occupation 
      1     -10.2693      2.00000
      2     -10.0580      2.00000
      3      -9.5090      2.00000
      4      -9.3280      2.00000
      5      -5.3650      2.00000
      6      -4.8740      2.00000
      7      -4.2478      2.00000
      8      -4.0228      2.00000
      9      -1.2111      2.00000
     10      -1.0109      2.00000
     11      -0.8781      2.00000
     12      -0.2728      2.00000
     13       0.4775      2.00000
     14       0.7769      2.00000
     15       0.8364      2.00000
     16       1.0813      2.00000
     17       1.2749      2.00000
     18       2.0762      2.00000
     19       2.0876      2.00000
     20       2.1365      2.00000
     21       4.1333      0.00000
     22       4.7826      0.00000
     23       4.8072      0.00000
     24       5.1331      0.00000
     25       5.8726      0.00000
     26       6.1998      0.00000
     27       6.7045      0.00000
     28       6.8773      0.00000
     29       7.2388      0.00000
     30       7.2776      0.00000
     31       8.0829      0.00000
     32       8.3073      0.00000

 k-point    13 :      -0.1667    0.3333    0.0000
  band No.  band energies     occupation 
      1     -10.2693      2.00000
      2     -10.0580      2.00000
      3      -9.5090      2.00000
      4      -9.3280      2.00000
      5      -5.3650      2.00000
      6      -4.8740      2.00000
      7      -4.2478      2.00000
      8      -4.0228      2.00000
      9      -1.2111      2.00000
     10      -1.0109      2.00000
     11      -0.8781      2.00000
     12      -0.2728      2.00000
     13       0.4775      2.00000
     14       0.7769      2.00000
     15       0.8364      2.00000
     16       1.0813      2.00000
     17       1.2749      2.00000
     18       2.0762      2.00000
     19       2.0876      2.00000
     20       2.1365      2.00000
     21       4.1333      0.00000
     22       4.7826      0.00000
     23       4.8072      0.00000
     24       5.1331      0.00000
     25       5.8726      0.00000
     26       6.1998      0.00000
     27       6.7045      0.00000
     28       6.8773      0.00000
     29       7.2388      0.00000
     30       7.2776      0.00000
     31       8.0829      0.00000
     32       8.3073      0.00000

 k-point    14 :       0.3333    0.3333    0.0000
  band No.  band energies     occupation 
      1     -10.0508      2.00000
      2      -9.8643      2.00000
      3      -9.5912      2.00000
      4      -9.4302      2.00000
      5      -5.2345      2.00000
      6      -4.6409      2.00000
      7      -4.5198      2.00000
      8      -4.1934      2.00000
      9      -1.7125      2.00000
     10      -1.2596      2.00000
     11      -1.0350      2.00000
     12      -0.6721      2.00000
     13      -0.2731      2.00000
     14       0.3449      2.00000
     15       0.4592      2.00000
     16       0.9627      2.00000
     17       1.1954      2.00000
     18       1.6900      2.00000
     19       2.0764      2.00000
     20       2.2484      2.00000
     21       4.1917      0.00000
     22       5.6786      0.00000
     23       6.1568      0.00000
     24       6.1874      0.00000
     25       6.4035      0.00000
     26       6.6648      0.00000
     27       7.1869      0.00000
     28       7.6677      0.00000
     29       7.9285      0.00000
     30       8.1845      0.00000
     31       8.2156      0.00000
     32       9.3637      0.00000

 k-point    15 :      -0.3333    0.3333    0.0000
  band No.  band energies     occupation 
      1     -10.0508      2.00000
      2      -9.8643      2.00000
      3      -9.5912      2.00000
      4      -9.4302      2.00000
      5      -5.2345      2.00000
      6      -4.6409      2.00000
      7      -4.5198      2.00000
      8      -4.1934      2.00000
      9      -1.7125      2.00000
     10      -1.2596      2.00000
     11      -1.0350      2.00000
     12      -0.6721      2.00000
     13      -0.2731      2.00000
     14       0.3449      2.00000
     15       0.4592      2.00000
     16       0.9627      2.00000
     17       1.1954      2.00000
     18       1.6900      2.00000
     19       2.0764      2.00000
     20       2.2484      2.00000
     21       4.1917      0.00000
     22       5.6786      0.00000
     23       6.1568      0.00000
     24       6.1874      0.00000
     25       6.4035      0.00000
     26       6.6648      0.00000
     27       7.1869      0.00000
     28       7.6677      0.00000
     29       7.9285      0.00000
     30       8.1845      0.00000
     31       8.2156      0.00000
     32       9.3622      0.00000

 k-point    16 :       0.5000    0.3333    0.0000
  band No.  band energies     occupation 
      1      -9.7863      2.00000
      2      -9.7863      2.00000
      3      -9.6251      2.00000
      4      -9.6251      2.00000
      5      -4.9426      2.00000
      6      -4.9426      2.00000
      7      -4.3835      2.00000
      8      -4.3835      2.00000
      9      -1.6067      2.00000
     10      -1.6067      2.00000
     11      -1.0124      2.00000
     12      -1.0124      2.00000
     13      -0.2140      2.00000
     14      -0.2140      2.00000
     15       0.6710      2.00000
     16       0.6710      2.00000
     17       1.1632      2.00000
     18       1.1632      2.00000
     19       2.1613      2.00000
     20       2.1613      2.00000
     21       5.1324      0.00000
     22       5.1324      0.00000
     23       6.7632      0.00000
     24       6.7632      0.00000
     25       7.2906      0.00000
     26       7.2906      0.00000
     27       7.6828      0.00000
     28       7.6828      0.00000
     29       8.1251      0.00000
     30       8.1251      0.00000
     31       9.0581      0.00000
     32       9.0581      0.00000

 k-point    17 :       0.0000    0.5000    0.0000
  band No.  band energies     occupation 
      1      -9.6849      2.00000
      2      -9.6849      2.00000
      3      -9.6144      2.00000
      4      -9.6144      2.00000
      5      -5.2300      2.00000
      6      -5.2300      2.00000
      7      -4.7727      2.00000
      8      -4.7727      2.00000
      9      -0.4309      2.00000
     10      -0.4309      2.00000
     11       0.1103      2.00000
     12       0.1103      2.00000
     13       0.6267      2.00000
     14       0.6267      2.00000
     15       1.1259      2.00000
     16       1.1259      2.00000
     17       1.4917      2.00000
     18       1.4917      2.00000
     19       1.8451      2.00000
     20       1.8451      2.00000
     21       4.1063      0.00000
     22       4.1063      0.00000
     23       4.4641      0.00000
     24       4.4641      0.00000
     25       5.1845      0.00000
     26       5.1845      0.00000
     27       5.5868      0.00000
     28       5.5868      0.00000
     29       6.6316      0.00000
     30       6.6316      0.00000
     31       7.5037      0.00000
     32       7.5037      0.00000

 k-point    18 :       0.1667    0.5000    0.0000
  band No.  band energies     occupation 
      1      -9.6480      2.00000
      2      -9.6480      2.00000
      3      -9.5862      2.00000
      4      -9.5862      2.00000
      5      -5.1425      2.00000
      6      -5.1425      2.00000
      7      -4.7487      2.00000
      8      -4.7487      2.00000
      9      -0.7465      2.00000
     10      -0.7465      2.00000
     11      -0.3458      2.00000
     12      -0.3458      2.00000
     13       0.1651      2.00000
     14       0.1651      2.00000
     15       0.7365      2.00000
     16       0.7365      2.00000
     17       1.4205      2.00000
     18       1.4205      2.00000
     19       2.1359      2.00000
     20       2.1359      2.00000
     21       4.0786      0.00000
     22       4.0786      0.00000
     23       5.1489      0.00000
     24       5.1489      0.00000
     25       6.0321      0.00000
     26       6.0321      0.00000
     27       6.4729      0.00000
     28       6.4729      0.00000
     29       7.0986      0.00000
     30       7.0986      0.00000
     31       7.2961      0.00000
     32       7.2961      0.00000

 k-point    19 :       0.3333    0.5000    0.0000
  band No.  band energies     occupation 
      1      -9.5687      2.00000
      2      -9.5687      2.00000
      3      -9.5308      2.00000
      4      -9.5308      2.00000
      5      -4.9393      2.00000
      6      -4.9393      2.00000
      7      -4.7169      2.00000
      8      -4.7169      2.00000
      9      -1.3703      2.00000
     10      -1.3703      2.00000
     11      -0.9253      2.00000
     12      -0.9253      2.00000
     13      -0.4070      2.00000
     14      -0.4070      2.00000
     15       0.2425      2.00000
     16       0.2425      2.00000
     17       1.1536      2.00000
     18       1.1536      2.00000
     19       1.9715      2.00000
     20       1.9715      2.00000
     21       5.0741      0.00000
     22       5.0741      0.00000
     23       6.4122      0.00000
     24       6.4122      0.00000
     25       6.9269      0.00000
     26       6.9269      0.00000
     27       7.2953      0.00000
     28       7.2953      0.00000
     29       7.6483      0.00000
     30       7.6483      0.00000
     31       8.8277      0.00000
     32       8.8277      0.00000

 k-point    20 :       0.5000    0.5000    0.0000
  band No.  band energies     occupation 
      1      -9.5216      2.00000
      2      -9.5216      2.00000
      3      -9.5079      2.00000
      4      -9.5079      2.00000
      5      -4.8023      2.00000
      6      -4.8023      2.00000
      7      -4.7289      2.00000
      8      -4.7289      2.00000
      9      -1.5945      2.00000
     10      -1.5945      2.00000
     11      -1.2528      2.00000
     12      -1.2528      2.00000
     13      -0.5019      2.00000
     14      -0.5019      2.00000
     15      -0.1631      2.00000
     16      -0.1631      2.00000
     17       1.2637      2.00000
     18       1.2637      2.00000
[...]
     32       7.3724      0.00000

 k-point    32 :       0.1667    0.3333    0.5000
  band No.  band energies     occupation 
      1     -10.1781      2.00000
      2     -10.1781      2.00000
      3      -9.4035      2.00000
      4      -9.4035      2.00000
      5      -5.1484      2.00000
      6      -5.1484      2.00000
      7      -4.1290      2.00000
      8      -4.1290      2.00000
      9      -1.1202      2.00000
     10      -1.1202      2.00000
     11      -0.3628      2.00000
     12      -0.3628      2.00000
     13       0.3826      2.00000
     14       0.3826      2.00000
     15       1.0581      2.00000
     16       1.0581      2.00000
     17       1.3425      2.00000
     18       1.3425      2.00000
     19       2.2614      2.00000
     20       2.2614      2.00000
     21       4.7922      0.00000
     22       4.7922      0.00000
     23       5.0412      0.00000
     24       5.0412      0.00000
     25       6.0895      0.00000
     26       6.0895      0.00000
     27       6.4983      0.00000
     28       6.4983      0.00000
     29       7.2193      0.00000
     30       7.2193      0.00000
     31       7.9249      0.00000
     32       7.9249      0.00000

 k-point    33 :      -0.1667    0.3333    0.5000
  band No.  band energies     occupation 
      1     -10.1781      2.00000
      2     -10.1781      2.00000
      3      -9.4035      2.00000
      4      -9.4035      2.00000
      5      -5.1484      2.00000
      6      -5.1484      2.00000
      7      -4.1290      2.00000
      8      -4.1290      2.00000
      9      -1.1202      2.00000
     10      -1.1202      2.00000
     11      -0.3628      2.00000
     12      -0.3628      2.00000
     13       0.3826      2.00000
     14       0.3826      2.00000
     15       1.0581      2.00000
     16       1.0581      2.00000
     17       1.3425      2.00000
     18       1.3425      2.00000
     19       2.2614      2.00000
     20       2.2614      2.00000
     21       4.7922      0.00000
     22       4.7922      0.00000
     23       5.0412      0.00000
     24       5.0412      0.00000
     25       6.0895      0.00000
     26       6.0895      0.00000
     27       6.4983      0.00000
     28       6.4983      0.00000
     29       7.2193      0.00000
     30       7.2193      0.00000
     31       7.9249      0.00000
     32       7.9249      0.00000

 k-point    34 :       0.3333    0.3333    0.5000
  band No.  band energies     occupation 
      1      -9.9743      2.00000
      2      -9.9743      2.00000
      3      -9.4942      2.00000
      4      -9.4942      2.00000
      5      -5.0062      2.00000
      6      -5.0062      2.00000
      7      -4.3029      2.00000
      8      -4.3029      2.00000
      9      -1.5165      2.00000
     10      -1.5165      2.00000
     11      -0.7813      2.00000
     12      -0.7813      2.00000
     13      -0.0085      2.00000
     14      -0.0085      2.00000
     15       0.6987      2.00000
     16       0.6987      2.00000
     17       1.3922      2.00000
     18       1.3922      2.00000
     19       2.1556      2.00000
     20       2.1556      2.00000
     21       5.3163      0.00000
     22       5.3163      0.00000
     23       5.9653      0.00000
     24       5.9653      0.00000
     25       6.2652      0.00000
     26       6.2652      0.00000
     27       7.3492      0.00000
     28       7.3492      0.00000
     29       7.7008      0.00000
     30       7.7008      0.00000
     31       9.1459      0.00000
     32       9.1459      0.00000

 k-point    35 :      -0.3333    0.3333    0.5000
  band No.  band energies     occupation 
      1      -9.9743      2.00000
      2      -9.9743      2.00000
      3      -9.4942      2.00000
      4      -9.4942      2.00000
      5      -5.0062      2.00000
      6      -5.0062      2.00000
      7      -4.3029      2.00000
      8      -4.3029      2.00000
      9      -1.5165      2.00000
     10      -1.5165      2.00000
     11      -0.7813      2.00000
     12      -0.7813      2.00000
     13      -0.0085      2.00000
     14      -0.0085      2.00000
     15       0.6987      2.00000
     16       0.6987      2.00000
     17       1.3922      2.00000
     18       1.3922      2.00000
     19       2.1556      2.00000
     20       2.1556      2.00000
     21       5.3163      0.00000
     22       5.3163      0.00000
     23       5.9653      0.00000
     24       5.9653      0.00000
     25       6.2652      0.00000
     26       6.2652      0.00000
     27       7.3492      0.00000
     28       7.3492      0.00000
     29       7.7008      0.00000
     30       7.7008      0.00000
     31       9.1459      0.00000
     32       9.1459      0.00000

 k-point    36 :       0.5000    0.3333    0.5000
  band No.  band energies     occupation 
      1      -9.7830      2.00000
      2      -9.7830      2.00000
      3      -9.6289      2.00000
      4      -9.6289      2.00000
      5      -4.9046      2.00000
      6      -4.9046      2.00000
      7      -4.4336      2.00000
      8      -4.4336      2.00000
      9      -1.3794      2.00000
     10      -1.3794      2.00000
     11      -1.3404      2.00000
     12      -1.3404      2.00000
     13       0.1745      2.00000
     14       0.1745      2.00000
     15       0.2484      2.00000
     16       0.2484      2.00000
     17       1.5966      2.00000
     18       1.5966      2.00000
     19       1.8188      2.00000
     20       1.8188      2.00000
     21       5.6649      0.00000
     22       5.6649      0.00000
     23       6.2434      0.00000
     24       6.2434      0.00000
     25       7.0948      0.00000
     26       7.0948      0.00000
     27       7.1264      0.00000
     28       7.1264      0.00000
     29       8.7777      0.00000
     30       8.7777      0.00000
     31       8.8946      0.00000
     32       8.8946      0.00000

 k-point    37 :       0.0000    0.5000    0.5000
  band No.  band energies     occupation 
      1      -9.6503      2.00000
      2      -9.6503      2.00000
      3      -9.6503      2.00000
      4      -9.6503      2.00000
      5      -5.0150      2.00000
      6      -5.0150      2.00000
      7      -5.0150      2.00000
      8      -5.0150      2.00000
      9      -0.0843      2.00000
     10      -0.0843      2.00000
     11      -0.0843      2.00000
     12      -0.0843      2.00000
     13       0.8991      2.00000
     14       0.8991      2.00000
     15       0.8991      2.00000
     16       0.8991      2.00000
     17       1.4569      2.00000
     18       1.4569      2.00000
     19       1.4569      2.00000
     20       1.4569      2.00000
     21       4.5507      0.00000
     22       4.5507      0.00000
     23       4.5507      0.00000
     24       4.5507      0.00000
     25       5.3512      0.00000
     26       5.3512      0.00000
     27       5.3512      0.00000
     28       5.3512      0.00000
     29       6.8575      0.00000
     30       6.8575      0.00000
     31       6.8575      0.00000
     32       6.8575      0.00000

 k-point    38 :       0.1667    0.5000    0.5000
  band No.  band energies     occupation 
      1      -9.6176      2.00000
      2      -9.6176      2.00000
      3      -9.6176      2.00000
      4      -9.6176      2.00000
      5      -4.9556      2.00000
      6      -4.9556      2.00000
      7      -4.9556      2.00000
      8      -4.9556      2.00000
      9      -0.5388      2.00000
     10      -0.5388      2.00000
     11      -0.5388      2.00000
     12      -0.5388      2.00000
     13       0.4956      2.00000
     14       0.4956      2.00000
     15       0.4956      2.00000
     16       0.4956      2.00000
     17       1.6106      2.00000
     18       1.6106      2.00000
     19       1.6106      2.00000
     20       1.6106      2.00000
     21       4.8741      0.00000
     22       4.8741      0.00000
     23       4.8741      0.00000
     24       4.8741      0.00000
     25       6.2516      0.00000
     26       6.2516      0.00000
     27       6.2516      0.00000
     28       6.2516      0.00000
     29       6.9013      0.00000
     30       6.9013      0.00000
     31       6.9013      0.00000
     32       6.9013      0.00000

 k-point    39 :       0.3333    0.5000    0.5000
  band No.  band energies     occupation 
      1      -9.5499      2.00000
      2      -9.5499      2.00000
      3      -9.5499      2.00000
      4      -9.5499      2.00000
      5      -4.8324      2.00000
      6      -4.8324      2.00000
      7      -4.8324      2.00000
      8      -4.8324      2.00000
      9      -1.1121      2.00000
     10      -1.1121      2.00000
     11      -1.1121      2.00000
     12      -1.1121      2.00000
     13      -0.2446      2.00000
     14      -0.2446      2.00000
     15      -0.2446      2.00000
     16      -0.2446      2.00000
     17       1.7220      2.00000
     18       1.7220      2.00000
     19       1.7220      2.00000
     20       1.7220      2.00000
     21       5.6764      0.00000
     22       5.6764      0.00000
     23       5.6764      0.00000
     24       5.6764      0.00000
     25       6.7449      0.00000
     26       6.7449      0.00000
     27       6.7449      0.00000
     28       6.7449      0.00000
     29       8.4017      0.00000
     30       8.4017      0.00000
     31       8.4017      0.00000
     32       8.4017      0.00000

 k-point    40 :       0.5000    0.5000    0.5000
  band No.  band energies     occupation 
      1      -9.5147      2.00000
      2      -9.5147      2.00000
      3      -9.5147      2.00000
      4      -9.5147      2.00000
      5      -4.7691      2.00000
      6      -4.7691      2.00000
      7      -4.7691      2.00000
      8      -4.7691      2.00000
      9      -1.2751      2.00000
     10      -1.2751      2.00000
     11      -1.2751      2.00000
     12      -1.2751      2.00000
     13      -0.6464      2.00000
     14      -0.6464      2.00000
     15      -0.6464      2.00000
     16      -0.6464      2.00000
     17       1.7882      2.00000
     18       1.7882      2.00000
     19       1.7882      2.00000
     20       1.7882      2.00000
     21       5.6342      0.00000
     22       5.6342      0.00000
     23       5.6342      0.00000
     24       5.6342      0.00000
     25       7.5683      0.00000
     26       7.5683      0.00000
     27       7.5683      0.00000
     28       7.5683      0.00000
     29       9.4214      0.00000
     30       9.4214      0.00000
     31       9.4214      0.00000
     32       9.4214      0.00000


--------------------------------------------------------------------------------------------------------


 soft charge-density along one line, spin component            1
         0         1         2         3         4         5         6         7         8         9
 total charge-density along one line
 
 pseudopotential strength for first ion, spin component:            1
 14.557  18.163  -0.000   0.047   0.042  -0.000   0.085   0.076
 18.163  22.676  -0.000   0.059   0.053  -0.000   0.107   0.096
 -0.000  -0.000   3.232  -0.000  -0.000   5.503  -0.000  -0.000
  0.047   0.059  -0.000   3.229  -0.003  -0.000   5.497  -0.005
  0.042   0.053  -0.000  -0.003   3.231  -0.000  -0.005   5.500
 -0.000  -0.000   5.503  -0.000  -0.000   9.427  -0.000  -0.000
  0.085   0.107  -0.000   5.497  -0.005  -0.000   9.417  -0.009
  0.076   0.096  -0.000  -0.005   5.500  -0.000  -0.009   9.421
 -0.000  -0.000   0.007  -0.000  -0.000   0.013  -0.000  -0.000
 -0.000  -0.000   0.012  -0.000  -0.000   0.022  -0.000  -0.000
 -0.003  -0.004   0.000   0.012  -0.003   0.000   0.023  -0.007
 -0.006  -0.008  -0.000   0.013   0.012  -0.000   0.024   0.022
 -0.002  -0.003   0.000  -0.000   0.012   0.000  -0.000   0.022
 total augmentation occupancy for first ion, spin component:            1
  2.730  -0.694  -0.000   0.373   0.354   0.000  -0.068  -0.068  -0.000  -0.000  -0.007  -0.007  -0.010
 -0.694   0.647   0.000  -0.489  -0.451  -0.000   0.077   0.073   0.000   0.000   0.005   0.004   0.005
 -0.000   0.000   1.267   0.000  -0.000  -0.219  -0.000   0.000   0.152   0.041  -0.000  -0.000  -0.000
  0.373  -0.489   0.000   1.303   0.084  -0.000  -0.210  -0.003   0.000   0.000   0.097  -0.021   0.006
  0.354  -0.451  -0.000   0.084   1.267   0.000  -0.003  -0.208   0.000   0.000  -0.104   0.050   0.002
  0.000  -0.000  -0.219  -0.000   0.000   0.042   0.000  -0.000  -0.026  -0.007   0.000  -0.000   0.000
 -0.068   0.077  -0.000  -0.210  -0.003   0.000   0.038  -0.001  -0.000  -0.000  -0.017   0.003  -0.001
 -0.068   0.073   0.000  -0.003  -0.208  -0.000  -0.001   0.038   0.000  -0.000   0.018  -0.008  -0.001
 -0.000   0.000   0.152   0.000   0.000  -0.026  -0.000   0.000   0.031   0.004  -0.000  -0.000   0.000
 -0.000   0.000   0.041   0.000   0.000  -0.007  -0.000  -0.000   0.004   0.011  -0.000   0.000  -0.000
 -0.007   0.005  -0.000   0.097  -0.104   0.000  -0.017   0.018  -0.000  -0.000   0.029  -0.008   0.002
 -0.007   0.004  -0.000  -0.021   0.050  -0.000   0.003  -0.008  -0.000   0.000  -0.008   0.012  -0.002
 -0.010   0.005  -0.000   0.006   0.002   0.000  -0.001  -0.001   0.000  -0.000   0.002  -0.002   0.009


------------------------ aborting loop because EDIFF is reached ----------------------------------------


    CHARGE:  cpu time      0.0031: real time      0.0031
    FORLOC:  cpu time      0.0002: real time      0.0002
    FORNL :  cpu time      0.0211: real time      0.0212
    STRESS:  cpu time      0.1942: real time      0.1948
    FORCOR:  cpu time      0.0033: real time      0.0033
    FORHAR:  cpu time      0.0008: real time      0.0008
    MIXING:  cpu time      0.0005: real time      0.0005
    OFIELD:  cpu time      0.0000: real time      0.0000

  FORCE on cell =-STRESS in cart. coord.  units (eV):
  Direction    XX          YY          ZZ          XY          YZ          ZX
  --------------------------------------------------------------------------------------
  Alpha Z    86.06351    86.06351    86.06351
  Ewald    -475.10984  -422.67192  -508.96793     0.00000     0.00000     0.00000
  Hartree    45.26597    70.16048    27.12830    -0.00000     0.00000    -0.00000
  E(xc)    -141.19302  -141.15417  -141.39104     0.00000     0.00000    -0.00000
  Local    -139.44577  -210.73975   -91.99736     0.00000     0.00000     0.00000
  n-local   240.57532   240.93401   241.54044     0.00000    -0.00000     0.00000
  augment   -11.77399   -11.38760   -12.15977    -0.00000     0.00000    -0.00000
  Kinetic   395.89014   390.33616   399.94315     0.00000     0.00000    -0.00000
  Fock        0.00000     0.00000     0.00000     0.00000     0.00000     0.00000
  -------------------------------------------------------------------------------------
  Total       0.27231     1.54072     0.15930     0.00000     0.00000    -0.00000
  in kB       2.21597    12.53789     1.29630     0.00001     0.00000    -0.00000
  external pressure =        5.35 kB  Pullay stress =        0.00 kB


 VOLUME and BASIS-vectors are now :
 -----------------------------------------------------------------------------
  energy-cutoff  :      360.00
  volume of cell :      196.88
      direct lattice vectors                 reciprocal lattice vectors
     4.650000000  0.000000000  0.000000000     0.215053763  0.000000000  0.000000000
     0.000000000  3.800000000  0.000000000     0.000000000  0.263157895  0.000000000
     0.000000000  0.000000000 11.142221000     0.000000000  0.000000000  0.089748713

  length of vectors
     4.650000000  3.800000000 11.142221000     0.215053763  0.263157895  0.089748713


 FORCES acting on ions
    electron-ion (+dipol)            ewald-force                    non-local-force                 convergence-correction
 -----------------------------------------------------------------------------------------------
   0.172E+02 -.131E-05 0.279E+02   -.198E+02 -.166E-14 -.308E+02   0.259E+01 0.421E-06 0.298E+01   0.535E-05 0.120E-05 -.137E-02
   0.172E+02 0.326E-06 -.279E+02   -.198E+02 0.154E-14 0.308E+02   0.259E+01 -.277E-06 -.298E+01   0.608E-05 0.214E-06 0.137E-02
   -.172E+02 0.962E-06 -.279E+02   0.198E+02 0.174E-14 0.308E+02   -.259E+01 -.208E-06 -.298E+01   -.375E-05 -.106E-05 0.137E-02
   -.172E+02 -.709E-06 0.279E+02   0.198E+02 -.118E-15 -.308E+02   -.259E+01 0.330E-06 0.298E+01   -.617E-05 0.125E-06 -.137E-02
   -.160E+02 0.328E-05 -.259E+02   0.177E+02 -.160E-14 0.275E+02   -.162E+01 -.685E-06 -.162E+01   0.216E-03 -.287E-05 0.276E-02
   -.160E+02 0.858E-05 0.259E+02   0.177E+02 -.156E-15 -.275E+02   -.162E+01 -.276E-05 0.162E+01   0.218E-03 -.584E-05 -.276E-02
   0.160E+02 -.170E-05 0.259E+02   -.177E+02 -.428E-15 -.275E+02   0.162E+01 0.294E-06 0.162E+01   -.215E-03 0.132E-05 -.276E-02
   0.160E+02 -.718E-05 -.259E+02   -.177E+02 -.165E-14 0.275E+02   0.162E+01 0.237E-05 -.162E+01   -.218E-03 0.493E-05 0.277E-02
 -----------------------------------------------------------------------------------------------
   0.455E-05 0.225E-05 -.275E-06   -.355E-14 -.235E-14 -.213E-13   -.659E-05 -.510E-06 0.498E-06   0.185E-05 -.199E-05 0.204E-07
 
 
 POSITION                                       TOTAL-FORCE (eV/Angst)
 -----------------------------------------------------------------------------------
      0.51490      0.95000      1.37889        -0.024548      0.000000      0.015300
      2.83990      2.85000      4.19222        -0.024548      0.000000     -0.015302
      4.13510      2.85000      9.76333         0.024548     -0.000000     -0.015300
      1.81010      0.95000      6.95000         0.024548     -0.000000      0.015302
      4.56652      0.95000      3.90927         0.055793     -0.000000     -0.005260
      2.24152      2.85000      1.66184         0.055793      0.000000      0.005260
      0.08348      2.85000      7.23295        -0.055794     -0.000000      0.005259
      2.40848      0.95000      9.48038        -0.055794      0.000000     -0.005259
 -----------------------------------------------------------------------------------
    total drift:                               -0.000000     -0.000000      0.000000


--------------------------------------------------------------------------------------------------------



  FREE ENERGIE OF THE ION-ELECTRON SYSTEM (eV)
  ---------------------------------------------------
  free  energy   TOTEN  =       -33.80432368 eV

  energy  without entropy=      -33.80432368  energy(sigma->0) =      -33.80432368
 


--------------------------------------------------------------------------------------------------------


    POTLOK:  cpu time      0.1128: real time      0.1134


--------------------------------------------------------------------------------------------------------


     LOOP+:  cpu time      4.8894: real time      4.9284
    4ORBIT:  cpu time      0.0000: real time      0.0000

 total amount of memory used by VASP MPI-rank0    38303. kBytes
=======================================================================

   base      :      30000. kBytes
   nonl-proj :       6488. kBytes
   fftplans  :        320. kBytes
   grid      :        455. kBytes
   one-center:         16. kBytes
   wavefun   :       1024. kBytes
 
  
  
 General timing and accounting informations for this job:
 ========================================================
  
                  Total CPU time used (sec):        5.731
                            User time (sec):        5.402
                          System time (sec):        0.330
                         Elapsed time (sec):        7.120
  
                   Maximum memory used (kb):      190104.
                   Average memory used (kb):          N/A
  
                          Minor page faults:        23452
                          Major page faults:           32
                 Voluntary context switches:         3951
