 vasp.6.4.2 20Jul23 (build Oct 12 2023 10:31:02) complex                         
 executed on              LinuxNV date 2024.11.01  22:26:51
 running  128 mpi-ranks, with    1 threads/rank, on    2 nodes
 distrk:  each k-point on   64 cores,    2 groups
 distr:  one band on NCORE=   8 cores,    8 groups


--------------------------------------------------------------------------------------------------------


 INCAR:
   ENCUT = 520.000000
   SIGMA = 0.050000
   EDIFF = 1.00e-06
   ALGO = N
   GGA = PE
   PREC = Accurate
   SYSTEM = 01_AOPT
   ICHARG = 0
   ISMEAR = 0
   ISPIN = 2
   ISTART = 1
   ISYM = -1
   KPAR = 2
   LORBIT = 11
   NBANDS = 220
   NELM = 100
   NELMIN = 5
   NPAR = 8
   LASPH = .TRUE.
   LCHARG = .FALSE.
   LWAVE = .FALSE.
   LREAL = .FALSE.

 POTCAR:    PAW_PBE Ge 05Jan2001                  
 POTCAR:    PAW_PBE Se 06Sep2000                  
 -----------------------------------------------------------------------------
|                                                                             |
|           W    W    AA    RRRRR   N    N  II  N    N   GGGG   !!!           |
|           W    W   A  A   R    R  NN   N  II  NN   N  G    G  !!!           |
|           W    W  A    A  R    R  N N  N  II  N N  N  G       !!!           |
|           W WW W  AAAAAA  RRRRR   N  N N  II  N  N N  G  GGG   !            |
|           WW  WW  A    A  R   R   N   NN  II  N   NN  G    G                |
|           W    W  A    A  R    R  N    N  II  N    N   GGGG   !!!           |
|                                                                             |
|     You use a magnetic or noncollinear calculation, but did not specify     |
|     the initial magnetic moment with the MAGMOM tag. Note that a            |
|     default of 1 will be used for all atoms. This ferromagnetic setup       |
|     may break the symmetry of the crystal, in particular it may rule        |
|     out finding an antiferromagnetic solution. Thence, we recommend         |
|     setting the initial magnetic moment manually or verifying carefully     |
|     that this magnetic setup is desired.                                    |
|                                                                             |
 -----------------------------------------------------------------------------

 POTCAR:    PAW_PBE Ge 05Jan2001                  
   VRHFIN =Ge: s2p2                                                                                 
   LEXCH  = PE                                                                                      
   EATOM  =   104.9960 eV,    7.7170 Ry                                                             
                                                                                                    
   TITEL  = PAW_PBE Ge 05Jan2001                                                                    
   LULTRA =        F    use ultrasoft PP ?                                                          
   IUNSCR =        1    unscreen: 0-lin 1-nonlin 2-no                                               
   RPACOR =    2.170    partial core radius                                                         
   POMASS =   72.610; ZVAL   =    4.000    mass and valenz                                          
   RCORE  =    2.300    outmost cutoff radius                                                       
   RWIGS  =    2.300; RWIGS  =    1.217    wigner-seitz radius (au A)                               
   ENMAX  =  173.807; ENMIN  =  130.355 eV                                                          
   ICORE  =        3    local potential                                                             
   LCOR   =        T    correct aug charges                                                         
   LPAW   =        T    paw PP                                                                      
   EAUG   =  385.843                                                                                
   DEXC   =    0.000                                                                                
   RMAX   =    2.342    core radius for proj-oper                                                   
   RAUG   =    1.300    factor for augmentation sphere                                              
   RDEP   =    2.318    radius for radial grids                                                     
   RDEPT  =    2.103    core radius for aug-charge                                                  
                                                                                                    
   Atomic configuration                                                                             
   10 entries                                                                                       
     n  l   j            E        occ.                                                              
     1  0  0.50    -10959.8463   2.0000                                                             
     2  0  0.50     -1371.6056   2.0000                                                             
     2  1  1.50     -1198.4791   6.0000                                                             
     3  0  0.50      -168.4733   2.0000                                                             
     3  1  1.50      -115.6019   6.0000                                                             
     3  2  2.50       -29.3106  10.0000                                                             
     4  0  0.50       -11.7309   2.0000                                                             
     4  1  0.50        -3.8952   2.0000                                                             
     4  2  1.50        -4.0817   0.0000                                                             
     4  3  2.50        -4.0817   0.0000                                                             
   Description                                                                                      
     l       E           TYP  RCUT    TYP  RCUT                                                     
     0    -11.7309493     23  2.300                                                                 
     0     -7.4578696     23  2.300                                                                 
     1     -3.8952261     23  2.300                                                                 
     1      6.1178114     23  2.300                                                                 
     2     -4.0817478     23  2.300                                                                 
     3     -1.3605826      7  2.300                                                                 
  local pseudopotential read in
  partial core-charges read in
  partial kinetic energy density read in
  atomic valenz-charges read in
  non local Contribution for L=            0  read in
    real space projection operators read in
  non local Contribution for L=            0  read in
    real space projection operators read in
  non local Contribution for L=            1  read in
    real space projection operators read in
  non local Contribution for L=            1  read in
    real space projection operators read in
  non local Contribution for L=            2  read in
    real space projection operators read in
    PAW grid and wavefunctions read in
 
   number of l-projection  operators is LMAX  =            5
   number of lm-projection operators is LMMAX =           13
 
 POTCAR:    PAW_PBE Se 06Sep2000                  
   VRHFIN =Se: s2p4                                                                                 
   LEXCH  = PE                                                                                      
   EATOM  =   257.1286 eV,   18.8984 Ry                                                             
                                                                                                    
   TITEL  = PAW_PBE Se 06Sep2000                                                                    
   LULTRA =        F    use ultrasoft PP ?                                                          
   IUNSCR =        1    unscreen: 0-lin 1-nonlin 2-no                                               
   RPACOR =    1.900    partial core radius                                                         
   POMASS =   78.960; ZVAL   =    6.000    mass and valenz                                          
   RCORE  =    2.100    outmost cutoff radius                                                       
   RWIGS  =    2.200; RWIGS  =    1.164    wigner-seitz radius (au A)                               
   ENMAX  =  211.555; ENMIN  =  158.666 eV                                                          
   ICORE  =        3    local potential                                                             
   LCOR   =        T    correct aug charges                                                         
   LPAW   =        T    paw PP                                                                      
   EAUG   =  446.842                                                                                
   DEXC   =    0.000                                                                                
   RMAX   =    2.147    core radius for proj-oper                                                   
   RAUG   =    1.300    factor for augmentation sphere                                              
   RDEP   =    2.177    radius for radial grids                                                     
   RDEPT  =    1.928    core radius for aug-charge                                                  
                                                                                                    
   Atomic configuration                                                                             
   10 entries                                                                                       
     n  l   j            E        occ.                                                              
     1  0  0.50    -12503.4787   2.0000                                                             
     2  0  0.50     -1606.9547   2.0000                                                             
     2  1  1.50     -1413.3140   6.0000                                                             
     3  0  0.50      -213.4885   2.0000                                                             
     3  1  1.50      -152.9538   6.0000                                                             
     3  2  2.50       -53.1221  10.0000                                                             
     4  0  0.50       -17.2865   2.0000                                                             
     4  1  0.50        -6.5110   4.0000                                                             
     4  2  2.50        -6.8029   0.0000                                                             
     4  3  2.50        -6.8029   0.0000                                                             
   Description                                                                                      
     l       E           TYP  RCUT    TYP  RCUT                                                     
     0    -17.2865377     23  2.100                                                                 
     0    -15.3094411     23  2.100                                                                 
     1     -6.5110275     23  2.100                                                                 
     1     -0.0695192     23  2.100                                                                 
     2     -6.8029130     23  2.100                                                                 
     3     -1.3605826      7  2.100                                                                 
  local pseudopotential read in
  partial core-charges read in
  partial kinetic energy density read in
  atomic valenz-charges read in
  non local Contribution for L=            0  read in
    real space projection operators read in
  non local Contribution for L=            0  read in
    real space projection operators read in
  non local Contribution for L=            1  read in
    real space projection operators read in
  non local Contribution for L=            1  read in
    real space projection operators read in
  non local Contribution for L=            2  read in
    real space projection operators read in
    PAW grid and wavefunctions read in
 
   number of l-projection  operators is LMAX  =            5
   number of lm-projection operators is LMMAX =           13
 
 -----------------------------------------------------------------------------
|                                                                             |
|               ----> ADVICE to this user running VASP <----                  |
|                                                                             |
|     You have a (more or less) 'large supercell' and for larger cells it     |
|     might be more efficient to use real-space projection operators.         |
|     Therefore, try LREAL= Auto in the INCAR file.                           |
|     Mind: For very accurate calculation, you might also keep the            |
|     reciprocal projection scheme (i.e. LREAL=.FALSE.).                      |
|                                                                             |
 -----------------------------------------------------------------------------

  PAW_PBE Ge 05Jan2001                  :
 energy of atom  1       EATOM= -104.9960
 kinetic energy error for atom=    0.0002 (will be added to EATOM!!)
  PAW_PBE Se 06Sep2000                  :
 energy of atom  2       EATOM= -257.1286
 kinetic energy error for atom=    0.0007 (will be added to EATOM!!)
 
 
 POSCAR: Ge Se
  positions in cartesian coordinates
  No initial velocities read in
 exchange correlation table for  LEXCH =        8
   RHO(1)=    0.500       N(1)  =     2000
   RHO(2)=  100.500       N(2)  =     4000
 


--------------------------------------------------------------------------------------------------------


 ion  position               nearest neighbor table
   1  0.091  0.027  0.137-  45 2.51  54 2.60  67 2.71
   2  0.236  0.885  0.374-  45 2.50  67 2.63  48 2.67
   3  0.569  0.224  0.391-  49 2.59  56 2.67  68 2.74
   4  0.565  0.550  0.374-  69 2.58  50 2.71
   5  0.587  0.873  0.372-  44 2.44  70 2.64
   6  0.889  0.198  0.369-  55 2.51  56 2.58  46 2.71
   7  0.909  0.528  0.354-  71 2.42  72 2.68  47 2.72
   8  0.906  0.859  0.357-  53 2.59  45 2.74  44 2.79
   9  0.057  0.152  0.639-  57 2.48  37 2.73  51 2.76
  10  0.076  0.478  0.640-  58 2.52  38 2.53  43 2.61
  11  0.072  0.814  0.642-  59 2.49  39 2.67  52 2.82
  12  0.401  0.152  0.636-  60 2.53  40 2.62
  13  0.383  0.475  0.628-  38 2.70  41 2.71  61 2.71
  14  0.393  0.822  0.621-  39 2.64  42 2.68  62 2.69
  15  0.737  0.141  0.639-  37 2.54  63 2.57  40 2.59
  16  0.739  0.470  0.612-  41 2.71  43 2.72  64 2.79
  17  0.260  0.558  0.382-  50 2.48  66 2.64  47 2.74
  18  0.236  0.211  0.369-  54 2.64  46 2.65  49 2.72
  19  0.735  0.809  0.647-  65 2.53  52 2.73  42 2.83
  20  0.899  0.654  0.866-  52 2.52  58 2.79  64 2.80
  21  0.891  0.968  0.876-  65 2.56  59 2.60  37 2.70
  22  0.084  0.388  0.126-  71 2.55  66 2.59  46 2.74
  23  0.074  0.696  0.121-  47 2.59  53 2.67  67 2.72
  24  0.418  0.040  0.137-  48 2.60  68 2.63  54 2.68
  25  0.409  0.398  0.112-  66 2.63  69 2.68  49 2.76
  26  0.733  0.050  0.121-  55 2.46  44 2.57  68 2.65
  27  0.738  0.374  0.151-  56 2.45  71 2.80  69 2.85
  28  0.410  0.711  0.135-  50 2.55  70 2.55
  29  0.228  0.309  0.867-  38 2.45  60 2.58
  30  0.237  0.651  0.859-  39 2.49  58 2.65  61 2.69
  31  0.249  0.967  0.877-  62 2.59  51 2.68  59 2.85
  32  0.573  0.327  0.857-  41 2.47  63 2.58
  33  0.578  0.641  0.839-  42 2.48  64 2.69  61 2.74
  34  0.565  0.977  0.867-  62 2.56  65 2.63  40 2.65
  35  0.912  0.320  0.886-  43 2.56  57 2.66  63 2.78
  36  0.747  0.724  0.140-  72 2.53  53 2.61  70 2.75
  37  0.891  0.007  0.636-  15 2.54  21 2.70   9 2.73
  38  0.219  0.334  0.647-  29 2.45  10 2.53  13 2.70
  39  0.238  0.678  0.636-  30 2.49  14 2.64  11 2.67
  40  0.566  0.022  0.633-  15 2.59  12 2.62  34 2.65
  41  0.559  0.348  0.636-  32 2.47  13 2.71  16 2.71
  42  0.551  0.676  0.620-  33 2.48  14 2.68  19 2.83
  43  0.914  0.345  0.656-  35 2.56  10 2.61  16 2.72
  44  0.733  0.002  0.347-   5 2.44  26 2.57   8 2.79
  45  0.074  0.003  0.361-   2 2.50   1 2.51   8 2.74
  46  0.061  0.332  0.364-  18 2.65   6 2.71  22 2.74
  47  0.073  0.673  0.354-  23 2.59   7 2.72  17 2.74
  48  0.403  0.020  0.371-  24 2.60   2 2.67
  49  0.405  0.349  0.355-   3 2.59  18 2.72  25 2.76
  50  0.403  0.696  0.364-  17 2.48  28 2.55   4 2.71
  51  0.223  0.005  0.641-  31 2.68   9 2.76
  52  0.901  0.665  0.639-  20 2.52  19 2.73  11 2.82
  53  0.918  0.844  0.124-   8 2.59  36 2.61  23 2.67
  54  0.244  0.168  0.136-   1 2.60  18 2.64  24 2.68
  55  0.883  0.177  0.143-  26 2.46   6 2.51
  56  0.745  0.346  0.369-  27 2.45   6 2.58   3 2.67
  57  0.052  0.160  0.862-   9 2.48  35 2.66
  58  0.074  0.514  0.863-  10 2.52  30 2.65  20 2.79
  59  0.058  0.842  0.864-  11 2.49  21 2.60  31 2.85
  60  0.383  0.171  0.862-  12 2.53  29 2.58
  61  0.402  0.512  0.868-  30 2.69  13 2.71  33 2.74
  62  0.412  0.839  0.862-  34 2.56  31 2.59  14 2.69
  63  0.730  0.192  0.864-  15 2.57  32 2.58  35 2.78
  64  0.738  0.497  0.862-  33 2.69  16 2.79  20 2.80
  65  0.728  0.843  0.872-  19 2.53  21 2.56  34 2.63
  66  0.242  0.523  0.147-  22 2.59  25 2.63  17 2.64
  67  0.223  0.854  0.139-   2 2.63   1 2.71  23 2.72
  68  0.571  0.186  0.147-  24 2.63  26 2.65   3 2.74
  69  0.575  0.533  0.142-   4 2.58  25 2.68  27 2.85
  70  0.564  0.847  0.137-  28 2.55   5 2.64  36 2.75
  71  0.918  0.508  0.137-   7 2.42  22 2.55  27 2.80
  72  0.758  0.680  0.363-  36 2.53   7 2.68
 

IMPORTANT INFORMATION: All symmetrisations will be switched off!
NOSYMM: (Re-)initialisation of all symmetry stuff for point group C_1.


----------------------------------------------------------------------------------------

                                     Primitive cell                                     

  volume of cell :    1717.9129

  direct lattice vectors                    reciprocal lattice vectors
    12.396684160  0.000000247  0.000001206     0.080666732 -0.000000002 -0.000000010
     0.000000249 12.514490832  0.000005770    -0.000000002  0.079907366 -0.000000047
     0.000001387  0.000006572 11.073436802    -0.000000009 -0.000000042  0.090306200

  length of vectors
    12.396684160 12.514490832 11.073436802     0.080666732  0.079907366  0.090306200

  position of ions in fractional coordinates (direct lattice)
     0.091094736  0.026646839  0.136596157
     0.236137467  0.885162438  0.374010944
     0.568708069  0.224238433  0.390647567
     0.564982087  0.550160338  0.373891189
     0.587002387  0.873300293  0.372020778
     0.889490001  0.197629323  0.368502979
     0.909415067  0.527647850  0.354493590
     0.906343708  0.859442752  0.356899699
     0.056891761  0.151816880  0.638947184
     0.075539061  0.477967070  0.639554946
     0.072186126  0.813754313  0.642164250
     0.401318431  0.151991472  0.636103895
     0.382694442  0.474656890  0.628040679
     0.392570648  0.822058854  0.620568069
     0.737194451  0.140820504  0.639352112
     0.738920431  0.469951142  0.611859244
     0.259626878  0.558158229  0.381586984
     0.236023369  0.210736765  0.369374380
     0.734612165  0.808619994  0.646907916
     0.898938260  0.653990242  0.866385319
     0.891498759  0.967687064  0.876406163
     0.083560026  0.388464722  0.126155871
     0.073768088  0.696317184  0.121404725
     0.417932921  0.040434807  0.137438627
     0.409253621  0.397582958  0.112053490
     0.732981196  0.050054914  0.121160105
     0.737749218  0.373592271  0.150629421
     0.410018710  0.711128179  0.134750081
     0.228252128  0.308877450  0.866793565
     0.237281875  0.651449445  0.859328018
     0.248575490  0.967434185  0.877314554
     0.572993776  0.327221708  0.856970493
     0.578421157  0.641476853  0.838520741
     0.564710150  0.976896222  0.867465487
     0.912181887  0.320012877  0.885945701
     0.747195842  0.723943520  0.140248343
     0.891476451  0.007382998  0.636356816
     0.218593377  0.334214626  0.647283111
     0.238368807  0.677782209  0.635991756
     0.566400964  0.021800924  0.633484143
     0.559239813  0.347807594  0.635770427
     0.550960126  0.676248874  0.620445447
     0.914077507  0.345372233  0.656454337
     0.733355369  0.001778626  0.347073344
     0.073755341  0.002881783  0.361189361
     0.060768049  0.332476061  0.364189127
     0.072827636  0.672912003  0.353756164
     0.403375976  0.019673173  0.370638064
     0.405251670  0.348783046  0.354747690
     0.403044065  0.695856736  0.363826600
     0.223007459  0.004775205  0.640853503
     0.900935127  0.665372033  0.638839820
     0.918419779  0.843905299  0.123856552
     0.244386082  0.168213732  0.136186240
     0.883214996  0.176645697  0.143019952
     0.745088801  0.345756391  0.369461833
     0.052010890  0.159918133  0.862460257
     0.074071740  0.514313361  0.863432684
     0.057526714  0.841794591  0.864417816
     0.382759703  0.170750329  0.862243566
     0.402145910  0.511741316  0.868424557
     0.411869092  0.838912213  0.862202735
     0.730000997  0.191778111  0.864272412
     0.737549457  0.497182625  0.861804748
     0.727795848  0.842506649  0.871607836
     0.241760651  0.522553204  0.147046125
     0.223059919  0.854298588  0.139220182
     0.570750736  0.186251355  0.146841680
     0.574571547  0.533485316  0.141573683
     0.563639604  0.846661978  0.136802097
     0.917637053  0.508417727  0.136880376
     0.757625254  0.679789791  0.363243173

  ion indices of the primitive-cell ions
   primitive index   ion index
                 1           1
                 2           2
                 3           3
                 4           4
                 5           5
                 6           6
                 7           7
                 8           8
                 9           9
                10          10
                11          11
                12          12
                13          13
                14          14
                15          15
                16          16
                17          17
                18          18
                19          19
                20          20
                21          21
                22          22
                23          23
                24          24
                25          25
                26          26
                27          27
                28          28
                29          29
                30          30
                31          31
                32          32
                33          33
                34          34
                35          35
                36          36
                37          37
                38          38
                39          39
                40          40
                41          41
                42          42
                43          43
                44          44
                45          45
                46          46
                47          47
                48          48
                49          49
                50          50
                51          51
                52          52
                53          53
                54          54
                55          55
                56          56
                57          57
                58          58
                59          59
                60          60
                61          61
                62          62
                63          63
                64          64
                65          65
                66          66
                67          67
                68          68
                69          69
                70          70
                71          71
                72          72

----------------------------------------------------------------------------------------

 
 
 KPOINTS: KPOINTS created by Atomic Simulation Env

Automatic generation of k-mesh.
 Grid dimensions read from file:
 generate k-points for:    2    2    2

 Generating k-lattice:

  Cartesian coordinates                     Fractional coordinates (reciprocal lattice)
     0.040333366 -0.000000001 -0.000000005     0.500000000  0.000000000  0.000000000
    -0.000000001  0.039953683 -0.000000024     0.000000000  0.500000000 -0.000000000
    -0.000000004 -0.000000021  0.045153100    -0.000000000  0.000000000  0.500000000

  Length of vectors
     0.040333366  0.039953683  0.045153100

  Shift w.r.t. Gamma in fractional coordinates (k-lattice)
     0.000000000  0.000000000  0.000000000

 
 Subroutine IBZKPT returns following result:
 ===========================================
 
 Found      8 irreducible k-points:
 
 Following reciprocal coordinates:
            Coordinates               Weight
  0.000000  0.000000  0.000000      1.000000
  0.500000  0.000000  0.000000      1.000000
  0.000000  0.500000  0.000000      1.000000
  0.500000  0.500000  0.000000      1.000000
  0.000000  0.000000  0.500000      1.000000
  0.500000  0.000000  0.500000      1.000000
  0.000000  0.500000  0.500000      1.000000
  0.500000  0.500000  0.500000      1.000000
 
 Following cartesian coordinates:
            Coordinates               Weight
  0.000000  0.000000  0.000000      1.000000
  0.040333 -0.000000 -0.000000      1.000000
 -0.000000  0.039954 -0.000000      1.000000
  0.040333  0.039954 -0.000000      1.000000
 -0.000000 -0.000000  0.045153      1.000000
  0.040333 -0.000000  0.045153      1.000000
 -0.000000  0.039954  0.045153      1.000000
  0.040333  0.039954  0.045153      1.000000
 
 -----------------------------------------------------------------------------
|                                                                             |
|           W    W    AA    RRRRR   N    N  II  N    N   GGGG   !!!           |
|           W    W   A  A   R    R  NN   N  II  NN   N  G    G  !!!           |
|           W    W  A    A  R    R  N N  N  II  N N  N  G       !!!           |
|           W WW W  AAAAAA  RRRRR   N  N N  II  N  N N  G  GGG   !            |
|           WW  WW  A    A  R   R   N   NN  II  N   NN  G    G                |
|           W    W  A    A  R    R  N    N  II  N    N   GGGG   !!!           |
|                                                                             |
|     The number of bands has been changed from the values supplied in        |
|     the INCAR file. This is a result of running the parallel version.       |
|     The orbitals not found in the WAVECAR file will be initialized with     |
|     random numbers, which is usually adequate. For correlated               |
|     calculations, however, you should redo the groundstate calculation.     |
|     I found NBANDS = 220. Now, NBANDS = 224.                                |
|                                                                             |
 -----------------------------------------------------------------------------



--------------------------------------------------------------------------------------------------------




 Dimension of arrays:
   k-points           NKPTS =      8   k-points in BZ     NKDIM =      8   number of bands    NBANDS=    224
   number of dos      NEDOS =    301   number of ions     NIONS =     72
   non local maximal  LDIM  =      5   non local SUM 2l+1 LMDIM =     13
   total plane-waves  NPLWV = 774144
   max r-space proj   IRMAX =      1   max aug-charges    IRDMAX=  24689
   dimension x,y,z NGX =    96 NGY =   96 NGZ =   84
   dimension x,y,z NGXF=   192 NGYF=  192 NGZF=  168
   support grid    NGXF=   192 NGYF=  192 NGZF=  168
   ions per type =              36  36
   NGX,Y,Z   is equivalent  to a cutoff of  12.87, 12.75, 12.61 a.u.
   NGXF,Y,Z  is equivalent  to a cutoff of  25.75, 25.51, 25.22 a.u.

 SYSTEM =  01_AOPT                                 
 POSCAR =  Ge Se                                   

 Startparameter for this run:
   NWRITE =      2    write-flag & timer
   PREC   = accura    normal or accurate (medium, high low for compatibility)
   ISTART =      0    job   : 0-new  1-cont  2-samecut
   ICHARG =      2    charge: 1-file 2-atom 10-const
   ISPIN  =      2    spin polarized calculation?
   LNONCOLLINEAR =      F non collinear calculations
   LSORBIT =      F    spin-orbit coupling
   INIWAV =      1    electr: 0-lowe 1-rand  2-diag
   LASPH  =      T    aspherical Exc in radial PAW
 Electronic Relaxation 1
   ENCUT  =  520.0 eV  38.22 Ry    6.18 a.u.  23.05 23.27 20.59*2*pi/ulx,y,z
   ENINI  =  520.0     initial cutoff
   ENAUG  =  446.8 eV  augmentation charge cutoff
   NELM   =    100;   NELMIN=  5; NELMDL=  0     # of ELM steps 
   EDIFF  = 0.1E-05   stopping-criterion for ELM
   LREAL  =      F    real-space projection
   NLSPLINE    = F    spline interpolate recip. space projectors
   LCOMPAT=      F    compatible to vasp.4.4
   GGA_COMPAT  = T    GGA compatible to vasp.4.4-vasp.4.6
   LMAXPAW     = -100 max onsite density
   LMAXMIX     =    2 max onsite mixed and CHGCAR
   VOSKOWN=      0    Vosko Wilk Nusair interpolation
   ROPT   =    0.00000   0.00000
 Ionic relaxation
   EDIFFG = 0.1E-04   stopping-criterion for IOM
   NSW    =      0    number of steps for IOM
   NBLOCK =      1;   KBLOCK =      1    inner block; outer block 
   IBRION =     -1    ionic relax: 0-MD 1-quasi-New 2-CG
   NFREE  =      0    steps in history (QN), initial steepest desc. (CG)
   ISIF   =      2    stress and relaxation
   IWAVPR =     10    prediction:  0-non 1-charg 2-wave 3-comb
   ISYM   =     -1    0-nonsym 1-usesym 2-fastsym
   LCORR  =      T    Harris-Foulkes like correction to forces

   POTIM  = 0.5000    time-step for ionic-motion
   TEIN   =    0.0    initial temperature
   TEBEG  =    0.0;   TEEND  =   0.0 temperature during run
   SMASS  =  -3.00    Nose mass-parameter (am)
   estimated Nose-frequenzy (Omega)   =  0.10E-29 period in steps = 0.13E+47 mass=  -0.351E-26a.u.
   SCALEE = 1.0000    scale energy and forces
   NPACO  =    256;   APACO  = 10.0  distance and # of slots for P.C.
   PSTRESS=    0.0 pullay stress

  Mass of Ions in am
   POMASS =  72.61 78.96
  Ionic Valenz
   ZVAL   =   4.00  6.00
  Atomic Wigner-Seitz radii
   RWIGS  =  -1.00 -1.00
  virtual crystal weights 
   VCA    =   1.00  1.00
   NELECT =     360.0000    total number of electrons
   NUPDOWN=      -1.0000    fix difference up-down

 DOS related values:
   EMIN   =  10.00;   EMAX   =-10.00  energy-range for DOS
   EFERMI =   0.00;   METHOD = LEGACY      
   ISMEAR =     0;   SIGMA  =   0.05  broadening in eV -4-tet -1-fermi 0-gaus

 Electronic relaxation 2 (details)
   IALGO  =     38    algorithm
   LDIAG  =      T    sub-space diagonalisation (order eigenvalues)
   LSUBROT=      F    optimize rotation matrix (better conditioning)
   TURBO    =      0    0=normal 1=particle mesh
   IRESTART =      0    0=no restart 2=restart with 2 vectors
   NREBOOT  =      0    no. of reboots
   NMIN     =      0    reboot dimension
   EREF     =   0.00    reference energy to select bands
   IMIX   =      4    mixing-type and parameters
     AMIX     =   0.40;   BMIX     =  1.00
     AMIX_MAG =   1.60;   BMIX_MAG =  1.00
     AMIN     =   0.10
     WC   =   100.;   INIMIX=   1;  MIXPRE=   1;  MAXMIX= -45

 Intra band minimization:
   WEIMIN = 0.0000     energy-eigenvalue tresh-hold
   EBREAK =  0.11E-08  absolut break condition
   DEPER  =   0.30     relativ break condition  

   TIME   =   0.40     timestep for ELM

  volume/ion in A,a.u.               =      23.86       161.01
  Fermi-wavevector in a.u.,A,eV,Ry     =   0.972393  1.837557 12.864971  0.945549
  Thomas-Fermi vector in A             =   2.102688
 
 Write flags
   LWAVE        =      F    write WAVECAR
   LDOWNSAMPLE  =      F    k-point downsampling of WAVECAR
   LCHARG       =      F    write CHGCAR
   LVTOT        =      F    write LOCPOT, total local potential
   LVHAR        =      F    write LOCPOT, Hartree potential only
   LELF         =      F    write electronic localiz. function (ELF)
   LORBIT       =     11    0 simple, 1 ext, 2 COOP (PROOUT), +10 PAW based schemes


 Dipole corrections
   LMONO  =      F    monopole corrections only (constant potential shift)
   LDIPOL =      F    correct potential (dipole corrections)
   IDIPOL =      0    1-x, 2-y, 3-z, 4-all directions 
   EPSILON=  1.0000000 bulk dielectric constant

 Exchange correlation treatment:
   GGA     =    PE    GGA type
   LEXCH   =     8    internal setting for exchange type
   LIBXC   =     F    Libxc                    
   VOSKOWN =     0    Vosko Wilk Nusair interpolation
   LHFCALC =     F    Hartree Fock is set to
   LHFONE  =     F    Hartree Fock one center treatment
   AEXX    =    0.0000 exact exchange contribution

 Linear response parameters
   LEPSILON=     F    determine dielectric tensor
   LRPA    =     F    only Hartree local field effects (RPA)
   LNABLA  =     F    use nabla operator in PAW spheres
   LVEL    =     F    velocity operator in full k-point grid
   CSHIFT  =0.1000    complex shift for real part using Kramers Kronig
   OMEGAMAX=  -1.0    maximum frequency
   DEG_THRESHOLD= 0.2000000E-02 threshold for treating states as degnerate
   RTIME   =   -0.100 relaxation time in fs
  (WPLASMAI=    0.000 imaginary part of plasma frequency in eV, 0.658/RTIME)
   DFIELD  = 0.0000000 0.0000000 0.0000000 field for delta impulse in time
 
  Optional k-point grid parameters
   LKPOINTS_OPT  =     F    use optional k-point grid
   KPOINTS_OPT_MODE=     1    mode for optional k-point grid
 
 Orbital magnetization related:
   ORBITALMAG=     F  switch on orbital magnetization
   LCHIMAG   =     F  perturbation theory with respect to B field
   DQ        =  0.001000  dq finite difference perturbation B field
   LLRAUG    =     F  two centre corrections for induced B field
   LBONE     =     F  B-component reconstruction in AE one-centre
   LVGVCALC  =     T  calculate vGv susceptibility
   LVGVAPPL  =     F  apply vGv susceptibility instead of pGv for G=0

 Random number generation:
   RANDOM_GENERATOR = DEFAULT
   PCG_SEED         = not used


--------------------------------------------------------------------------------------------------------


 Static calculation
 charge density and potential will be updated during run
 spin polarized calculation
 Variant of blocked Davidson
 Davidson routine will perform the subspace rotation
 perform sub-space diagonalisation
    after iterative eigenvector-optimisation
 modified Broyden-mixing scheme, WC =      100.0
 initial mixing is a Kerker type mixing with AMIX =  0.4000 and BMIX =      1.0000
 Hartree-type preconditioning will be used
 using additional bands            44
 reciprocal scheme for non local part
 use partial core corrections
 calculate Harris-corrections to forces 
   (improved forces if not selfconsistent)
 use gradient corrections 
 use of overlap-Matrix (Vanderbilt PP)
 Gauss-broadening in eV      SIGMA  =   0.05


--------------------------------------------------------------------------------------------------------


  energy-cutoff  :      520.00
  volume of cell :     1717.91
      direct lattice vectors                 reciprocal lattice vectors
    12.396684160  0.000000247  0.000001206     0.080666732 -0.000000002 -0.000000010
     0.000000249 12.514490832  0.000005770    -0.000000002  0.079907366 -0.000000047
     0.000001387  0.000006572 11.073436802    -0.000000009 -0.000000042  0.090306200

  length of vectors
    12.396684160 12.514490832 11.073436802     0.080666732  0.079907366  0.090306200


 
 k-points in units of 2pi/SCALE and weight: KPOINTS created by Atomic Simulation Env
   0.00000000  0.00000000  0.00000000       0.125
   0.04033337 -0.00000000 -0.00000001       0.125
  -0.00000000  0.03995368 -0.00000002       0.125
   0.04033337  0.03995368 -0.00000003       0.125
  -0.00000000 -0.00000002  0.04515310       0.125
   0.04033336 -0.00000002  0.04515310       0.125
  -0.00000001  0.03995366  0.04515308       0.125
   0.04033336  0.03995366  0.04515307       0.125
 
 k-points in reciprocal lattice and weights: KPOINTS created by Atomic Simulation Env
   0.00000000  0.00000000  0.00000000       0.125
   0.50000000  0.00000000  0.00000000       0.125
   0.00000000  0.50000000  0.00000000       0.125
   0.50000000  0.50000000  0.00000000       0.125
   0.00000000  0.00000000  0.50000000       0.125
   0.50000000  0.00000000  0.50000000       0.125
   0.00000000  0.50000000  0.50000000       0.125
   0.50000000  0.50000000  0.50000000       0.125
 
 position of ions in fractional coordinates (direct lattice) 
   0.09109474  0.02664684  0.13659616
   0.23613747  0.88516244  0.37401094
   0.56870807  0.22423843  0.39064757
   0.56498209  0.55016034  0.37389119
   0.58700239  0.87330029  0.37202078
   0.88949000  0.19762932  0.36850298
   0.90941507  0.52764785  0.35449359
   0.90634371  0.85944275  0.35689970
   0.05689176  0.15181688  0.63894718
   0.07553906  0.47796707  0.63955495
   0.07218613  0.81375431  0.64216425
   0.40131843  0.15199147  0.63610389
   0.38269444  0.47465689  0.62804068
   0.39257065  0.82205885  0.62056807
   0.73719445  0.14082050  0.63935211
   0.73892043  0.46995114  0.61185924
   0.25962688  0.55815823  0.38158698
   0.23602337  0.21073676  0.36937438
   0.73461217  0.80861999  0.64690792
   0.89893826  0.65399024  0.86638532
   0.89149876  0.96768706  0.87640616
   0.08356003  0.38846472  0.12615587
   0.07376809  0.69631718  0.12140472
   0.41793292  0.04043481  0.13743863
   0.40925362  0.39758296  0.11205349
   0.73298120  0.05005491  0.12116011
   0.73774922  0.37359227  0.15062942
   0.41001871  0.71112818  0.13475008
   0.22825213  0.30887745  0.86679357
   0.23728187  0.65144944  0.85932802
   0.24857549  0.96743419  0.87731455
   0.57299378  0.32722171  0.85697049
   0.57842116  0.64147685  0.83852074
   0.56471015  0.97689622  0.86746549
   0.91218189  0.32001288  0.88594570
   0.74719584  0.72394352  0.14024834
   0.89147645  0.00738300  0.63635682
   0.21859338  0.33421463  0.64728311
   0.23836881  0.67778221  0.63599176
   0.56640096  0.02180092  0.63348414
   0.55923981  0.34780759  0.63577043
   0.55096013  0.67624887  0.62044545
   0.91407751  0.34537223  0.65645434
   0.73335537  0.00177863  0.34707334
   0.07375534  0.00288178  0.36118936
   0.06076805  0.33247606  0.36418913
   0.07282764  0.67291200  0.35375616
   0.40337598  0.01967317  0.37063806
   0.40525167  0.34878305  0.35474769
   0.40304406  0.69585674  0.36382660
   0.22300746  0.00477521  0.64085350
   0.90093513  0.66537203  0.63883982
   0.91841978  0.84390530  0.12385655
   0.24438608  0.16821373  0.13618624
   0.88321500  0.17664570  0.14301995
   0.74508880  0.34575639  0.36946183
   0.05201089  0.15991813  0.86246026
   0.07407174  0.51431336  0.86343268
   0.05752671  0.84179459  0.86441782
   0.38275970  0.17075033  0.86224357
   0.40214591  0.51174132  0.86842456
   0.41186909  0.83891221  0.86220273
   0.73000100  0.19177811  0.86427241
   0.73754946  0.49718262  0.86180475
   0.72779585  0.84250665  0.87160784
   0.24176065  0.52255320  0.14704613
   0.22305992  0.85429859  0.13922018
   0.57075074  0.18625135  0.14684168
   0.57457155  0.53348532  0.14157368
   0.56363960  0.84666198  0.13680210
   0.91763705  0.50841773  0.13688038
   0.75762525  0.67978979  0.36324317
 
 position of ions in cartesian coordinates  (Angst):
   1.12927287  0.33347255  1.51258917
   2.92732234 11.07735974  4.14159195
   7.05009490  2.80623252  4.32581312
   7.00390515  6.88497910  4.14026431
   7.27688393 10.92891110  4.11955432
  11.02672717  2.47323299  4.08059666
  11.27373198  6.60324674  3.92546650
  11.23565739 10.75549100  3.95211231
   0.70527012  1.89991516  7.07534220
   0.93643488  5.98151873  7.08207412
   0.89486969 10.18372513  7.11097002
   4.97501876  1.90210017  7.04385764
   4.74414312  5.94009352  6.95457197
   4.86657540 10.28765216  6.87182651
   9.13876770  1.76230129  7.07982690
   9.16016417  5.88120346  6.77538827
   3.21851307  6.98506862  4.22548289
   2.92590773  2.63726580  4.09024536
   9.10675609 10.11947193  7.16349948
  11.14385506  8.18436080  9.59386793
  11.05163000 12.11011687  9.70483492
   1.03586753  4.86143905  1.39698141
   0.91448003  8.71405583  1.34437165
   5.18098262  0.50602203  1.52191869
   5.07338813  4.97554912  1.24082002
   9.08653656  0.62641274  1.34165994
   9.14564435  4.67531822  1.66798842
   5.08287281  8.89940806  1.49215111
   2.82957082  3.86544977  9.59838582
   2.94150981  8.15256381  9.51571855
   3.08151330 12.10695207  9.71489315
   7.10322414  4.09501883  9.48961118
   7.17050572  8.02776185  9.28531083
   7.00053482 12.22536466  9.60583057
  11.30803206  4.00480426  9.81046668
   9.26275123  9.05978565  1.55303624
  11.05135288  0.09239887  7.04665810
   2.70983403  4.18253018  7.16765081
   2.95498386  8.48210348  7.04261871
   7.02149474  0.27283177  7.01484743
   6.93272030  4.35263926  7.04016632
   6.83007969  8.46291455  6.87046801
  11.33153115  4.32216219  7.26920871
   9.09117536  0.02226106  3.84329563
   0.91432217  0.03606644  3.99960767
   0.75332290  4.16077102  4.03282728
   0.90282186  8.42115344  3.91730050
   5.00052509  0.24620228  4.10423778
   5.02377754  4.36484466  3.92827863
   4.99641065  8.70829524  4.02881536
   2.76455392  0.05976353  7.09645106
  11.16860927  8.32679663  7.07415730
  11.38536031 10.56104617  1.37152368
   3.02957731  2.10511016  1.50805099
  10.94893760  2.21063212  1.58372449
   9.23663114  4.32696779  4.09121515
   0.64476381  2.00129969  9.55040013
   0.91824529  6.43637554  9.56117032
   0.71314191 10.53463639  9.57208099
   4.74495239  2.13685919  9.54800108
   4.98527716  6.40418781  9.61644788
   5.10581245 10.49856496  9.54755283
   9.04959304  2.40001128  9.57046792
   9.14316899  6.22199325  9.54314417
   9.02225668 10.54354764  9.65170003
   2.99703077  6.53948830  1.62830928
   2.76520377 10.69111282  1.54165108
   7.07541686  2.33084198  1.62604382
   7.12278233  6.67629817  1.56771100
   6.98726255 10.59554460  1.51487494
  11.37565704  6.36259011  1.51574024
   9.39204165  8.50722569  4.02235516
 


--------------------------------------------------------------------------------------------------------


 k-point   1 :   0.0000 0.0000 0.0000  plane waves:   46265
 k-point   2 :   0.5000 0.0000 0.0000  plane waves:   46270
 k-point   3 :   0.0000 0.5000 0.0000  plane waves:   46226
 k-point   4 :   0.5000 0.5000 0.0000  plane waves:   46364
 k-point   5 :   0.0000 0.0000 0.5000  plane waves:   46270
 k-point   6 :   0.5000 0.0000 0.5000  plane waves:   46208
 k-point   7 :   0.0000 0.5000 0.5000  plane waves:   46212
 k-point   8 :   0.5000 0.5000 0.5000  plane waves:   46256

 maximum and minimum number of plane-waves per node :      5830     5739

 maximum number of plane-waves:     46364
 maximum index in each direction: 
   IXMAX=   23   IYMAX=   23   IZMAX=   20
   IXMIN=  -23   IYMIN=  -23   IZMIN=  -21


 parallel 3D FFT for wavefunctions:
    minimum data exchange during FFTs selected (reduces bandwidth)
 parallel 3D FFT for charge:
    minimum data exchange during FFTs selected (reduces bandwidth)


 total amount of memory used by VASP MPI-rank0   110605. kBytes
=======================================================================

   base      :      30000. kBytes
   nonl-proj :      16310. kBytes
   fftplans  :       6179. kBytes
   grid      :      15593. kBytes
   one-center:        146. kBytes
   wavefun   :      42377. kBytes
 
     INWAV:  cpu time      0.0000: real time      0.0001
 Broyden mixing: mesh for mixing (old mesh)
   NGX = 47   NGY = 47   NGZ = 41
  (NGX  =192   NGY  =192   NGZ  =168)
  gives a total of  90569 points

 initial charge density was supplied:
 charge density of overlapping atoms calculated
 number of electron     360.0000000 magnetization      72.0000000
 keeping initial charge density in first step


--------------------------------------------------------------------------------------------------------


 Maximum index for augmentation-charges           714 (set IRDMAX)


--------------------------------------------------------------------------------------------------------


 First call to EWALD:  gamma=   0.148
 Maximum number of real-space cells 3x 3x 3
 Maximum number of reciprocal cells 3x 3x 3

    FEWALD:  cpu time      0.0110: real time      0.0110


--------------------------------------- Ionic step        1  -------------------------------------------




--------------------------------------- Iteration      1(   1)  ---------------------------------------


    POTLOK:  cpu time      0.1384: real time      0.1394
    SETDIJ:  cpu time      0.6047: real time      0.6070
     EDDAV:  cpu time      8.5486: real time      8.5896
       DOS:  cpu time      0.0022: real time      0.0023
    --------------------------------------------
      LOOP:  cpu time      9.2939: real time      9.3383

 eigenvalue-minimisations  :  7168
 total energy-change (2. order) : 0.1812331E+04  (-0.1418818E+05)
 number of electron     360.0000000 magnetization      72.0000000
 augmentation part      360.0000000 magnetization      72.0000000

 Free energy of the ion-electron system (eV)
  ---------------------------------------------------
  alpha Z        PSCENC =       798.93459346
  Ewald energy   TEWEN  =    -12897.87139251
  -Hartree energ DENC   =     -1089.57400289
  -exchange      EXHF   =         0.00000000
  -V(xc)+E(xc)   XCENC  =      -293.73021627
  PAW double counting   =     10738.42099860    -9719.93139476
  entropy T*S    EENTRO =        -0.01858929
  eigenvalues    EBANDS =      1239.64927487
  atomic energy  EATOM  =     13036.45147835
  Solvation  Ediel_sol  =         0.00000000
  ---------------------------------------------------
  free energy    TOTEN  =      1812.33074956 eV

  energy without entropy =     1812.34933885  energy(sigma->0) =     1812.34004421


--------------------------------------------------------------------------------------------------------




--------------------------------------- Iteration      1(   2)  ---------------------------------------


     EDDAV:  cpu time      9.7335: real time      9.7835
       DOS:  cpu time      0.0017: real time      0.0017
    --------------------------------------------
      LOOP:  cpu time      9.7352: real time      9.7853

 eigenvalue-minimisations  :  8488
 total energy-change (2. order) :-0.1876820E+04  (-0.1801641E+04)
 number of electron     360.0000000 magnetization      72.0000000
 augmentation part      360.0000000 magnetization      72.0000000

 Free energy of the ion-electron system (eV)
  ---------------------------------------------------
  alpha Z        PSCENC =       798.93459346
  Ewald energy   TEWEN  =    -12897.87139251
  -Hartree energ DENC   =     -1089.57400289
  -exchange      EXHF   =         0.00000000
  -V(xc)+E(xc)   XCENC  =      -293.73021627
  PAW double counting   =     10738.42099860    -9719.93139476
  entropy T*S    EENTRO =        -0.02072978
  eigenvalues    EBANDS =      -637.16816210
  atomic energy  EATOM  =     13036.45147835
  Solvation  Ediel_sol  =         0.00000000
  ---------------------------------------------------
  free energy    TOTEN  =       -64.48882790 eV

  energy without entropy =      -64.46809812  energy(sigma->0) =      -64.47846301


--------------------------------------------------------------------------------------------------------




--------------------------------------- Iteration      1(   3)  ---------------------------------------


     EDDAV:  cpu time      9.7549: real time      9.8075
       DOS:  cpu time      0.0014: real time      0.0014
    --------------------------------------------
      LOOP:  cpu time      9.7563: real time      9.8090

 eigenvalue-minimisations  :  8552
 total energy-change (2. order) :-0.2171369E+03  (-0.2110188E+03)
 number of electron     360.0000000 magnetization      72.0000000
 augmentation part      360.0000000 magnetization      72.0000000

 Free energy of the ion-electron system (eV)
  ---------------------------------------------------
  alpha Z        PSCENC =       798.93459346
  Ewald energy   TEWEN  =    -12897.87139251
  -Hartree energ DENC   =     -1089.57400289
  -exchange      EXHF   =         0.00000000
  -V(xc)+E(xc)   XCENC  =      -293.73021627
  PAW double counting   =     10738.42099860    -9719.93139476
  entropy T*S    EENTRO =        -0.00036422
  eigenvalues    EBANDS =      -854.32542263
  atomic energy  EATOM  =     13036.45147835
  Solvation  Ediel_sol  =         0.00000000
  ---------------------------------------------------
  free energy    TOTEN  =      -281.62572287 eV

  energy without entropy =     -281.62535864  energy(sigma->0) =     -281.62554076


--------------------------------------------------------------------------------------------------------




--------------------------------------- Iteration      1(   4)  ---------------------------------------


     EDDAV:  cpu time      9.9565: real time     10.0080
       DOS:  cpu time      0.0011: real time      0.0011
    --------------------------------------------
      LOOP:  cpu time      9.9576: real time     10.0091

 eigenvalue-minimisations  :  8744
 total energy-change (2. order) :-0.7939073E+01  (-0.7845248E+01)
 number of electron     360.0000000 magnetization      72.0000000
 augmentation part      360.0000000 magnetization      72.0000000

 Free energy of the ion-electron system (eV)
  ---------------------------------------------------
  alpha Z        PSCENC =       798.93459346
  Ewald energy   TEWEN  =    -12897.87139251
  -Hartree energ DENC   =     -1089.57400289
  -exchange      EXHF   =         0.00000000
  -V(xc)+E(xc)   XCENC  =      -293.73021627
  PAW double counting   =     10738.42099860    -9719.93139476
  entropy T*S    EENTRO =        -0.00001320
  eigenvalues    EBANDS =      -862.26484687
  atomic energy  EATOM  =     13036.45147835
  Solvation  Ediel_sol  =         0.00000000
  ---------------------------------------------------
  free energy    TOTEN  =      -289.56479608 eV

  energy without entropy =     -289.56478289  energy(sigma->0) =     -289.56478949


--------------------------------------------------------------------------------------------------------




--------------------------------------- Iteration      1(   5)  ---------------------------------------


     EDDAV:  cpu time     10.3674: real time     10.4215
       DOS:  cpu time      0.0016: real time      0.0016
    CHARGE:  cpu time      0.4214: real time      0.4233
    MIXING:  cpu time      0.0069: real time      0.0070
    --------------------------------------------
      LOOP:  cpu time     10.7973: real time     10.8533

 eigenvalue-minimisations  :  9072
 total energy-change (2. order) :-0.2948600E+00  (-0.2940447E+00)
 number of electron     359.9999994 magnetization      48.8071408
 augmentation part      -66.8957532 magnetization      49.0209406

 Broyden mixing:
  rms(total) = 0.29153E+01    rms(broyden)= 0.29153E+01
  rms(prec ) = 0.30724E+01
  weight for this iteration     100.00

 Free energy of the ion-electron system (eV)
  ---------------------------------------------------
  alpha Z        PSCENC =       798.93459346
  Ewald energy   TEWEN  =    -12897.87139251
  -Hartree energ DENC   =     -1089.57400289
  -exchange      EXHF   =         0.00000000
  -V(xc)+E(xc)   XCENC  =      -293.73021627
  PAW double counting   =     10738.42099860    -9719.93139476
  entropy T*S    EENTRO =        -0.00001075
  eigenvalues    EBANDS =      -862.55970929
  atomic energy  EATOM  =     13036.45147835
  Solvation  Ediel_sol  =         0.00000000
  ---------------------------------------------------
  free energy    TOTEN  =      -289.85965606 eV

  energy without entropy =     -289.85964531  energy(sigma->0) =     -289.85965069


--------------------------------------------------------------------------------------------------------




--------------------------------------- Iteration      1(   6)  ---------------------------------------


    POTLOK:  cpu time      0.1360: real time      0.1376
    SETDIJ:  cpu time      0.6034: real time      0.6058
     EDDAV:  cpu time      9.2801: real time      9.3272
       DOS:  cpu time      0.0013: real time      0.0013
    CHARGE:  cpu time      0.4155: real time      0.4178
    MIXING:  cpu time      0.0076: real time      0.0076
    --------------------------------------------
      LOOP:  cpu time     10.4438: real time     10.4973

 eigenvalue-minimisations  :  7968
 total energy-change (2. order) : 0.4535055E+00  (-0.2676581E+01)
 number of electron     359.9999994 magnetization      27.9203525
 augmentation part      -66.2846167 magnetization      29.1055811

 Broyden mixing:
  rms(total) = 0.17272E+01    rms(broyden)= 0.17272E+01
  rms(prec ) = 0.17630E+01
  weight for this iteration     100.00

 eigenvalues of (default mixing * dielectric matrix)
  average eigenvalue GAMMA=   1.0092
  1.0092

 Free energy of the ion-electron system (eV)
  ---------------------------------------------------
  alpha Z        PSCENC =       798.93459346
  Ewald energy   TEWEN  =    -12897.87139251
  -Hartree energ DENC   =     -1142.58769905
  -exchange      EXHF   =         0.00000000
  -V(xc)+E(xc)   XCENC  =      -287.31921547
  PAW double counting   =     13008.47715676   -11993.44837796
  entropy T*S    EENTRO =        -0.00000826
  eigenvalues    EBANDS =      -812.04268589
  atomic energy  EATOM  =     13036.45147835
  Solvation  Ediel_sol  =         0.00000000
  ---------------------------------------------------
  free energy    TOTEN  =      -289.40615057 eV

  energy without entropy =     -289.40614231  energy(sigma->0) =     -289.40614644


--------------------------------------------------------------------------------------------------------




--------------------------------------- Iteration      1(   7)  ---------------------------------------


    POTLOK:  cpu time      0.1298: real time      0.1304
    SETDIJ:  cpu time      0.6014: real time      0.6043
     EDDAV:  cpu time      9.3752: real time      9.4301
       DOS:  cpu time      0.0009: real time      0.0009
    CHARGE:  cpu time      0.4171: real time      0.4188
    MIXING:  cpu time      0.0072: real time      0.0072
    --------------------------------------------
      LOOP:  cpu time     10.5316: real time     10.5918

 eigenvalue-minimisations  :  8088
 total energy-change (2. order) :-0.7375273E+01  (-0.8705186E+00)
 number of electron     359.9999994 magnetization       9.3596168
 augmentation part      -66.2618696 magnetization      10.0375042

 Broyden mixing:
  rms(total) = 0.91024E+00    rms(broyden)= 0.91024E+00
  rms(prec ) = 0.92581E+00
  weight for this iteration     100.00

 eigenvalues of (default mixing * dielectric matrix)
  average eigenvalue GAMMA=   1.4445
  0.8620  2.0271

 Free energy of the ion-electron system (eV)
  ---------------------------------------------------
  alpha Z        PSCENC =       798.93459346
  Ewald energy   TEWEN  =    -12897.87139251
  -Hartree energ DENC   =     -1159.32529709
  -exchange      EXHF   =         0.00000000
  -V(xc)+E(xc)   XCENC  =      -290.29709479
  PAW double counting   =     15085.40598406   -14071.95502256
  entropy T*S    EENTRO =        -0.00000000
  eigenvalues    EBANDS =      -798.12467224
  atomic energy  EATOM  =     13036.45147835
  Solvation  Ediel_sol  =         0.00000000
  ---------------------------------------------------
  free energy    TOTEN  =      -296.78142333 eV

  energy without entropy =     -296.78142332  energy(sigma->0) =     -296.78142332


--------------------------------------------------------------------------------------------------------




--------------------------------------- Iteration      1(   8)  ---------------------------------------


    POTLOK:  cpu time      0.1296: real time      0.1303
    SETDIJ:  cpu time      0.5956: real time      0.6024
     EDDAV:  cpu time      9.4472: real time      9.5128
       DOS:  cpu time      0.0009: real time      0.0009
    CHARGE:  cpu time      0.4102: real time      0.4185
    MIXING:  cpu time      0.0073: real time      0.0073
    --------------------------------------------
      LOOP:  cpu time     10.5908: real time     10.6721

 eigenvalue-minimisations  :  8144
 total energy-change (2. order) :-0.3217995E+01  (-0.1688690E+00)
 number of electron     359.9999994 magnetization       4.4357503
 augmentation part      -66.2784281 magnetization       4.7492673

 Broyden mixing:
  rms(total) = 0.33886E+00    rms(broyden)= 0.33886E+00
  rms(prec ) = 0.34408E+00
  weight for this iteration     100.00

 eigenvalues of (default mixing * dielectric matrix)
  average eigenvalue GAMMA=   1.3554
  2.4966  0.9229  0.6467

 Free energy of the ion-electron system (eV)
  ---------------------------------------------------
  alpha Z        PSCENC =       798.93459346
  Ewald energy   TEWEN  =    -12897.87139251
  -Hartree energ DENC   =     -1163.27215845
  -exchange      EXHF   =         0.00000000
  -V(xc)+E(xc)   XCENC  =      -290.09056056
  PAW double counting   =     16828.51904135   -15815.96671188
  entropy T*S    EENTRO =        -0.00000000
  eigenvalues    EBANDS =      -796.70370844
  atomic energy  EATOM  =     13036.45147835
  Solvation  Ediel_sol  =         0.00000000
  ---------------------------------------------------
  free energy    TOTEN  =      -299.99941867 eV

  energy without entropy =     -299.99941867  energy(sigma->0) =     -299.99941867


--------------------------------------------------------------------------------------------------------




--------------------------------------- Iteration      1(   9)  ---------------------------------------


    POTLOK:  cpu time      0.1302: real time      0.1309
    SETDIJ:  cpu time      0.5999: real time      0.6022
     EDDAV:  cpu time     10.3421: real time     10.3958
       DOS:  cpu time      0.0011: real time      0.0011
    CHARGE:  cpu time      0.4120: real time      0.4140
    MIXING:  cpu time      0.0079: real time      0.0079
    --------------------------------------------
      LOOP:  cpu time     11.4931: real time     11.5518

 eigenvalue-minimisations  :  9120
 total energy-change (2. order) :-0.3911447E+00  (-0.4392526E-01)
 number of electron     359.9999994 magnetization       2.2878197
 augmentation part      -66.3169888 magnetization       2.4434225

 Broyden mixing:
  rms(total) = 0.14902E+00    rms(broyden)= 0.14902E+00
  rms(prec ) = 0.15076E+00
  weight for this iteration     100.00

 eigenvalues of (default mixing * dielectric matrix)
  average eigenvalue GAMMA=   1.3307
  2.6341  1.2381  0.8330  0.6176

 Free energy of the ion-electron system (eV)
  ---------------------------------------------------
  alpha Z        PSCENC =       798.93459346
  Ewald energy   TEWEN  =    -12897.87139251
  -Hartree energ DENC   =     -1162.21622950
  -exchange      EXHF   =         0.00000000
  -V(xc)+E(xc)   XCENC  =      -290.13491986
  PAW double counting   =     17123.41541166   -16111.20395501
  entropy T*S    EENTRO =        -0.00000000
  eigenvalues    EBANDS =      -797.76555001
  atomic energy  EATOM  =     13036.45147835
  Solvation  Ediel_sol  =         0.00000000
  ---------------------------------------------------
  free energy    TOTEN  =      -300.39056342 eV

  energy without entropy =     -300.39056342  energy(sigma->0) =     -300.39056342


--------------------------------------------------------------------------------------------------------




--------------------------------------- Iteration      1(  10)  ---------------------------------------


    POTLOK:  cpu time      0.1290: real time      0.1297
    SETDIJ:  cpu time      0.6012: real time      0.6032
     EDDAV:  cpu time      9.3859: real time      9.4480
       DOS:  cpu time      0.0010: real time      0.0011
    CHARGE:  cpu time      0.4188: real time      0.4205
    MIXING:  cpu time      0.0075: real time      0.0076
    --------------------------------------------
      LOOP:  cpu time     10.5435: real time     10.6100

 eigenvalue-minimisations  :  8048
 total energy-change (2. order) :-0.1105832E+00  (-0.9987871E-02)
 number of electron     359.9999994 magnetization       0.7512057
 augmentation part      -66.3199727 magnetization       0.8202721

 Broyden mixing:
  rms(total) = 0.73083E-01    rms(broyden)= 0.73083E-01
  rms(prec ) = 0.74175E-01
  weight for this iteration     100.00

 eigenvalues of (default mixing * dielectric matrix)
  average eigenvalue GAMMA=   1.3730
  2.7069  1.7371  0.9719  0.8244  0.6249

 Free energy of the ion-electron system (eV)
  ---------------------------------------------------
  alpha Z        PSCENC =       798.93459346
  Ewald energy   TEWEN  =    -12897.87139251
  -Hartree energ DENC   =     -1162.34648448
  -exchange      EXHF   =         0.00000000
  -V(xc)+E(xc)   XCENC  =      -290.13495842
  PAW double counting   =     17134.53911019   -16122.33785895
  entropy T*S    EENTRO =        -0.00000000
  eigenvalues    EBANDS =      -797.73563428
  atomic energy  EATOM  =     13036.45147835
  Solvation  Ediel_sol  =         0.00000000
  ---------------------------------------------------
  free energy    TOTEN  =      -300.50114664 eV

  energy without entropy =     -300.50114664  energy(sigma->0) =     -300.50114664


--------------------------------------------------------------------------------------------------------




--------------------------------------- Iteration      1(  11)  ---------------------------------------


    POTLOK:  cpu time      0.1293: real time      0.1301
    SETDIJ:  cpu time      0.6013: real time      0.6033
     EDDAV:  cpu time     10.4215: real time     10.4838
       DOS:  cpu time      0.0009: real time      0.0009
    CHARGE:  cpu time      0.4143: real time      0.4164
    MIXING:  cpu time      0.0087: real time      0.0087
    --------------------------------------------
      LOOP:  cpu time     11.5762: real time     11.6432

 eigenvalue-minimisations  :  9192
 total energy-change (2. order) :-0.3129038E-01  (-0.3666863E-02)
 number of electron     359.9999994 magnetization       0.1915706
 augmentation part      -66.3058544 magnetization       0.2111014

 Broyden mixing:
  rms(total) = 0.28903E-01    rms(broyden)= 0.28903E-01
  rms(prec ) = 0.29471E-01
  weight for this iteration     100.00

 eigenvalues of (default mixing * dielectric matrix)
  average eigenvalue GAMMA=   1.4065
  2.9109  2.1669  1.1787  0.8589  0.6995  0.6238

 Free energy of the ion-electron system (eV)
  ---------------------------------------------------
  alpha Z        PSCENC =       798.93459346
  Ewald energy   TEWEN  =    -12897.87139251
  -Hartree energ DENC   =     -1163.43117465
  -exchange      EXHF   =         0.00000000
  -V(xc)+E(xc)   XCENC  =      -290.09553525
  PAW double counting   =     17058.46079356   -16046.23318155
  entropy T*S    EENTRO =        -0.00000000
  eigenvalues    EBANDS =      -796.74801842
  atomic energy  EATOM  =     13036.45147835
  Solvation  Ediel_sol  =         0.00000000
  ---------------------------------------------------
  free energy    TOTEN  =      -300.53243702 eV

  energy without entropy =     -300.53243702  energy(sigma->0) =     -300.53243702


--------------------------------------------------------------------------------------------------------




--------------------------------------- Iteration      1(  12)  ---------------------------------------


    POTLOK:  cpu time      0.1297: real time      0.1309
    SETDIJ:  cpu time      0.6045: real time      0.6061
     EDDAV:  cpu time      9.6023: real time      9.6589
       DOS:  cpu time      0.0008: real time      0.0008
    CHARGE:  cpu time      0.4122: real time      0.4137
    MIXING:  cpu time      0.0078: real time      0.0078
    --------------------------------------------
      LOOP:  cpu time     10.7573: real time     10.8183

 eigenvalue-minimisations  :  8264
 total energy-change (2. order) :-0.3402033E-02  (-0.4613379E-03)
 number of electron     359.9999994 magnetization       0.0619175
 augmentation part      -66.3051087 magnetization       0.0671092

 Broyden mixing:
  rms(total) = 0.11134E-01    rms(broyden)= 0.11134E-01
  rms(prec ) = 0.11803E-01
  weight for this iteration     100.00

 eigenvalues of (default mixing * dielectric matrix)
  average eigenvalue GAMMA=   1.3662
  3.0058  2.3315  1.1979  0.8812  0.8812  0.6097  0.6560

 Free energy of the ion-electron system (eV)
  ---------------------------------------------------
  alpha Z        PSCENC =       798.93459346
  Ewald energy   TEWEN  =    -12897.87139251
  -Hartree energ DENC   =     -1163.53570307
  -exchange      EXHF   =         0.00000000
  -V(xc)+E(xc)   XCENC  =      -290.09929200
  PAW double counting   =     17021.34082277   -16009.09027505
  entropy T*S    EENTRO =        -0.00000000
  eigenvalues    EBANDS =      -796.66607101
  atomic energy  EATOM  =     13036.45147835
  Solvation  Ediel_sol  =         0.00000000
  ---------------------------------------------------
  free energy    TOTEN  =      -300.53583905 eV

  energy without entropy =     -300.53583905  energy(sigma->0) =     -300.53583905


--------------------------------------------------------------------------------------------------------




--------------------------------------- Iteration      1(  13)  ---------------------------------------


    POTLOK:  cpu time      0.1283: real time      0.1292
    SETDIJ:  cpu time      0.6017: real time      0.6032
     EDDAV:  cpu time     11.0982: real time     11.1536
       DOS:  cpu time      0.0011: real time      0.0011
    CHARGE:  cpu time      0.4141: real time      0.4159
    MIXING:  cpu time      0.0078: real time      0.0078
    --------------------------------------------
      LOOP:  cpu time     12.2512: real time     12.3108

 eigenvalue-minimisations  :  9912
 total energy-change (2. order) :-0.1393131E-03  (-0.7408461E-04)
 number of electron     359.9999994 magnetization       0.0169313
 augmentation part      -66.3063087 magnetization       0.0177968

 Broyden mixing:
  rms(total) = 0.45726E-02    rms(broyden)= 0.45726E-02
  rms(prec ) = 0.47779E-02
  weight for this iteration     100.00

 eigenvalues of (default mixing * dielectric matrix)
  average eigenvalue GAMMA=   1.3435
  3.0546  2.4304  1.0853  1.0295  1.0295  0.8585  0.6111  0.6492

 Free energy of the ion-electron system (eV)
  ---------------------------------------------------
  alpha Z        PSCENC =       798.93459346
  Ewald energy   TEWEN  =    -12897.87139251
  -Hartree energ DENC   =     -1163.44684423
  -exchange      EXHF   =         0.00000000
  -V(xc)+E(xc)   XCENC  =      -290.10948553
  PAW double counting   =     17006.99000976   -15994.72823128
  entropy T*S    EENTRO =        -0.00000000
  eigenvalues    EBANDS =      -796.75610639
  atomic energy  EATOM  =     13036.45147835
  Solvation  Ediel_sol  =         0.00000000
  ---------------------------------------------------
  free energy    TOTEN  =      -300.53597836 eV

  energy without entropy =     -300.53597836  energy(sigma->0) =     -300.53597836


--------------------------------------------------------------------------------------------------------




--------------------------------------- Iteration      1(  14)  ---------------------------------------


    POTLOK:  cpu time      0.1289: real time      0.1295
    SETDIJ:  cpu time      0.6020: real time      0.6038
     EDDAV:  cpu time      9.6288: real time      9.6772
       DOS:  cpu time      0.0010: real time      0.0010
    CHARGE:  cpu time      0.4149: real time      0.4166
    MIXING:  cpu time      0.0086: real time      0.0087
    --------------------------------------------
      LOOP:  cpu time     10.7841: real time     10.8368

 eigenvalue-minimisations  :  8352
 total energy-change (2. order) :-0.1816929E-04  (-0.9856816E-05)
 number of electron     359.9999994 magnetization       0.0058466
 augmentation part      -66.3059922 magnetization       0.0061735

 Broyden mixing:
  rms(total) = 0.18504E-02    rms(broyden)= 0.18504E-02
  rms(prec ) = 0.19561E-02
  weight for this iteration     100.00

 eigenvalues of (default mixing * dielectric matrix)
  average eigenvalue GAMMA=   1.3276
  3.0805  2.4653  1.3946  1.2158  0.8881  0.8881  0.7597  0.6178  0.6384

 Free energy of the ion-electron system (eV)
  ---------------------------------------------------
  alpha Z        PSCENC =       798.93459346
  Ewald energy   TEWEN  =    -12897.87139251
  -Hartree energ DENC   =     -1163.45284758
  -exchange      EXHF   =         0.00000000
  -V(xc)+E(xc)   XCENC  =      -290.10987665
  PAW double counting   =     17002.68704144   -15990.42254182
  entropy T*S    EENTRO =        -0.00000000
  eigenvalues    EBANDS =      -796.75245123
  atomic energy  EATOM  =     13036.45147835
  Solvation  Ediel_sol  =         0.00000000
  ---------------------------------------------------
  free energy    TOTEN  =      -300.53599653 eV

  energy without entropy =     -300.53599653  energy(sigma->0) =     -300.53599653


--------------------------------------------------------------------------------------------------------




--------------------------------------- Iteration      1(  15)  ---------------------------------------


    POTLOK:  cpu time      0.1286: real time      0.1293
    SETDIJ:  cpu time      0.6021: real time      0.6039
     EDDAV:  cpu time      9.9474: real time     10.0069
       DOS:  cpu time      0.0008: real time      0.0008
    CHARGE:  cpu time      0.4134: real time      0.4155
    MIXING:  cpu time      0.0081: real time      0.0081
    --------------------------------------------
      LOOP:  cpu time     11.1004: real time     11.1645

 eigenvalue-minimisations  :  8680
 total energy-change (2. order) :-0.2972299E-05  (-0.1708637E-05)
 number of electron     359.9999994 magnetization       0.0019671
 augmentation part      -66.3061571 magnetization       0.0021847

 Broyden mixing:
  rms(total) = 0.86724E-03    rms(broyden)= 0.86724E-03
  rms(prec ) = 0.91372E-03
  weight for this iteration     100.00

 eigenvalues of (default mixing * dielectric matrix)
  average eigenvalue GAMMA=   1.2980
  3.0922  2.4397  1.6682  1.1154  0.9510  0.9510  0.8350  0.6918  0.6180  0.6180

 Free energy of the ion-electron system (eV)
  ---------------------------------------------------
  alpha Z        PSCENC =       798.93459346
  Ewald energy   TEWEN  =    -12897.87139251
  -Hartree energ DENC   =     -1163.43636856
  -exchange      EXHF   =         0.00000000
  -V(xc)+E(xc)   XCENC  =      -290.11056685
  PAW double counting   =     17002.08285613   -15989.81742246
  entropy T*S    EENTRO =        -0.00000000
  eigenvalues    EBANDS =      -796.76917706
  atomic energy  EATOM  =     13036.45147835
  Solvation  Ediel_sol  =         0.00000000
  ---------------------------------------------------
  free energy    TOTEN  =      -300.53599951 eV

  energy without entropy =     -300.53599951  energy(sigma->0) =     -300.53599951


--------------------------------------------------------------------------------------------------------




--------------------------------------- Iteration      1(  16)  ---------------------------------------


    POTLOK:  cpu time      0.1292: real time      0.1299
    SETDIJ:  cpu time      0.6048: real time      0.6066
     EDDAV:  cpu time      6.6966: real time      6.7318
       DOS:  cpu time      0.0012: real time      0.0012
    --------------------------------------------
      LOOP:  cpu time      7.4318: real time      7.4695

 eigenvalue-minimisations  :  4888
 total energy-change (2. order) :-0.6997286E-06  (-0.1511486E-06)
 number of electron     359.9999994 magnetization       0.0019671
 augmentation part      -66.3061571 magnetization       0.0021847

 Free energy of the ion-electron system (eV)
  ---------------------------------------------------
  alpha Z        PSCENC =       798.93459346
  Ewald energy   TEWEN  =    -12897.87139251
  -Hartree energ DENC   =     -1163.42746029
  -exchange      EXHF   =         0.00000000
  -V(xc)+E(xc)   XCENC  =      -290.11096531
  PAW double counting   =     17002.03818126   -15989.77242199
  entropy T*S    EENTRO =        -0.00000000
  eigenvalues    EBANDS =      -796.77801317
  atomic energy  EATOM  =     13036.45147835
  Solvation  Ediel_sol  =         0.00000000
  ---------------------------------------------------
  free energy    TOTEN  =      -300.53600021 eV

  energy without entropy =     -300.53600021  energy(sigma->0) =     -300.53600021


--------------------------------------------------------------------------------------------------------




 average (electrostatic) potential at core
  the test charge radii are     1.1631  1.0808
  (the norm of the test charge is              1.0000)
       1 -33.2849       2 -33.2975       3 -33.5226       4 -33.6785       5 -33.4055
       6 -33.3690       7 -33.3330       8 -33.5158       9 -33.3306      10 -33.2815
      11 -33.4625      12 -33.4389      13 -33.7479      14 -33.6367      15 -33.2623
      16 -33.7672      17 -33.4589      18 -33.4312      19 -33.5768      20 -33.5315
      21 -33.4728      22 -33.4517      23 -33.4038      24 -33.2865      25 -33.5447
      26 -33.1339      27 -33.5973      28 -33.4790      29 -33.3853      30 -33.4441
      31 -33.5209      32 -33.4324      33 -33.3430      34 -33.5110      35 -33.4279
      36 -33.3735      37 -54.7704      38 -55.0974      39 -55.0871      40 -54.8821
      41 -54.9878      42 -54.8541      43 -54.8205      44 -54.7596      45 -54.7382
      46 -54.5912      47 -54.6393      48 -54.6036      49 -54.7620      50 -55.1010
      51 -54.6179      52 -54.7952      53 -54.8823      54 -54.6244      55 -54.6100
      56 -55.1461      57 -54.6947      58 -54.8458      59 -54.8892      60 -54.7239
      61 -54.8342      62 -54.9507      63 -54.7129      64 -54.7068      65 -55.1367
      66 -54.9284      67 -54.7462      68 -54.6413      69 -54.8327      70 -54.8339
      71 -54.9550      72 -54.8500
 
 
 
 E-fermi :   3.6344     XC(G=0):  -9.3914     alpha+bet : -8.8436

 Fermi energy:         3.6343630266

 spin component 1

 k-point     1 :       0.0000    0.0000    0.0000
  band No.  band energies     occupation 
      1     -10.8852      1.00000
      2     -10.5294      1.00000
      3     -10.4842      1.00000
      4     -10.3989      1.00000
      5     -10.2852      1.00000
      6     -10.2369      1.00000
      7     -10.1105      1.00000
      8     -10.0291      1.00000
      9      -9.9785      1.00000
     10      -9.9588      1.00000
     11      -9.8819      1.00000
     12      -9.8233      1.00000
     13      -9.8138      1.00000
     14      -9.7174      1.00000
     15      -9.6567      1.00000
     16      -9.6370      1.00000
     17      -9.5827      1.00000
     18      -9.5508      1.00000
     19      -9.4997      1.00000
     20      -9.4632      1.00000
     21      -9.4173      1.00000
     22      -9.3831      1.00000
     23      -9.3332      1.00000
     24      -9.2873      1.00000
     25      -9.2820      1.00000
     26      -9.1926      1.00000
     27      -9.1837      1.00000
     28      -9.1587      1.00000
     29      -9.1360      1.00000
     30      -9.0807      1.00000
     31      -9.0373      1.00000
     32      -9.0031      1.00000
     33      -8.9849      1.00000
     34      -8.9560      1.00000
     35      -8.8997      1.00000
     36      -8.8195      1.00000
     37      -5.3219      1.00000
     38      -5.2802      1.00000
     39      -5.2658      1.00000
     40      -5.1616      1.00000
     41      -5.0658      1.00000
     42      -5.0007      1.00000
     43      -4.9542      1.00000
     44      -4.9064      1.00000
     45      -4.7773      1.00000
     46      -4.7462      1.00000
     47      -4.5756      1.00000
     48      -4.5335      1.00000
     49      -4.4649      1.00000
     50      -4.4514      1.00000
     51      -4.4220      1.00000
     52      -4.4036      1.00000
     53      -4.3366      1.00000
     54      -4.3064      1.00000
     55      -4.2877      1.00000
     56      -4.2745      1.00000
     57      -4.2410      1.00000
     58      -4.2209      1.00000
     59      -4.1793      1.00000
     60      -4.1260      1.00000
     61      -4.0937      1.00000
     62      -4.0123      1.00000
     63      -3.9962      1.00000
     64      -3.9469      1.00000
     65      -3.8456      1.00000
     66      -3.7440      1.00000
     67      -3.7343      1.00000
     68      -3.6289      1.00000
     69      -3.4780      1.00000
     70      -3.4344      1.00000
     71      -2.5730      1.00000
     72      -2.3688      1.00000
     73      -1.7611      1.00000
     74      -1.6127      1.00000
     75      -1.5944      1.00000
     76      -1.5479      1.00000
     77      -1.4904      1.00000
     78      -1.3964      1.00000
     79      -1.3012      1.00000
     80      -1.2334      1.00000
     81      -1.2212      1.00000
     82      -1.1531      1.00000
     83      -1.1081      1.00000
     84      -1.0879      1.00000
     85      -0.9869      1.00000
     86      -0.8962      1.00000
     87      -0.8558      1.00000
     88      -0.7137      1.00000
     89      -0.6841      1.00000
     90      -0.5923      1.00000
     91      -0.5558      1.00000
     92      -0.5137      1.00000
     93      -0.4032      1.00000
     94      -0.3628      1.00000
     95      -0.1441      1.00000
     96      -0.0908      1.00000
     97      -0.0408      1.00000
     98      -0.0232      1.00000
     99       0.0929      1.00000
    100       0.1072      1.00000
    101       0.1514      1.00000
    102       0.1652      1.00000
    103       0.1970      1.00000
    104       0.2549      1.00000
    105       0.2740      1.00000
    106       0.2975      1.00000
    107       0.3635      1.00000
    108       0.4193      1.00000
    109       0.4334      1.00000
    110       0.4588      1.00000
    111       0.5264      1.00000
    112       0.5443      1.00000
    113       0.5813      1.00000
    114       0.6263      1.00000
    115       0.6561      1.00000
    116       0.6730      1.00000
    117       0.7126      1.00000
    118       0.7417      1.00000
    119       0.7735      1.00000
    120       0.8153      1.00000
    121       0.8326      1.00000
    122       0.8889      1.00000
    123       0.9218      1.00000
    124       0.9535      1.00000
    125       0.9801      1.00000
    126       0.9978      1.00000
    127       1.0704      1.00000
    128       1.1073      1.00000
    129       1.1429      1.00000
    130       1.1476      1.00000
    131       1.1849      1.00000
    132       1.2220      1.00000
    133       1.2670      1.00000
    134       1.3044      1.00000
    135       1.3550      1.00000
    136       1.4136      1.00000
    137       1.4271      1.00000
    138       1.4862      1.00000
    139       1.5030      1.00000
    140       1.5471      1.00000
    141       1.5954      1.00000
    142       1.6436      1.00000
    143       1.6776      1.00000
    144       1.6919      1.00000
    145       1.7263      1.00000
    146       1.7684      1.00000
    147       1.7823      1.00000
    148       1.8467      1.00000
    149       1.8805      1.00000
    150       1.9360      1.00000
[...]
   0.111E+01 -.539E+01 -.277E+02   -.120E+01 0.707E+01 0.303E+02   -.147E+00 -.207E+01 -.276E+01   0.143E-03 -.181E-03 0.593E-04
   0.715E+01 0.135E+02 0.231E+02   -.765E+01 -.161E+02 -.261E+02   0.244E+00 0.220E+01 0.257E+01   -.948E-04 0.215E-05 -.515E-04
   -.224E+01 0.129E+02 0.296E+02   0.251E+01 -.140E+02 -.314E+02   -.176E+00 0.669E+00 0.219E+01   -.446E-03 0.180E-03 0.866E-04
   -.114E+02 0.131E+02 0.349E+02   0.117E+02 -.142E+02 -.370E+02   0.345E+00 0.104E+01 0.149E+01   -.787E-04 0.239E-03 -.363E-04
   0.617E+01 0.939E+01 0.238E+02   -.645E+01 -.103E+02 -.257E+02   0.114E+00 0.964E+00 0.170E+01   -.163E-03 -.311E-03 -.177E-03
   -.335E+01 0.113E+02 0.193E+02   0.326E+01 -.126E+02 -.211E+02   0.552E-01 0.722E+00 0.228E+01   0.235E-03 0.146E-03 0.265E-04
   0.629E+00 0.573E+01 0.211E+02   -.743E+00 -.643E+01 -.229E+02   -.186E-01 0.645E+00 0.137E+01   -.187E-03 -.420E-03 0.482E-04
   -.131E+02 0.740E+01 0.195E+02   0.134E+02 -.801E+01 -.214E+02   0.183E+00 0.588E+00 0.179E+01   0.933E-04 0.149E-03 0.137E-03
   0.118E+02 0.918E+01 0.293E+02   -.120E+02 -.104E+02 -.309E+02   -.139E+00 0.113E+01 0.128E+01   0.342E-03 -.104E-03 -.172E-03
   -.798E+01 -.136E+02 -.300E+02   0.864E+01 0.150E+02 0.317E+02   0.193E-01 -.966E+00 -.157E+01   -.301E-03 0.179E-03 -.426E-03
   0.181E+02 -.239E+02 -.326E+02   -.189E+02 0.252E+02 0.347E+02   0.269E+00 -.652E+00 -.172E+01   0.309E-03 -.313E-04 -.518E-04
   -.905E+01 -.365E+01 -.140E+02   0.913E+01 0.459E+01 0.155E+02   -.217E-01 -.742E+00 -.212E+01   0.362E-04 0.349E-03 -.828E-04
   0.320E+00 -.269E+01 -.358E+02   -.466E+00 0.356E+01 0.375E+02   0.716E-01 -.820E+00 -.171E+01   0.112E-03 -.371E-03 0.150E-03
   -.687E+01 -.120E+02 -.215E+02   0.724E+01 0.126E+02 0.231E+02   -.125E+00 -.917E+00 -.202E+01   0.382E-04 -.180E-03 -.180E-03
   0.965E+01 -.540E+01 -.104E+02   -.100E+02 0.631E+01 0.113E+02   0.315E+00 -.574E+00 -.109E+01   -.185E-03 0.220E-03 -.364E-05
   -.627E+01 -.121E+02 -.161E+02   0.678E+01 0.135E+02 0.177E+02   -.600E-01 -.133E+01 -.163E+01   -.238E-03 -.863E-04 -.701E-04
   -.446E+00 -.374E+01 0.195E+02   0.481E+00 0.362E+01 -.210E+02   0.240E+00 0.163E+00 0.180E+01   0.230E-03 0.108E-03 -.928E-04
   0.236E+01 0.459E+01 0.318E+02   -.225E+01 -.516E+01 -.336E+02   -.406E+00 0.977E+00 0.206E+01   0.493E-04 0.857E-04 -.967E-04
   0.776E+01 -.163E+02 0.154E+02   -.776E+01 0.173E+02 -.169E+02   -.278E+00 -.102E+01 0.207E+01   -.446E-03 0.987E-05 0.339E-04
   0.254E+01 -.280E+02 0.205E+02   -.244E+01 0.293E+02 -.221E+02   -.825E-01 -.962E+00 0.206E+01   -.140E-03 0.879E-04 -.543E-04
   -.283E+02 -.824E+01 0.249E+02   0.298E+02 0.897E+01 -.268E+02   -.874E+00 -.255E+00 0.178E+01   -.303E-03 -.295E-03 -.799E-04
   0.544E+01 -.951E+01 -.267E+02   -.557E+01 0.103E+02 0.287E+02   -.331E+00 -.407E+00 -.132E+01   0.175E-03 -.177E-03 -.239E-04
   -.542E+01 0.104E+02 -.374E+02   0.570E+01 -.113E+02 0.394E+02   0.372E-01 0.153E+01 -.164E+01   0.860E-04 0.316E-03 0.204E-03
   0.695E+00 0.773E+01 -.261E+02   -.902E+00 -.840E+01 0.281E+02   0.180E-01 0.879E+00 -.173E+01   0.386E-03 -.250E-03 -.247E-03
   -.885E+01 0.118E+01 -.139E+02   0.939E+01 -.190E+01 0.160E+02   -.297E+00 0.424E+00 -.195E+01   -.394E-04 -.660E-04 -.153E-03
   -.161E+02 0.902E+00 -.300E+02   0.168E+02 -.129E+01 0.319E+02   -.307E+00 0.366E+00 -.198E+01   -.145E-04 0.171E-03 -.372E-04
   -.476E+01 0.106E+02 -.212E+02   0.492E+01 -.111E+02 0.225E+02   -.402E+00 0.611E+00 -.194E+01   -.142E-03 -.303E-04 0.209E-03
   -.255E+01 0.132E+02 -.199E+02   0.255E+01 -.146E+02 0.214E+02   -.264E+00 0.120E+01 -.197E+01   0.635E-04 -.951E-05 0.487E-04
   0.387E+01 0.113E+02 -.218E+02   -.380E+01 -.124E+02 0.237E+02   0.214E+00 0.852E+00 -.198E+01   -.960E-04 -.421E-03 0.106E-03
   0.182E+01 0.462E+00 -.247E+02   -.172E+01 -.724E+00 0.260E+02   -.404E+00 0.640E+00 -.197E+01   -.281E-03 0.323E-03 0.268E-03
   0.835E+01 0.107E+02 -.182E+02   -.856E+01 -.118E+02 0.202E+02   -.117E-01 0.467E+00 -.211E+01   -.818E-04 0.424E-04 0.182E-03
   -.392E+01 0.566E+01 0.166E+02   0.400E+01 -.450E+01 -.180E+02   0.527E-01 -.116E+01 0.158E+01   -.778E-04 -.153E-03 0.186E-03
   -.189E+02 0.267E+01 0.232E+02   0.195E+02 -.287E+01 -.247E+02   -.153E+00 -.263E+00 0.155E+01   0.725E-04 0.197E-04 0.329E-03
   0.992E+01 -.177E+02 0.244E+02   -.101E+02 0.189E+02 -.257E+02   0.278E+00 -.116E+01 0.167E+01   0.298E-03 -.441E-03 -.194E-03
   -.117E+02 0.906E+00 0.272E+02   0.124E+02 -.387E+00 -.288E+02   -.903E+00 -.894E+00 0.180E+01   0.357E-04 0.119E-03 -.890E-04
   -.328E+01 -.825E+01 0.226E+02   0.363E+01 0.936E+01 -.242E+02   0.145E-02 -.104E+01 0.206E+01   0.339E-03 0.232E-03 0.104E-03
   0.166E+02 -.119E+01 0.311E+02   -.173E+02 0.212E+01 -.334E+02   0.133E+00 -.766E+00 0.169E+01   0.794E-04 -.280E-05 0.399E-03
   0.907E+01 0.806E+00 -.299E+02   -.935E+01 -.596E+00 0.320E+02   -.327E+00 -.240E+00 -.200E+01   0.288E-04 -.240E-04 -.223E-03
 -----------------------------------------------------------------------------------------------
   -.420E+01 0.152E+01 -.158E+00   -.142E-13 -.338E-13 0.163E-12   0.420E+01 -.152E+01 0.158E+00   -.754E-04 -.188E-03 -.307E-04
 
 
 POSITION                                       TOTAL-FORCE (eV/Angst)
 -----------------------------------------------------------------------------------
      1.12927      0.33347      1.51259        -0.174119      0.135155     -0.206763
      2.92732     11.07736      4.14159         0.375654     -0.254092     -0.063812
      7.05009      2.80623      4.32581        -0.180725     -0.408932     -0.545068
      7.00391      6.88498      4.14026         0.155571      0.163611     -0.290727
      7.27688     10.92891      4.11955        -0.762842     -0.109632     -0.241000
     11.02673      2.47323      4.08060         0.637381     -0.113493      0.113153
     11.27373      6.60325      3.92547         0.493696      0.318722      0.856568
     11.23566     10.75549      3.95211         0.101476      0.193774     -0.115569
      0.70527      1.89992      7.07534        -0.023459     -0.416254     -0.247804
      0.93643      5.98152      7.08207        -0.516423      0.345892     -0.365536
      0.89487     10.18373      7.11097        -0.163724      0.119312     -0.430688
      4.97502      1.90210      7.04386        -0.283648     -0.199927     -0.057504
      4.74414      5.94009      6.95457         0.291023     -0.038492      0.421715
      4.86658     10.28765      6.87183         0.136112      0.002471      0.440065
      9.13877      1.76230      7.07983        -0.016567      0.576850     -0.190050
      9.16016      5.88120      6.77539         0.328051      0.128559      0.849765
      3.21851      6.98507      4.22548        -0.841200     -0.502289     -0.171838
      2.92591      2.63727      4.09025         0.070221     -0.226589     -0.379767
      9.10676     10.11947      7.16350         0.131355     -0.123288     -0.558674
     11.14386      8.18436      9.59387         0.220473     -0.441186     -0.133673
     11.05163     12.11012      9.70483         0.321029      0.681046     -0.337046
      1.03587      4.86144      1.39698         0.086213     -0.712969      0.405772
      0.91448      8.71406      1.34437         0.144882      0.358691      0.297110
      5.18098      0.50602      1.52192        -0.143997      0.184580      0.343647
      5.07339      4.97555      1.24082         0.193396     -0.171671      0.316160
      9.08654      0.62641      1.34166        -0.513251     -0.225850     -0.192119
      9.14564      4.67532      1.66799         0.028846     -0.012683     -0.882759
      5.08287      8.89941      1.49215        -0.135965      0.079010     -0.203345
      2.82957      3.86545      9.59839        -0.193505     -0.328933      0.808924
      2.94151      8.15256      9.51572         0.148683     -0.173540      0.571016
      3.08151     12.10695      9.71489        -0.187573      0.513847     -0.372981
      7.10322      4.09502      9.48961        -0.014587     -0.080768      0.572054
      7.17051      8.02776      9.28531        -0.196870     -0.122671      0.781069
      7.00053     12.22536      9.60583         0.046700      0.481926     -0.120573
     11.30803      4.00480      9.81047        -0.239414     -0.381460     -0.165159
      9.26275      9.05979      1.55304        -0.259402     -0.435072     -0.400211
     11.05135      0.09240      7.04666         0.097369     -0.346701      0.384913
      2.70983      4.18253      7.16765         0.638228     -0.049164     -0.666650
      2.95498      8.48210      7.04262        -0.174905      0.076005     -0.200297
      7.02149      0.27283      7.01485        -0.037205     -0.581400      0.511375
      6.93272      4.35264      7.04017        -0.132465     -0.053868     -0.457295
      6.83008      8.46291      6.87047         0.470128     -0.019914     -0.104720
     11.33153      4.32216      7.26921        -0.355208     -0.088911     -0.311569
      9.09118      0.02226      3.84330         0.677107      0.381003      0.129655
      0.91432      0.03607      3.99961        -0.481378      0.629417      0.290821
      0.75332      4.16077      4.03283         0.060317      0.206599     -0.536485
      0.90282      8.42115      3.91730        -0.073464      0.050514      0.030393
      5.00053      0.24620      4.10424         0.237463     -0.270895     -0.416539
      5.02378      4.36484      3.92828        -0.068657      0.340576     -0.136172
      4.99641      8.70830      4.02882         0.446132      0.003929     -0.063343
      2.76455      0.05976      7.09645         0.274690      0.047586      0.329115
     11.16861      8.32680      7.07416        -0.300940      0.407656      0.194993
     11.38536     10.56105      1.37152        -0.270463      0.067211      0.530979
      3.02958      2.10511      1.50805         0.009584      0.278562      0.464546
     10.94894      2.21063      1.58372         0.646427      0.470041     -0.035787
      9.23663      4.32697      4.09122        -0.462677      0.416016      0.675698
      0.64476      2.00130      9.55040         0.320179      0.577174      0.355703
      0.91825      6.43638      9.56117        -0.188883      0.216775      0.268998
      0.71314     10.53464      9.57208         0.249753     -0.298723      0.124251
      4.74495      2.13686      9.54800         0.418237     -0.018526     -0.008813
      4.98528      6.40419      9.61645        -0.240243      0.076452     -0.662309
      5.10581     10.49856      9.54755        -0.262258     -0.230872     -0.477530
      9.04959      2.40001      9.57047         0.292402     -0.245841     -0.075850
      9.14317      6.22199      9.54314        -0.303622      0.378427     -0.730712
      9.02226     10.54355      9.65170        -0.222083     -0.591758     -0.122982
      2.99703      6.53949      1.62831         0.132802      0.012927      0.214837
      2.76520     10.69111      1.54165         0.528707     -0.468323     -0.002420
      7.07542      2.33084      1.62604         0.083765     -0.004867      0.371144
      7.12278      6.67630      1.56771        -0.193791     -0.375174      0.173044
      6.98726     10.59554      1.51487         0.347795      0.064628      0.435537
     11.37566      6.36259      1.51574        -0.617734      0.170751     -0.694296
      9.39204      8.50723      4.02236        -0.608601     -0.030967      0.113417
 -----------------------------------------------------------------------------------
    total drift:                                0.000534      0.000095     -0.000035


--------------------------------------------------------------------------------------------------------



  FREE ENERGIE OF THE ION-ELECTRON SYSTEM (eV)
  ---------------------------------------------------
  free  energy   TOTEN  =      -300.53600021 eV

  energy  without entropy=     -300.53600021  energy(sigma->0) =     -300.53600021
 


--------------------------------------------------------------------------------------------------------


    POTLOK:  cpu time      0.7315: real time      0.7343


--------------------------------------------------------------------------------------------------------


     LOOP+:  cpu time    181.3031: real time    182.2924
    4ORBIT:  cpu time      0.0000: real time      0.0000



 total charge

# of ion       s       p       d       tot
------------------------------------------
    1        1.324   0.772   0.060   2.156
    2        1.314   0.786   0.060   2.161
    3        1.332   0.730   0.051   2.113
    4        1.335   0.715   0.048   2.098
    5        1.321   0.772   0.057   2.149
    6        1.320   0.778   0.058   2.157
    7        1.318   0.796   0.064   2.178
    8        1.343   0.712   0.052   2.108
    9        1.325   0.762   0.057   2.145
   10        1.315   0.814   0.065   2.194
   11        1.329   0.754   0.054   2.137
   12        1.323   0.756   0.054   2.133
   13        1.334   0.712   0.048   2.094
   14        1.338   0.717   0.053   2.108
   15        1.305   0.814   0.058   2.178
   16        1.342   0.684   0.045   2.071
   17        1.319   0.779   0.057   2.155
   18        1.332   0.724   0.049   2.105
   19        1.335   0.735   0.048   2.118
   20        1.329   0.734   0.051   2.114
   21        1.328   0.756   0.058   2.142
   22        1.323   0.761   0.053   2.137
   23        1.328   0.747   0.057   2.133
   24        1.317   0.765   0.054   2.135
   25        1.338   0.714   0.048   2.100
   26        1.301   0.827   0.064   2.192
   27        1.340   0.733   0.054   2.128
   28        1.329   0.756   0.056   2.141
   29        1.320   0.781   0.059   2.160
   30        1.322   0.778   0.057   2.157
   31        1.336   0.719   0.049   2.105
   32        1.325   0.767   0.058   2.149
   33        1.327   0.774   0.054   2.156
   34        1.326   0.760   0.055   2.140
   35        1.325   0.743   0.054   2.122
   36        1.328   0.769   0.054   2.151
   37        1.478   2.285   0.029   3.793
   38        1.478   2.326   0.041   3.844
   39        1.478   2.308   0.037   3.823
   40        1.478   2.292   0.031   3.801
   41        1.476   2.307   0.034   3.817
   42        1.479   2.295   0.032   3.806
   43        1.473   2.305   0.032   3.810
   44        1.474   2.325   0.034   3.832
   45        1.476   2.321   0.034   3.831
   46        1.476   2.278   0.024   3.778
   47        1.475   2.286   0.027   3.788
   48        1.479   2.270   0.027   3.776
   49        1.475   2.286   0.027   3.788
   50        1.480   2.314   0.040   3.834
   51        1.478   2.266   0.025   3.769
   52        1.482   2.275   0.029   3.785
   53        1.479   2.297   0.035   3.811
   54        1.478   2.290   0.028   3.796
   55        1.475   2.320   0.032   3.827
   56        1.475   2.329   0.040   3.844
   57        1.479   2.291   0.030   3.800
   58        1.476   2.299   0.032   3.808
   59        1.479   2.303   0.035   3.816
   60        1.478   2.289   0.030   3.798
   61        1.478   2.270   0.028   3.776
   62        1.478   2.298   0.033   3.810
   63        1.476   2.294   0.029   3.799
   64        1.480   2.264   0.026   3.770
   65        1.481   2.304   0.040   3.825
   66        1.476   2.305   0.033   3.813
   67        1.474   2.291   0.030   3.795
   68        1.476   2.283   0.027   3.786
   69        1.480   2.274   0.029   3.783
   70        1.481   2.290   0.033   3.803
   71        1.477   2.323   0.038   3.839
   72        1.480   2.285   0.032   3.797
--------------------------------------------------
tot        100.939 109.834   3.119 213.892



 magnetization (x)

# of ion       s       p       d       tot
------------------------------------------
    1       -0.000  -0.000  -0.000  -0.000
    2       -0.000   0.000   0.000   0.000
    3       -0.000   0.000   0.000   0.000
    4       -0.000   0.000   0.000   0.000
    5       -0.000   0.000   0.000   0.000
    6       -0.000  -0.000  -0.000  -0.000
    7       -0.000   0.000   0.000   0.000
    8       -0.000   0.000  -0.000   0.000
    9       -0.000  -0.000  -0.000  -0.000
   10       -0.000   0.000   0.000   0.000
   11       -0.000  -0.000  -0.000  -0.000
   12       -0.000   0.000   0.000   0.000
   13       -0.000   0.000   0.000   0.000
   14       -0.000   0.000   0.000   0.000
   15       -0.000   0.000  -0.000   0.000
   16       -0.000   0.000   0.000   0.000
   17       -0.000   0.000   0.000   0.000
   18       -0.000  -0.000  -0.000  -0.000
   19       -0.000   0.000   0.000   0.000
   20       -0.000   0.000   0.000   0.000
   21       -0.000  -0.000  -0.000  -0.000
   22        0.000  -0.000  -0.000  -0.000
   23       -0.000   0.000   0.000   0.000
   24       -0.000   0.000  -0.000   0.000
   25       -0.000   0.000   0.000   0.000
   26       -0.000   0.000  -0.000   0.000
   27       -0.000   0.000   0.000   0.000
   28       -0.000   0.000   0.000   0.000
   29       -0.000   0.000  -0.000   0.000
   30       -0.000   0.000   0.000   0.000
   31       -0.000  -0.000  -0.000  -0.000
   32       -0.000   0.000   0.000   0.000
   33       -0.000   0.000   0.000   0.000
   34       -0.000   0.000   0.000   0.000
   35       -0.000   0.000  -0.000  -0.000
   36       -0.000   0.000   0.000   0.000
   37       -0.000  -0.000  -0.000  -0.000
   38       -0.000  -0.000   0.000  -0.000
   39       -0.000  -0.000   0.000  -0.000
   40       -0.000  -0.000   0.000  -0.000
   41       -0.000  -0.000   0.000  -0.000
   42       -0.000  -0.000   0.000  -0.000
   43       -0.000  -0.000   0.000  -0.000
   44       -0.000  -0.000   0.000  -0.000
   45       -0.000  -0.000  -0.000  -0.000
   46       -0.000  -0.000  -0.000  -0.000
   47       -0.000  -0.000   0.000  -0.000
   48       -0.000  -0.000   0.000  -0.000
   49       -0.000  -0.000   0.000  -0.000
   50       -0.000  -0.000   0.000  -0.000
   51       -0.000  -0.000  -0.000  -0.000
   52       -0.000  -0.000   0.000  -0.000
   53       -0.000  -0.000   0.000  -0.000
   54       -0.000  -0.000  -0.000  -0.000
   55       -0.000  -0.000  -0.000  -0.000
   56       -0.000  -0.000   0.000  -0.000
   57       -0.000  -0.000  -0.000  -0.000
   58       -0.000  -0.000   0.000  -0.000
   59       -0.000  -0.000  -0.000  -0.000
   60       -0.000  -0.000  -0.000  -0.000
   61       -0.000  -0.000   0.000  -0.000
   62       -0.000  -0.000   0.000  -0.000
   63       -0.000  -0.000   0.000  -0.000
   64       -0.000  -0.000   0.000  -0.000
   65       -0.000  -0.000   0.000  -0.000
   66       -0.000  -0.000   0.000  -0.000
   67       -0.000  -0.000   0.000  -0.000
   68       -0.000  -0.000   0.000  -0.000
   69       -0.000  -0.000   0.000  -0.000
   70       -0.000  -0.000   0.000  -0.000
   71       -0.000  -0.000   0.000  -0.000
   72       -0.000  -0.000   0.000  -0.000
--------------------------------------------------
tot         -0.000  -0.000   0.000  -0.000
 

 total amount of memory used by VASP MPI-rank0   110605. kBytes
=======================================================================

   base      :      30000. kBytes
   nonl-proj :      16310. kBytes
   fftplans  :       6179. kBytes
   grid      :      15593. kBytes
   one-center:        146. kBytes
   wavefun   :      42377. kBytes
 
  
  
 General timing and accounting informations for this job:
 ========================================================
  
                  Total CPU time used (sec):      192.918
                            User time (sec):      186.852
                          System time (sec):        6.066
                         Elapsed time (sec):      194.981
  
                   Maximum memory used (kb):      308368.
                   Average memory used (kb):          N/A
  
                          Minor page faults:        99149
                          Major page faults:           87
                 Voluntary context switches:         2866
