 running  160 mpi-ranks, with    1 threads/rank, on   10 nodes
 distrk:  each k-point on   80 cores,    2 groups
 distr:  one band on    5 cores,   16 groups
 vasp.6.4.2 20Jul23 (build Oct 12 2023 10:31:02) complex                         
 POSCAR found type information on POSCAR GeSe
 POSCAR found :  2 types and       8 ions
 Reading from existing POTCAR
 scaLAPACK will be used
 Reading from existing POTCAR
 LDA part: xc-table for Pade appr. of Perdew
 POSCAR, INCAR and KPOINTS ok, starting setup
 FFT: planning ... GRIDC
 FFT: planning ... GRID_SOFT
 FFT: planning ... GRID
 WAVECAR not read
 entering main loop
       N       E                     dE             d eps       ncg     rms          rms(c)
DAV:   1     0.161811712583E+03    0.16181E+03   -0.15845E+04  2560   0.104E+03
DAV:   2    -0.225187563411E+02   -0.18433E+03   -0.17885E+03  3648   0.154E+02
DAV:   3    -0.338266760278E+02   -0.11308E+02   -0.11276E+02  3424   0.441E+01
DAV:   4    -0.339145307014E+02   -0.87855E-01   -0.87843E-01  3136   0.439E+00
DAV:   5    -0.339150747230E+02   -0.54402E-03   -0.54400E-03  3456   0.353E-01    0.652E+00
DAV:   6    -0.335599575031E+02    0.35512E+00   -0.73941E-01  3104   0.288E+00    0.410E+00
DAV:   7    -0.335458486302E+02    0.14109E-01   -0.21382E-01  3024   0.167E+00    0.125E+00
DAV:   8    -0.335449991851E+02    0.84945E-03   -0.18379E-02  2976   0.530E-01    0.181E-01
DAV:   9    -0.335453481350E+02   -0.34895E-03   -0.31434E-03  3296   0.248E-01    0.670E-02
DAV:  10    -0.335454541944E+02   -0.10606E-03   -0.26905E-04  3280   0.695E-02    0.242E-02
DAV:  11    -0.335454856651E+02   -0.31471E-04   -0.42326E-05  3072   0.295E-02    0.119E-02
DAV:  12    -0.335454866409E+02   -0.97579E-06   -0.58937E-06  3552   0.108E-02
   1 F= -.33545487E+02 E0= -.33545474E+02  d E =-.248504E-04
