 vasp.6.4.2 20Jul23 (build Oct 12 2023 10:31:02) complex                         
 executed on              LinuxNV date 2025.05.28  04:38:32
 running  128 mpi-ranks, with    1 threads/rank, on    2 nodes
 distrk:  each k-point on   64 cores,    2 groups
 distr:  one band on NCORE=   4 cores,   16 groups


--------------------------------------------------------------------------------------------------------


 INCAR:
   ENCUT = 360.000000
   SIGMA = 0.050000
   EDIFF = 1.00e-06
   ALGO = Normal
   GGA = PE
   PREC = Normal
   SYSTEM = ./
   ICHARG = 2
   ISMEAR = 0
   ISPIN = 1
   ISTART = 0
   ISYM = 0
   KPAR = 2
   LMAXMIX = 4
   NELM = 100
   NPAR = 16
   LASPH = .TRUE.
   LCHARG = .FALSE.
   LWAVE = .FALSE.

 POTCAR:    PAW_PBE Ge 05Jan2001                  
 POTCAR:    PAW_PBE Se 06Sep2000                  
 POTCAR:    PAW_PBE Ge 05Jan2001                  
   VRHFIN =Ge: s2p2                                                                                 
   LEXCH  = PE                                                                                      
   EATOM  =   104.9960 eV,    7.7170 Ry                                                             
                                                                                                    
   TITEL  = PAW_PBE Ge 05Jan2001                                                                    
   LULTRA =        F    use ultrasoft PP ?                                                          
   IUNSCR =        1    unscreen: 0-lin 1-nonlin 2-no                                               
   RPACOR =    2.170    partial core radius                                                         
   POMASS =   72.610; ZVAL   =    4.000    mass and valenz                                          
   RCORE  =    2.300    outmost cutoff radius                                                       
   RWIGS  =    2.300; RWIGS  =    1.217    wigner-seitz radius (au A)                               
   ENMAX  =  173.807; ENMIN  =  130.355 eV                                                          
   ICORE  =        3    local potential                                                             
   LCOR   =        T    correct aug charges                                                         
   LPAW   =        T    paw PP                                                                      
   EAUG   =  385.843                                                                                
   DEXC   =    0.000                                                                                
   RMAX   =    2.342    core radius for proj-oper                                                   
   RAUG   =    1.300    factor for augmentation sphere                                              
   RDEP   =    2.318    radius for radial grids                                                     
   RDEPT  =    2.103    core radius for aug-charge                                                  
                                                                                                    
   Atomic configuration                                                                             
   10 entries                                                                                       
     n  l   j            E        occ.                                                              
     1  0  0.50    -10959.8463   2.0000                                                             
     2  0  0.50     -1371.6056   2.0000                                                             
     2  1  1.50     -1198.4791   6.0000                                                             
     3  0  0.50      -168.4733   2.0000                                                             
     3  1  1.50      -115.6019   6.0000                                                             
     3  2  2.50       -29.3106  10.0000                                                             
     4  0  0.50       -11.7309   2.0000                                                             
     4  1  0.50        -3.8952   2.0000                                                             
     4  2  1.50        -4.0817   0.0000                                                             
     4  3  2.50        -4.0817   0.0000                                                             
   Description                                                                                      
     l       E           TYP  RCUT    TYP  RCUT                                                     
     0    -11.7309493     23  2.300                                                                 
     0     -7.4578696     23  2.300                                                                 
     1     -3.8952261     23  2.300                                                                 
     1      6.1178114     23  2.300                                                                 
     2     -4.0817478     23  2.300                                                                 
     3     -1.3605826      7  2.300                                                                 
  local pseudopotential read in
  partial core-charges read in
  partial kinetic energy density read in
  atomic valenz-charges read in
  non local Contribution for L=            0  read in
    real space projection operators read in
  non local Contribution for L=            0  read in
    real space projection operators read in
  non local Contribution for L=            1  read in
    real space projection operators read in
  non local Contribution for L=            1  read in
    real space projection operators read in
  non local Contribution for L=            2  read in
    real space projection operators read in
    PAW grid and wavefunctions read in
 
   number of l-projection  operators is LMAX  =            5
   number of lm-projection operators is LMMAX =           13
 
 POTCAR:    PAW_PBE Se 06Sep2000                  
   VRHFIN =Se: s2p4                                                                                 
   LEXCH  = PE                                                                                      
   EATOM  =   257.1286 eV,   18.8984 Ry                                                             
                                                                                                    
   TITEL  = PAW_PBE Se 06Sep2000                                                                    
   LULTRA =        F    use ultrasoft PP ?                                                          
   IUNSCR =        1    unscreen: 0-lin 1-nonlin 2-no                                               
   RPACOR =    1.900    partial core radius                                                         
   POMASS =   78.960; ZVAL   =    6.000    mass and valenz                                          
   RCORE  =    2.100    outmost cutoff radius                                                       
   RWIGS  =    2.200; RWIGS  =    1.164    wigner-seitz radius (au A)                               
   ENMAX  =  211.555; ENMIN  =  158.666 eV                                                          
   ICORE  =        3    local potential                                                             
   LCOR   =        T    correct aug charges                                                         
   LPAW   =        T    paw PP                                                                      
   EAUG   =  446.842                                                                                
   DEXC   =    0.000                                                                                
   RMAX   =    2.147    core radius for proj-oper                                                   
   RAUG   =    1.300    factor for augmentation sphere                                              
   RDEP   =    2.177    radius for radial grids                                                     
   RDEPT  =    1.928    core radius for aug-charge                                                  
                                                                                                    
   Atomic configuration                                                                             
   10 entries                                                                                       
     n  l   j            E        occ.                                                              
     1  0  0.50    -12503.4787   2.0000                                                             
     2  0  0.50     -1606.9547   2.0000                                                             
     2  1  1.50     -1413.3140   6.0000                                                             
     3  0  0.50      -213.4885   2.0000                                                             
     3  1  1.50      -152.9538   6.0000                                                             
     3  2  2.50       -53.1221  10.0000                                                             
     4  0  0.50       -17.2865   2.0000                                                             
     4  1  0.50        -6.5110   4.0000                                                             
     4  2  2.50        -6.8029   0.0000                                                             
     4  3  2.50        -6.8029   0.0000                                                             
   Description                                                                                      
     l       E           TYP  RCUT    TYP  RCUT                                                     
     0    -17.2865377     23  2.100                                                                 
     0    -15.3094411     23  2.100                                                                 
     1     -6.5110275     23  2.100                                                                 
     1     -0.0695192     23  2.100                                                                 
     2     -6.8029130     23  2.100                                                                 
     3     -1.3605826      7  2.100                                                                 
  local pseudopotential read in
  partial core-charges read in
  partial kinetic energy density read in
  atomic valenz-charges read in
  non local Contribution for L=            0  read in
    real space projection operators read in
  non local Contribution for L=            0  read in
    real space projection operators read in
  non local Contribution for L=            1  read in
    real space projection operators read in
  non local Contribution for L=            1  read in
    real space projection operators read in
  non local Contribution for L=            2  read in
    real space projection operators read in
    PAW grid and wavefunctions read in
 
   number of l-projection  operators is LMAX  =            5
   number of lm-projection operators is LMMAX =           13
 
  PAW_PBE Ge 05Jan2001                  :
 energy of atom  1       EATOM= -104.9960
 kinetic energy error for atom=    0.0005 (will be added to EATOM!!)
  PAW_PBE Se 06Sep2000                  :
 energy of atom  2       EATOM= -257.1286
 kinetic energy error for atom=    0.0030 (will be added to EATOM!!)
 
 
 POSCAR: Ge Se
  positions in cartesian coordinates
  No initial velocities read in
 exchange correlation table for  LEXCH =        8
   RHO(1)=    0.500       N(1)  =     2000
   RHO(2)=  100.500       N(2)  =     4000
 


--------------------------------------------------------------------------------------------------------


 ion  position               nearest neighbor table
   1  0.101  0.250  0.122-   6 2.57   6 2.57   5 2.61
   2  0.601  0.750  0.378-   5 2.57   5 2.57   6 2.61
   3  0.899  0.750  0.878-   8 2.57   8 2.57   7 2.61
   4  0.399  0.250  0.622-   7 2.57   7 2.57   8 2.61
   5  0.020  0.250  0.355-   2 2.57   2 2.57   1 2.61
   6  0.520  0.750  0.145-   1 2.57   1 2.57   2 2.61
   7  0.980  0.750  0.645-   4 2.57   4 2.57   3 2.61
   8  0.480  0.250  0.855-   3 2.57   3 2.57   4 2.61
 

IMPORTANT INFORMATION: All symmetrisations will be switched off!
NOSYMM: (Re-)initialisation of all symmetry stuff for point group C_1.


----------------------------------------------------------------------------------------

                                     Primitive cell                                     

  volume of cell :     173.4008

  direct lattice vectors                    reciprocal lattice vectors
     4.150000000  0.000000000  0.000000000     0.240963855  0.000000000  0.000000000
     0.000000000  3.750000000  0.000000000     0.000000000  0.266666667  0.000000000
     0.000000000  0.000000000 11.142221000     0.000000000  0.000000000  0.089748713

  length of vectors
     4.150000000  3.750000000 11.142221000     0.240963855  0.266666667  0.089748713

  position of ions in fractional coordinates (direct lattice)
     0.101083855  0.250000000  0.122425609
     0.601083855  0.750000000  0.377574391
     0.898916145  0.750000000  0.877574391
     0.398916145  0.250000000  0.622425609
     0.020165270  0.250000000  0.355109905
     0.520165270  0.750000000  0.144890095
     0.979834730  0.750000000  0.644890095
     0.479834730  0.250000000  0.855109905

  ion indices of the primitive-cell ions
   primitive index   ion index
                 1           1
                 2           2
                 3           3
                 4           4
                 5           5
                 6           6
                 7           7
                 8           8

----------------------------------------------------------------------------------------

 
 
 KPOINTS: KPOINTS created by Atomic Simulation Env

Automatic generation of k-mesh.
 Grid dimensions read from file:
 generate k-points for:    6    6    2

 Generating k-lattice:

  Cartesian coordinates                     Fractional coordinates (reciprocal lattice)
     0.040160643  0.000000000  0.000000000     0.166666667  0.000000000  0.000000000
     0.000000000  0.044444444  0.000000000     0.000000000  0.166666667  0.000000000
     0.000000000  0.000000000  0.044874357     0.000000000  0.000000000  0.500000000

  Length of vectors
     0.040160643  0.044444444  0.044874357

  Shift w.r.t. Gamma in fractional coordinates (k-lattice)
     0.000000000  0.000000000  0.000000000

 
 Subroutine IBZKPT returns following result:
 ===========================================
 
 Found     40 irreducible k-points:
 
 Following reciprocal coordinates:
            Coordinates               Weight
  0.000000  0.000000  0.000000      1.000000
  0.166667  0.000000  0.000000      2.000000
  0.333333  0.000000  0.000000      2.000000
  0.500000  0.000000  0.000000      1.000000
  0.000000  0.166667  0.000000      2.000000
  0.166667  0.166667  0.000000      2.000000
 -0.166667  0.166667  0.000000      2.000000
  0.333333  0.166667  0.000000      2.000000
 -0.333333  0.166667  0.000000      2.000000
  0.500000  0.166667  0.000000      2.000000
  0.000000  0.333333  0.000000      2.000000
  0.166667  0.333333  0.000000      2.000000
 -0.166667  0.333333  0.000000      2.000000
  0.333333  0.333333  0.000000      2.000000
 -0.333333  0.333333  0.000000      2.000000
  0.500000  0.333333  0.000000      2.000000
  0.000000  0.500000  0.000000      1.000000
  0.166667  0.500000  0.000000      2.000000
  0.333333  0.500000  0.000000      2.000000
  0.500000  0.500000  0.000000      1.000000
  0.000000  0.000000  0.500000      1.000000
  0.166667  0.000000  0.500000      2.000000
  0.333333  0.000000  0.500000      2.000000
  0.500000  0.000000  0.500000      1.000000
  0.000000  0.166667  0.500000      2.000000
  0.166667  0.166667  0.500000      2.000000
 -0.166667  0.166667  0.500000      2.000000
  0.333333  0.166667  0.500000      2.000000
 -0.333333  0.166667  0.500000      2.000000
  0.500000  0.166667  0.500000      2.000000
  0.000000  0.333333  0.500000      2.000000
  0.166667  0.333333  0.500000      2.000000
 -0.166667  0.333333  0.500000      2.000000
  0.333333  0.333333  0.500000      2.000000
 -0.333333  0.333333  0.500000      2.000000
  0.500000  0.333333  0.500000      2.000000
  0.000000  0.500000  0.500000      1.000000
  0.166667  0.500000  0.500000      2.000000
  0.333333  0.500000  0.500000      2.000000
  0.500000  0.500000  0.500000      1.000000
 
 Following cartesian coordinates:
            Coordinates               Weight
  0.000000  0.000000  0.000000      1.000000
  0.040161  0.000000  0.000000      2.000000
  0.080321  0.000000  0.000000      2.000000
  0.120482  0.000000  0.000000      1.000000
  0.000000  0.044444  0.000000      2.000000
  0.040161  0.044444  0.000000      2.000000
 -0.040161  0.044444  0.000000      2.000000
  0.080321  0.044444  0.000000      2.000000
 -0.080321  0.044444  0.000000      2.000000
  0.120482  0.044444  0.000000      2.000000
  0.000000  0.088889  0.000000      2.000000
  0.040161  0.088889  0.000000      2.000000
 -0.040161  0.088889  0.000000      2.000000
  0.080321  0.088889  0.000000      2.000000
 -0.080321  0.088889  0.000000      2.000000
  0.120482  0.088889  0.000000      2.000000
  0.000000  0.133333  0.000000      1.000000
  0.040161  0.133333  0.000000      2.000000
  0.080321  0.133333  0.000000      2.000000
  0.120482  0.133333  0.000000      1.000000
  0.000000  0.000000  0.044874      1.000000
  0.040161  0.000000  0.044874      2.000000
  0.080321  0.000000  0.044874      2.000000
  0.120482  0.000000  0.044874      1.000000
  0.000000  0.044444  0.044874      2.000000
  0.040161  0.044444  0.044874      2.000000
 -0.040161  0.044444  0.044874      2.000000
  0.080321  0.044444  0.044874      2.000000
 -0.080321  0.044444  0.044874      2.000000
  0.120482  0.044444  0.044874      2.000000
  0.000000  0.088889  0.044874      2.000000
  0.040161  0.088889  0.044874      2.000000
 -0.040161  0.088889  0.044874      2.000000
  0.080321  0.088889  0.044874      2.000000
 -0.080321  0.088889  0.044874      2.000000
  0.120482  0.088889  0.044874      2.000000
  0.000000  0.133333  0.044874      1.000000
  0.040161  0.133333  0.044874      2.000000
  0.080321  0.133333  0.044874      2.000000
  0.120482  0.133333  0.044874      1.000000
 


--------------------------------------------------------------------------------------------------------




 Dimension of arrays:
   k-points           NKPTS =     40   k-points in BZ     NKDIM =     40   number of bands    NBANDS=     32
   number of dos      NEDOS =    301   number of ions     NIONS =      8
   non local maximal  LDIM  =      5   non local SUM 2l+1 LMDIM =     13
   total plane-waves  NPLWV =  19440
   max r-space proj   IRMAX =      1   max aug-charges    IRDMAX=   6292
   dimension x,y,z NGX =    20 NGY =   18 NGZ =   54
   dimension x,y,z NGXF=    40 NGYF=   36 NGZF=  108
   support grid    NGXF=    40 NGYF=   36 NGZF=  108
   ions per type =               4   4
   NGX,Y,Z   is equivalent  to a cutoff of   8.01,  7.98,  8.06 a.u.
   NGXF,Y,Z  is equivalent  to a cutoff of  16.02, 15.96, 16.11 a.u.

 SYSTEM =  ./                                      
 POSCAR =  Ge Se                                   

 Startparameter for this run:
   NWRITE =      2    write-flag & timer
   PREC   = normal    normal or accurate (medium, high low for compatibility)
   ISTART =      0    job   : 0-new  1-cont  2-samecut
   ICHARG =      2    charge: 1-file 2-atom 10-const
   ISPIN  =      1    spin polarized calculation?
   LNONCOLLINEAR =      F non collinear calculations
   LSORBIT =      F    spin-orbit coupling
   INIWAV =      1    electr: 0-lowe 1-rand  2-diag
   LASPH  =      T    aspherical Exc in radial PAW
 Electronic Relaxation 1
   ENCUT  =  360.0 eV  26.46 Ry    5.14 a.u.   6.42  5.80 17.24*2*pi/ulx,y,z
   ENINI  =  360.0     initial cutoff
   ENAUG  =  446.8 eV  augmentation charge cutoff
   NELM   =    100;   NELMIN=  2; NELMDL= -5     # of ELM steps 
   EDIFF  = 0.1E-05   stopping-criterion for ELM
   LREAL  =      F    real-space projection
   NLSPLINE    = F    spline interpolate recip. space projectors
   LCOMPAT=      F    compatible to vasp.4.4
   GGA_COMPAT  = T    GGA compatible to vasp.4.4-vasp.4.6
   LMAXPAW     = -100 max onsite density
   LMAXMIX     =    4 max onsite mixed and CHGCAR
   VOSKOWN=      0    Vosko Wilk Nusair interpolation
   ROPT   =    0.00000   0.00000
 Ionic relaxation
   EDIFFG = 0.1E-04   stopping-criterion for IOM
   NSW    =      0    number of steps for IOM
   NBLOCK =      1;   KBLOCK =      1    inner block; outer block 
   IBRION =     -1    ionic relax: 0-MD 1-quasi-New 2-CG
   NFREE  =      0    steps in history (QN), initial steepest desc. (CG)
   ISIF   =      2    stress and relaxation
   IWAVPR =     10    prediction:  0-non 1-charg 2-wave 3-comb
   ISYM   =      0    0-nonsym 1-usesym 2-fastsym
   LCORR  =      T    Harris-Foulkes like correction to forces

   POTIM  = 0.5000    time-step for ionic-motion
   TEIN   =    0.0    initial temperature
   TEBEG  =    0.0;   TEEND  =   0.0 temperature during run
   SMASS  =  -3.00    Nose mass-parameter (am)
   estimated Nose-frequenzy (Omega)   =  0.10E-29 period in steps = 0.13E+47 mass=  -0.394E-27a.u.
   SCALEE = 1.0000    scale energy and forces
   NPACO  =    256;   APACO  = 10.0  distance and # of slots for P.C.
   PSTRESS=    0.0 pullay stress

  Mass of Ions in am
   POMASS =  72.61 78.96
  Ionic Valenz
   ZVAL   =   4.00  6.00
  Atomic Wigner-Seitz radii
   RWIGS  =  -1.00 -1.00
  virtual crystal weights 
   VCA    =   1.00  1.00
   NELECT =      40.0000    total number of electrons
   NUPDOWN=      -1.0000    fix difference up-down

 DOS related values:
   EMIN   =  10.00;   EMAX   =-10.00  energy-range for DOS
   EFERMI =   0.00;   METHOD = LEGACY      
   ISMEAR =     0;   SIGMA  =   0.05  broadening in eV -4-tet -1-fermi 0-gaus

 Electronic relaxation 2 (details)
   IALGO  =     38    algorithm
   LDIAG  =      T    sub-space diagonalisation (order eigenvalues)
   LSUBROT=      F    optimize rotation matrix (better conditioning)
   TURBO    =      0    0=normal 1=particle mesh
   IRESTART =      0    0=no restart 2=restart with 2 vectors
   NREBOOT  =      0    no. of reboots
   NMIN     =      0    reboot dimension
   EREF     =   0.00    reference energy to select bands
   IMIX   =      4    mixing-type and parameters
     AMIX     =   0.40;   BMIX     =  1.00
     AMIX_MAG =   1.60;   BMIX_MAG =  1.00
     AMIN     =   0.10
     WC   =   100.;   INIMIX=   1;  MIXPRE=   1;  MAXMIX= -45

 Intra band minimization:
   WEIMIN = 0.0000     energy-eigenvalue tresh-hold
   EBREAK =  0.78E-08  absolut break condition
   DEPER  =   0.30     relativ break condition  

   TIME   =   0.40     timestep for ELM

  volume/ion in A,a.u.               =      21.68       146.27
  Fermi-wavevector in a.u.,A,eV,Ry     =   1.004025  1.897332 13.715569  1.008066
  Thomas-Fermi vector in A             =   2.136614
 
 Write flags
   LWAVE        =      F    write WAVECAR
   LDOWNSAMPLE  =      F    k-point downsampling of WAVECAR
   LCHARG       =      F    write CHGCAR
   LVTOT        =      F    write LOCPOT, total local potential
   LVHAR        =      F    write LOCPOT, Hartree potential only
   LELF         =      F    write electronic localiz. function (ELF)
   LORBIT       =      0    0 simple, 1 ext, 2 COOP (PROOUT), +10 PAW based schemes


 Dipole corrections
   LMONO  =      F    monopole corrections only (constant potential shift)
   LDIPOL =      F    correct potential (dipole corrections)
   IDIPOL =      0    1-x, 2-y, 3-z, 4-all directions 
   EPSILON=  1.0000000 bulk dielectric constant

 Exchange correlation treatment:
   GGA     =    PE    GGA type
   LEXCH   =     8    internal setting for exchange type
   LIBXC   =     F    Libxc                    
   VOSKOWN =     0    Vosko Wilk Nusair interpolation
   LHFCALC =     F    Hartree Fock is set to
   LHFONE  =     F    Hartree Fock one center treatment
   AEXX    =    0.0000 exact exchange contribution

 Linear response parameters
   LEPSILON=     F    determine dielectric tensor
   LRPA    =     F    only Hartree local field effects (RPA)
   LNABLA  =     F    use nabla operator in PAW spheres
   LVEL    =     F    velocity operator in full k-point grid
   CSHIFT  =0.1000    complex shift for real part using Kramers Kronig
   OMEGAMAX=  -1.0    maximum frequency
   DEG_THRESHOLD= 0.2000000E-02 threshold for treating states as degnerate
   RTIME   =   -0.100 relaxation time in fs
  (WPLASMAI=    0.000 imaginary part of plasma frequency in eV, 0.658/RTIME)
   DFIELD  = 0.0000000 0.0000000 0.0000000 field for delta impulse in time
 
  Optional k-point grid parameters
   LKPOINTS_OPT  =     F    use optional k-point grid
   KPOINTS_OPT_MODE=     1    mode for optional k-point grid
 
 Orbital magnetization related:
   ORBITALMAG=     F  switch on orbital magnetization
   LCHIMAG   =     F  perturbation theory with respect to B field
   DQ        =  0.001000  dq finite difference perturbation B field
   LLRAUG    =     F  two centre corrections for induced B field
   LBONE     =     F  B-component reconstruction in AE one-centre
   LVGVCALC  =     T  calculate vGv susceptibility
   LVGVAPPL  =     F  apply vGv susceptibility instead of pGv for G=0

 Random number generation:
   RANDOM_GENERATOR = DEFAULT
   PCG_SEED         = not used


--------------------------------------------------------------------------------------------------------


 Static calculation
 charge density and potential will be updated during run
 non-spin polarized calculation
 Variant of blocked Davidson
 Davidson routine will perform the subspace rotation
 perform sub-space diagonalisation
    after iterative eigenvector-optimisation
 modified Broyden-mixing scheme, WC =      100.0
 initial mixing is a Kerker type mixing with AMIX =  0.4000 and BMIX =      1.0000
 Hartree-type preconditioning will be used
 using additional bands            12
 reciprocal scheme for non local part
 use partial core corrections
 calculate Harris-corrections to forces 
   (improved forces if not selfconsistent)
 use gradient corrections 
 use of overlap-Matrix (Vanderbilt PP)
 Gauss-broadening in eV      SIGMA  =   0.05


--------------------------------------------------------------------------------------------------------


  energy-cutoff  :      360.00
  volume of cell :      173.40
      direct lattice vectors                 reciprocal lattice vectors
     4.150000000  0.000000000  0.000000000     0.240963855  0.000000000  0.000000000
     0.000000000  3.750000000  0.000000000     0.000000000  0.266666667  0.000000000
     0.000000000  0.000000000 11.142221000     0.000000000  0.000000000  0.089748713

  length of vectors
     4.150000000  3.750000000 11.142221000     0.240963855  0.266666667  0.089748713


 
 k-points in units of 2pi/SCALE and weight: KPOINTS created by Atomic Simulation Env
   0.00000000  0.00000000  0.00000000       0.014
   0.04016064  0.00000000  0.00000000       0.028
   0.08032129  0.00000000  0.00000000       0.028
   0.12048193  0.00000000  0.00000000       0.014
   0.00000000  0.04444444  0.00000000       0.028
   0.04016064  0.04444444  0.00000000       0.028
  -0.04016064  0.04444444  0.00000000       0.028
   0.08032129  0.04444444  0.00000000       0.028
  -0.08032129  0.04444444  0.00000000       0.028
   0.12048193  0.04444444  0.00000000       0.028
   0.00000000  0.08888889  0.00000000       0.028
   0.04016064  0.08888889  0.00000000       0.028
  -0.04016064  0.08888889  0.00000000       0.028
   0.08032129  0.08888889  0.00000000       0.028
  -0.08032129  0.08888889  0.00000000       0.028
   0.12048193  0.08888889  0.00000000       0.028
   0.00000000  0.13333333  0.00000000       0.014
   0.04016064  0.13333333  0.00000000       0.028
   0.08032129  0.13333333  0.00000000       0.028
   0.12048193  0.13333333  0.00000000       0.014
   0.00000000  0.00000000  0.04487436       0.014
   0.04016064  0.00000000  0.04487436       0.028
   0.08032129  0.00000000  0.04487436       0.028
   0.12048193  0.00000000  0.04487436       0.014
   0.00000000  0.04444444  0.04487436       0.028
   0.04016064  0.04444444  0.04487436       0.028
  -0.04016064  0.04444444  0.04487436       0.028
   0.08032129  0.04444444  0.04487436       0.028
  -0.08032129  0.04444444  0.04487436       0.028
   0.12048193  0.04444444  0.04487436       0.028
   0.00000000  0.08888889  0.04487436       0.028
   0.04016064  0.08888889  0.04487436       0.028
  -0.04016064  0.08888889  0.04487436       0.028
   0.08032129  0.08888889  0.04487436       0.028
  -0.08032129  0.08888889  0.04487436       0.028
   0.12048193  0.08888889  0.04487436       0.028
   0.00000000  0.13333333  0.04487436       0.014
   0.04016064  0.13333333  0.04487436       0.028
   0.08032129  0.13333333  0.04487436       0.028
   0.12048193  0.13333333  0.04487436       0.014
 
 k-points in reciprocal lattice and weights: KPOINTS created by Atomic Simulation Env
   0.00000000  0.00000000  0.00000000       0.014
   0.16666667  0.00000000  0.00000000       0.028
   0.33333333  0.00000000  0.00000000       0.028
   0.50000000  0.00000000  0.00000000       0.014
   0.00000000  0.16666667  0.00000000       0.028
   0.16666667  0.16666667  0.00000000       0.028
  -0.16666667  0.16666667  0.00000000       0.028
   0.33333333  0.16666667  0.00000000       0.028
  -0.33333333  0.16666667  0.00000000       0.028
   0.50000000  0.16666667  0.00000000       0.028
   0.00000000  0.33333333  0.00000000       0.028
   0.16666667  0.33333333  0.00000000       0.028
  -0.16666667  0.33333333  0.00000000       0.028
   0.33333333  0.33333333  0.00000000       0.028
  -0.33333333  0.33333333  0.00000000       0.028
   0.50000000  0.33333333  0.00000000       0.028
   0.00000000  0.50000000  0.00000000       0.014
   0.16666667  0.50000000  0.00000000       0.028
   0.33333333  0.50000000  0.00000000       0.028
   0.50000000  0.50000000  0.00000000       0.014
   0.00000000  0.00000000  0.50000000       0.014
   0.16666667  0.00000000  0.50000000       0.028
   0.33333333  0.00000000  0.50000000       0.028
   0.50000000  0.00000000  0.50000000       0.014
   0.00000000  0.16666667  0.50000000       0.028
   0.16666667  0.16666667  0.50000000       0.028
  -0.16666667  0.16666667  0.50000000       0.028
   0.33333333  0.16666667  0.50000000       0.028
  -0.33333333  0.16666667  0.50000000       0.028
   0.50000000  0.16666667  0.50000000       0.028
   0.00000000  0.33333333  0.50000000       0.028
   0.16666667  0.33333333  0.50000000       0.028
  -0.16666667  0.33333333  0.50000000       0.028
   0.33333333  0.33333333  0.50000000       0.028
  -0.33333333  0.33333333  0.50000000       0.028
   0.50000000  0.33333333  0.50000000       0.028
   0.00000000  0.50000000  0.50000000       0.014
   0.16666667  0.50000000  0.50000000       0.028
   0.33333333  0.50000000  0.50000000       0.028
   0.50000000  0.50000000  0.50000000       0.014
 
 position of ions in fractional coordinates (direct lattice) 
   0.10108386  0.25000000  0.12242561
   0.60108386  0.75000000  0.37757439
   0.89891614  0.75000000  0.87757439
   0.39891614  0.25000000  0.62242561
   0.02016527  0.25000000  0.35510990
   0.52016527  0.75000000  0.14489010
   0.97983473  0.75000000  0.64489010
   0.47983473  0.25000000  0.85510990
 
 position of ions in cartesian coordinates  (Angst):
   0.41949800  0.93750000  1.36409319
   2.49449800  2.81250000  4.20701731
   3.73050200  2.81250000  9.77812781
   1.65550200  0.93750000  6.93520369
   0.08368587  0.93750000  3.95671304
   2.15868587  2.81250000  1.61439746
   4.06631413  2.81250000  7.18550796
   1.99131413  0.93750000  9.52782354
 


--------------------------------------------------------------------------------------------------------


 k-point   1 :   0.0000 0.0000 0.0000  plane waves:    2725
 k-point   2 :   0.1667 0.0000 0.0000  plane waves:    2707
 k-point   3 :   0.3333 0.0000 0.0000  plane waves:    2667
 k-point   4 :   0.5000 0.0000 0.0000  plane waves:    2664
 k-point   5 :   0.0000 0.1667 0.0000  plane waves:    2697
 k-point   6 :   0.1667 0.1667 0.0000  plane waves:    2690
 k-point   7 :  -0.1667 0.1667 0.0000  plane waves:    2690
 k-point   8 :   0.3333 0.1667 0.0000  plane waves:    2674
 k-point   9 :  -0.3333 0.1667 0.0000  plane waves:    2674
 k-point  10 :   0.5000 0.1667 0.0000  plane waves:    2658
 k-point  11 :   0.0000 0.3333 0.0000  plane waves:    2708
 k-point  12 :   0.1667 0.3333 0.0000  plane waves:    2693
 k-point  13 :  -0.1667 0.3333 0.0000  plane waves:    2693
 k-point  14 :   0.3333 0.3333 0.0000  plane waves:    2688
 k-point  15 :  -0.3333 0.3333 0.0000  plane waves:    2688
 k-point  16 :   0.5000 0.3333 0.0000  plane waves:    2692
 k-point  17 :   0.0000 0.5000 0.0000  plane waves:    2692
 k-point  18 :   0.1667 0.5000 0.0000  plane waves:    2694
 k-point  19 :   0.3333 0.5000 0.0000  plane waves:    2702
 k-point  20 :   0.5000 0.5000 0.0000  plane waves:    2700
 k-point  21 :   0.0000 0.0000 0.5000  plane waves:    2686
 k-point  22 :   0.1667 0.0000 0.5000  plane waves:    2704
 k-point  23 :   0.3333 0.0000 0.5000  plane waves:    2690
 k-point  24 :   0.5000 0.0000 0.5000  plane waves:    2668
 k-point  25 :   0.0000 0.1667 0.5000  plane waves:    2690
 k-point  26 :   0.1667 0.1667 0.5000  plane waves:    2694
 k-point  27 :  -0.1667 0.1667 0.5000  plane waves:    2694
 k-point  28 :   0.3333 0.1667 0.5000  plane waves:    2682
 k-point  29 :  -0.3333 0.1667 0.5000  plane waves:    2682
 k-point  30 :   0.5000 0.1667 0.5000  plane waves:    2668
 k-point  31 :   0.0000 0.3333 0.5000  plane waves:    2704
 k-point  32 :   0.1667 0.3333 0.5000  plane waves:    2688
 k-point  33 :  -0.1667 0.3333 0.5000  plane waves:    2688
 k-point  34 :   0.3333 0.3333 0.5000  plane waves:    2700
 k-point  35 :  -0.3333 0.3333 0.5000  plane waves:    2700
 k-point  36 :   0.5000 0.3333 0.5000  plane waves:    2680
 k-point  37 :   0.0000 0.5000 0.5000  plane waves:    2704
 k-point  38 :   0.1667 0.5000 0.5000  plane waves:    2696
 k-point  39 :   0.3333 0.5000 0.5000  plane waves:    2696
 k-point  40 :   0.5000 0.5000 0.5000  plane waves:    2696

 maximum and minimum number of plane-waves per node :       710      650

 maximum number of plane-waves:      2725
 maximum index in each direction: 
   IXMAX=    6   IYMAX=    5   IZMAX=   17
   IXMIN=   -6   IYMIN=   -6   IZMIN=  -17


 parallel 3D FFT for wavefunctions:
    minimum data exchange during FFTs selected (reduces bandwidth)
 parallel 3D FFT for charge:
    minimum data exchange during FFTs selected (reduces bandwidth)


 total amount of memory used by VASP MPI-rank0    37453. kBytes
=======================================================================

   base      :      30000. kBytes
   nonl-proj :       5812. kBytes
   fftplans  :        288. kBytes
   grid      :        416. kBytes
   one-center:         16. kBytes
   wavefun   :        921. kBytes
 
     INWAV:  cpu time      0.0000: real time      0.0001
 Broyden mixing: mesh for mixing (old mesh)
   NGX = 13   NGY = 11   NGZ = 35
  (NGX  = 40   NGY  = 36   NGZ  =108)
  gives a total of   5005 points

 initial charge density was supplied:
 charge density of overlapping atoms calculated
 number of electron      40.0000000 magnetization 
 keeping initial charge density in first step


--------------------------------------------------------------------------------------------------------


 Maximum index for augmentation-charges           347 (set IRDMAX)


--------------------------------------------------------------------------------------------------------


 First call to EWALD:  gamma=   0.318
 Maximum number of real-space cells 4x 4x 2
 Maximum number of reciprocal cells 2x 2x 5

    FEWALD:  cpu time      0.0008: real time      0.0008


--------------------------------------- Ionic step        1  -------------------------------------------




--------------------------------------- Iteration      1(   1)  ---------------------------------------


    POTLOK:  cpu time      0.0057: real time      0.0060
    SETDIJ:  cpu time      0.1378: real time      0.1383
     EDDAV:  cpu time      0.2625: real time      0.2649
       DOS:  cpu time      0.0017: real time      0.0017
    --------------------------------------------
      LOOP:  cpu time      0.4077: real time      0.4109

 eigenvalue-minimisations  :  2560
 total energy-change (2. order) : 0.1285789E+03  (-0.1313563E+04)
 number of electron      40.0000000 magnetization 
 augmentation part       40.0000000 magnetization 

 Free energy of the ion-electron system (eV)
  ---------------------------------------------------
  alpha Z        PSCENC =        97.71837293
  Ewald energy   TEWEN  =     -1487.11300511
  -Hartree energ DENC   =      -104.11687496
  -exchange      EXHF   =         0.00000000
  -V(xc)+E(xc)   XCENC  =       -32.01634781
  PAW double counting   =      1193.78262552    -1080.73714043
  entropy T*S    EENTRO =        -0.00359939
  eigenvalues    EBANDS =        92.58026733
  atomic energy  EATOM  =      1448.48460880
  Solvation  Ediel_sol  =         0.00000000
  ---------------------------------------------------
  free energy    TOTEN  =       128.57890688 eV

  energy without entropy =      128.58250627  energy(sigma->0) =      128.58070658


--------------------------------------------------------------------------------------------------------




--------------------------------------- Iteration      1(   2)  ---------------------------------------


     EDDAV:  cpu time      0.3150: real time      0.3177
       DOS:  cpu time      0.0010: real time      0.0010
    --------------------------------------------
      LOOP:  cpu time      0.3160: real time      0.3187

 eigenvalue-minimisations  :  3744
 total energy-change (2. order) :-0.1544794E+03  (-0.1495397E+03)
 number of electron      40.0000000 magnetization 
 augmentation part       40.0000000 magnetization 

 Free energy of the ion-electron system (eV)
  ---------------------------------------------------
  alpha Z        PSCENC =        97.71837293
  Ewald energy   TEWEN  =     -1487.11300511
  -Hartree energ DENC   =      -104.11687496
  -exchange      EXHF   =         0.00000000
  -V(xc)+E(xc)   XCENC  =       -32.01634781
  PAW double counting   =      1193.78262552    -1080.73714043
  entropy T*S    EENTRO =        -0.00005889
  eigenvalues    EBANDS =       -61.90267014
  atomic energy  EATOM  =      1448.48460880
  Solvation  Ediel_sol  =         0.00000000
  ---------------------------------------------------
  free energy    TOTEN  =       -25.90049008 eV

  energy without entropy =      -25.90043120  energy(sigma->0) =      -25.90046064


--------------------------------------------------------------------------------------------------------




--------------------------------------- Iteration      1(   3)  ---------------------------------------


     EDDAV:  cpu time      0.2836: real time      0.2865
       DOS:  cpu time      0.0010: real time      0.0010
    --------------------------------------------
      LOOP:  cpu time      0.2845: real time      0.2875

 eigenvalue-minimisations  :  3216
 total energy-change (2. order) :-0.7834490E+01  (-0.7813592E+01)
 number of electron      40.0000000 magnetization 
 augmentation part       40.0000000 magnetization 

 Free energy of the ion-electron system (eV)
  ---------------------------------------------------
  alpha Z        PSCENC =        97.71837293
  Ewald energy   TEWEN  =     -1487.11300511
  -Hartree energ DENC   =      -104.11687496
  -exchange      EXHF   =         0.00000000
  -V(xc)+E(xc)   XCENC  =       -32.01634781
  PAW double counting   =      1193.78262552    -1080.73714043
  entropy T*S    EENTRO =        -0.00086424
  eigenvalues    EBANDS =       -69.73635454
  atomic energy  EATOM  =      1448.48460880
  Solvation  Ediel_sol  =         0.00000000
  ---------------------------------------------------
  free energy    TOTEN  =       -33.73497985 eV

  energy without entropy =      -33.73411560  energy(sigma->0) =      -33.73454773


--------------------------------------------------------------------------------------------------------




--------------------------------------- Iteration      1(   4)  ---------------------------------------


     EDDAV:  cpu time      0.2952: real time      0.2979
       DOS:  cpu time      0.0009: real time      0.0009
    --------------------------------------------
      LOOP:  cpu time      0.2961: real time      0.2989

 eigenvalue-minimisations  :  3248
 total energy-change (2. order) :-0.4579773E-01  (-0.4578846E-01)
 number of electron      40.0000000 magnetization 
 augmentation part       40.0000000 magnetization 

 Free energy of the ion-electron system (eV)
  ---------------------------------------------------
  alpha Z        PSCENC =        97.71837293
  Ewald energy   TEWEN  =     -1487.11300511
  -Hartree energ DENC   =      -104.11687496
  -exchange      EXHF   =         0.00000000
  -V(xc)+E(xc)   XCENC  =       -32.01634781
  PAW double counting   =      1193.78262552    -1080.73714043
  entropy T*S    EENTRO =        -0.00083212
  eigenvalues    EBANDS =       -69.78218439
  atomic energy  EATOM  =      1448.48460880
  Solvation  Ediel_sol  =         0.00000000
  ---------------------------------------------------
  free energy    TOTEN  =       -33.78077758 eV

  energy without entropy =      -33.77994546  energy(sigma->0) =      -33.78036152


--------------------------------------------------------------------------------------------------------




--------------------------------------- Iteration      1(   5)  ---------------------------------------


     EDDAV:  cpu time      0.2927: real time      0.2955
       DOS:  cpu time      0.0010: real time      0.0010
    CHARGE:  cpu time      0.0037: real time      0.0038
    MIXING:  cpu time      0.0006: real time      0.0006
    --------------------------------------------
      LOOP:  cpu time      0.2981: real time      0.3009

 eigenvalue-minimisations  :  3200
 total energy-change (2. order) :-0.2644214E-03  (-0.2643938E-03)
 number of electron      39.9999950 magnetization 
 augmentation part       -7.4093897 magnetization 

 Broyden mixing:
  rms(total) = 0.69339E+00    rms(broyden)= 0.69338E+00
  rms(prec ) = 0.75798E+00
  weight for this iteration     100.00

 Free energy of the ion-electron system (eV)
  ---------------------------------------------------
  alpha Z        PSCENC =        97.71837293
  Ewald energy   TEWEN  =     -1487.11300511
  -Hartree energ DENC   =      -104.11687496
  -exchange      EXHF   =         0.00000000
  -V(xc)+E(xc)   XCENC  =       -32.01634781
  PAW double counting   =      1193.78262552    -1080.73714043
  entropy T*S    EENTRO =        -0.00083209
  eigenvalues    EBANDS =       -69.78244885
  atomic energy  EATOM  =      1448.48460880
  Solvation  Ediel_sol  =         0.00000000
  ---------------------------------------------------
  free energy    TOTEN  =       -33.78104200 eV

  energy without entropy =      -33.78020992  energy(sigma->0) =      -33.78062596


--------------------------------------------------------------------------------------------------------




--------------------------------------- Iteration      1(   6)  ---------------------------------------


    POTLOK:  cpu time      0.0051: real time      0.0053
    SETDIJ:  cpu time      0.1382: real time      0.1388
     EDDAV:  cpu time      0.2953: real time      0.2982
       DOS:  cpu time      0.0010: real time      0.0010
    CHARGE:  cpu time      0.0035: real time      0.0035
    MIXING:  cpu time      0.0005: real time      0.0005
    --------------------------------------------
      LOOP:  cpu time      0.4436: real time      0.4472

 eigenvalue-minimisations  :  3296
 total energy-change (2. order) : 0.3133526E+00  (-0.6098540E-01)
 number of electron      39.9999950 magnetization 
 augmentation part       -7.3574095 magnetization 

 Broyden mixing:
  rms(total) = 0.43434E+00    rms(broyden)= 0.43434E+00
  rms(prec ) = 0.45077E+00
  weight for this iteration     100.00

 eigenvalues of (default mixing * dielectric matrix)
  average eigenvalue GAMMA=   2.3110
  2.3110

 Free energy of the ion-electron system (eV)
  ---------------------------------------------------
  alpha Z        PSCENC =        97.71837293
  Ewald energy   TEWEN  =     -1487.11300511
  -Hartree energ DENC   =      -109.06246815
  -exchange      EXHF   =         0.00000000
  -V(xc)+E(xc)   XCENC  =       -31.46626717
  PAW double counting   =      1486.32827197    -1373.63469171
  entropy T*S    EENTRO =        -0.00025742
  eigenvalues    EBANDS =       -64.72225355
  atomic energy  EATOM  =      1448.48460880
  Solvation  Ediel_sol  =         0.00000000
  ---------------------------------------------------
  free energy    TOTEN  =       -33.46768940 eV

  energy without entropy =      -33.46743198  energy(sigma->0) =      -33.46756069


--------------------------------------------------------------------------------------------------------




--------------------------------------- Iteration      1(   7)  ---------------------------------------


    POTLOK:  cpu time      0.0051: real time      0.0053
    SETDIJ:  cpu time      0.1383: real time      0.1388
     EDDAV:  cpu time      0.2890: real time      0.2914
       DOS:  cpu time      0.0009: real time      0.0009
    CHARGE:  cpu time      0.0036: real time      0.0036
    MIXING:  cpu time      0.0005: real time      0.0005
    --------------------------------------------
      LOOP:  cpu time      0.4373: real time      0.4406

 eigenvalue-minimisations  :  3072
 total energy-change (2. order) : 0.8441795E-02  (-0.2028041E-01)
 number of electron      39.9999950 magnetization 
 augmentation part       -7.3443757 magnetization 

 Broyden mixing:
  rms(total) = 0.11375E+00    rms(broyden)= 0.11375E+00
  rms(prec ) = 0.12088E+00
  weight for this iteration     100.00

 eigenvalues of (default mixing * dielectric matrix)
  average eigenvalue GAMMA=   1.8177
  1.2100  2.4253

 Free energy of the ion-electron system (eV)
  ---------------------------------------------------
  alpha Z        PSCENC =        97.71837293
  Ewald energy   TEWEN  =     -1487.11300511
  -Hartree energ DENC   =      -111.42080388
  -exchange      EXHF   =         0.00000000
  -V(xc)+E(xc)   XCENC  =       -30.99336493
  PAW double counting   =      1885.16581609    -1772.78496208
  entropy T*S    EENTRO =        -0.00010202
  eigenvalues    EBANDS =       -62.51580741
  atomic energy  EATOM  =      1448.48460880
  Solvation  Ediel_sol  =         0.00000000
  ---------------------------------------------------
  free energy    TOTEN  =       -33.45924760 eV

  energy without entropy =      -33.45914559  energy(sigma->0) =      -33.45919659


--------------------------------------------------------------------------------------------------------




--------------------------------------- Iteration      1(   8)  ---------------------------------------


    POTLOK:  cpu time      0.0049: real time      0.0051
    SETDIJ:  cpu time      0.1376: real time      0.1386
     EDDAV:  cpu time      0.2818: real time      0.2847
       DOS:  cpu time      0.0009: real time      0.0009
    CHARGE:  cpu time      0.0034: real time      0.0034
    MIXING:  cpu time      0.0005: real time      0.0005
    --------------------------------------------
      LOOP:  cpu time      0.4292: real time      0.4333

 eigenvalue-minimisations  :  3088
 total energy-change (2. order) : 0.2511992E-02  (-0.2051048E-02)
 number of electron      39.9999950 magnetization 
 augmentation part       -7.3526899 magnetization 

 Broyden mixing:
  rms(total) = 0.15967E-01    rms(broyden)= 0.15967E-01
  rms(prec ) = 0.18396E-01
  weight for this iteration     100.00

 eigenvalues of (default mixing * dielectric matrix)
  average eigenvalue GAMMA=   1.7433
  2.5179  1.3559  1.3559

 Free energy of the ion-electron system (eV)
  ---------------------------------------------------
  alpha Z        PSCENC =        97.71837293
  Ewald energy   TEWEN  =     -1487.11300511
  -Hartree energ DENC   =      -111.23039895
  -exchange      EXHF   =         0.00000000
  -V(xc)+E(xc)   XCENC  =       -30.89973851
  PAW double counting   =      2012.59825336    -1900.27920965
  entropy T*S    EENTRO =        -0.00010521
  eigenvalues    EBANDS =       -62.73551326
  atomic energy  EATOM  =      1448.48460880
  Solvation  Ediel_sol  =         0.00000000
  ---------------------------------------------------
  free energy    TOTEN  =       -33.45673561 eV

  energy without entropy =      -33.45663040  energy(sigma->0) =      -33.45668301


--------------------------------------------------------------------------------------------------------




--------------------------------------- Iteration      1(   9)  ---------------------------------------


    POTLOK:  cpu time      0.0049: real time      0.0051
    SETDIJ:  cpu time      0.1375: real time      0.1381
     EDDAV:  cpu time      0.2889: real time      0.2915
       DOS:  cpu time      0.0009: real time      0.0009
    CHARGE:  cpu time      0.0035: real time      0.0036
    MIXING:  cpu time      0.0005: real time      0.0005
    --------------------------------------------
      LOOP:  cpu time      0.4363: real time      0.4398

 eigenvalue-minimisations  :  3248
 total energy-change (2. order) :-0.2443933E-03  (-0.2402870E-03)
 number of electron      39.9999950 magnetization 
 augmentation part       -7.3521626 magnetization 

 Broyden mixing:
  rms(total) = 0.56068E-02    rms(broyden)= 0.56067E-02
  rms(prec ) = 0.60724E-02
  weight for this iteration     100.00

 eigenvalues of (default mixing * dielectric matrix)
  average eigenvalue GAMMA=   1.6508
  2.3573  1.1601  1.1601  1.9256

 Free energy of the ion-electron system (eV)
  ---------------------------------------------------
  alpha Z        PSCENC =        97.71837293
  Ewald energy   TEWEN  =     -1487.11300511
  -Hartree energ DENC   =      -111.43167557
  -exchange      EXHF   =         0.00000000
  -V(xc)+E(xc)   XCENC  =       -30.87232041
  PAW double counting   =      2023.85202787    -1911.54063579
  entropy T*S    EENTRO =        -0.00010782
  eigenvalues    EBANDS =       -62.55424490
  atomic energy  EATOM  =      1448.48460880
  Solvation  Ediel_sol  =         0.00000000
  ---------------------------------------------------
  free energy    TOTEN  =       -33.45698000 eV

  energy without entropy =      -33.45687219  energy(sigma->0) =      -33.45692610


--------------------------------------------------------------------------------------------------------




--------------------------------------- Iteration      1(  10)  ---------------------------------------


    POTLOK:  cpu time      0.0049: real time      0.0051
    SETDIJ:  cpu time      0.1374: real time      0.1380
     EDDAV:  cpu time      0.2738: real time      0.2753
       DOS:  cpu time      0.0006: real time      0.0006
    CHARGE:  cpu time      0.0029: real time      0.0029
    MIXING:  cpu time      0.0003: real time      0.0003
    --------------------------------------------
      LOOP:  cpu time      0.4199: real time      0.4223

 eigenvalue-minimisations  :  3264
 total energy-change (2. order) :-0.3811026E-04  (-0.1068968E-04)
 number of electron      39.9999950 magnetization 
 augmentation part       -7.3519332 magnetization 

 Broyden mixing:
  rms(total) = 0.22325E-02    rms(broyden)= 0.22325E-02
  rms(prec ) = 0.26465E-02
  weight for this iteration     100.00

 eigenvalues of (default mixing * dielectric matrix)
  average eigenvalue GAMMA=   1.7546
  2.7016  2.3397  1.0761  1.3277  1.3277

 Free energy of the ion-electron system (eV)
  ---------------------------------------------------
  alpha Z        PSCENC =        97.71837293
  Ewald energy   TEWEN  =     -1487.11300511
  -Hartree energ DENC   =      -111.46832044
  -exchange      EXHF   =         0.00000000
  -V(xc)+E(xc)   XCENC  =       -30.86944513
  PAW double counting   =      2018.88921939    -1906.57470013
  entropy T*S    EENTRO =        -0.00010943
  eigenvalues    EBANDS =       -62.52363899
  atomic energy  EATOM  =      1448.48460880
  Solvation  Ediel_sol  =         0.00000000
  ---------------------------------------------------
  free energy    TOTEN  =       -33.45701812 eV

  energy without entropy =      -33.45690868  energy(sigma->0) =      -33.45696340


--------------------------------------------------------------------------------------------------------




--------------------------------------- Iteration      1(  11)  ---------------------------------------


    POTLOK:  cpu time      0.0034: real time      0.0035
    SETDIJ:  cpu time      0.1371: real time      0.1376
     EDDAV:  cpu time      0.1751: real time      0.1759
       DOS:  cpu time      0.0005: real time      0.0005
    CHARGE:  cpu time      0.0054: real time      0.0054
    MIXING:  cpu time      0.0003: real time      0.0003
    --------------------------------------------
      LOOP:  cpu time      0.3219: real time      0.3233

 eigenvalue-minimisations  :  2928
 total energy-change (2. order) :-0.2042453E-04  (-0.2858566E-05)
 number of electron      39.9999950 magnetization 
 augmentation part       -7.3521137 magnetization 

 Broyden mixing:
  rms(total) = 0.88688E-03    rms(broyden)= 0.88688E-03
  rms(prec ) = 0.97632E-03
  weight for this iteration     100.00

 eigenvalues of (default mixing * dielectric matrix)
  average eigenvalue GAMMA=   1.6876
  2.6015  2.5100  1.7153  1.1988  1.1988  0.9013

 Free energy of the ion-electron system (eV)
  ---------------------------------------------------
  alpha Z        PSCENC =        97.71837293
  Ewald energy   TEWEN  =     -1487.11300511
  -Hartree energ DENC   =      -111.48552980
  -exchange      EXHF   =         0.00000000
  -V(xc)+E(xc)   XCENC  =       -30.86410707
  PAW double counting   =      2019.69455594    -1907.37989811
  entropy T*S    EENTRO =        -0.00011014
  eigenvalues    EBANDS =       -62.51192597
  atomic energy  EATOM  =      1448.48460880
  Solvation  Ediel_sol  =         0.00000000
  ---------------------------------------------------
  free energy    TOTEN  =       -33.45703854 eV

  energy without entropy =      -33.45692840  energy(sigma->0) =      -33.45698347


--------------------------------------------------------------------------------------------------------




--------------------------------------- Iteration      1(  12)  ---------------------------------------


    POTLOK:  cpu time      0.0033: real time      0.0034
    SETDIJ:  cpu time      0.1295: real time      0.1298
     EDDAV:  cpu time      0.1622: real time      0.1630
       DOS:  cpu time      0.0006: real time      0.0006
    --------------------------------------------
      LOOP:  cpu time      0.2956: real time      0.2968

 eigenvalue-minimisations  :  2512
 total energy-change (2. order) : 0.4951208E-06  (-0.2160048E-06)
 number of electron      39.9999950 magnetization 
 augmentation part       -7.3521137 magnetization 

 Free energy of the ion-electron system (eV)
  ---------------------------------------------------
  alpha Z        PSCENC =        97.71837293
  Ewald energy   TEWEN  =     -1487.11300511
  -Hartree energ DENC   =      -111.49445611
  -exchange      EXHF   =         0.00000000
  -V(xc)+E(xc)   XCENC  =       -30.86361171
  PAW double counting   =      2019.03785796    -1906.72293077
  entropy T*S    EENTRO =        -0.00010978
  eigenvalues    EBANDS =       -62.50376425
  atomic energy  EATOM  =      1448.48460880
  Solvation  Ediel_sol  =         0.00000000
  ---------------------------------------------------
  free energy    TOTEN  =       -33.45703804 eV

  energy without entropy =      -33.45692827  energy(sigma->0) =      -33.45698316


--------------------------------------------------------------------------------------------------------




 average (electrostatic) potential at core
  the test charge radii are     1.1631  1.0808
  (the norm of the test charge is              1.0000)
       1 -32.5036       2 -32.5036       3 -32.5036       4 -32.5036       5 -54.0909
       6 -54.0909       7 -54.0909       8 -54.0909
 
 
 
 E-fermi :   4.4184     XC(G=0):  -9.8256     alpha+bet : -9.7350

 Fermi energy:         4.4184223090

 k-point     1 :       0.0000    0.0000    0.0000
  band No.  band energies     occupation 
      1     -10.5149      2.00000
      2     -10.1277      2.00000
      3      -9.1515      2.00000
      4      -8.5076      2.00000
      5      -3.4415      2.00000
      6      -2.8010      2.00000
      7      -1.7153      2.00000
      8      -1.0340      2.00000
      9      -0.9843      2.00000
     10       0.3544      2.00000
     11       0.3634      2.00000
     12       0.7275      2.00000
     13       0.8741      2.00000
     14       1.3145      2.00000
     15       2.0549      2.00000
     16       2.1104      2.00000
     17       2.4624      2.00000
     18       2.7832      2.00000
     19       3.4206      2.00000
     20       4.1886      2.00000
     21       4.4912      0.03957
     22       7.2373      0.00000
     23       7.4201      0.00000
     24       7.6502      0.00000
     25       7.8478      0.00000
     26       7.8874      0.00000
     27       8.4809      0.00000
     28       9.1884      0.00000
     29       9.6804      0.00000
     30       9.8401      0.00000
     31       9.9069      0.00000
     32      10.6940      0.00000

 k-point     2 :       0.1667    0.0000    0.0000
  band No.  band energies     occupation 
      1     -10.3532      2.00000
      2      -9.9735      2.00000
      3      -9.0909      2.00000
      4      -8.5020      2.00000
      5      -4.1142      2.00000
      6      -3.2472      2.00000
      7      -2.4076      2.00000
      8      -1.7437      2.00000
      9      -1.2347      2.00000
     10       0.7195      2.00000
     11       1.0715      2.00000
     12       1.2401      2.00000
     13       1.4114      2.00000
     14       1.5013      2.00000
     15       2.2423      2.00000
     16       2.6176      2.00000
     17       2.8679      2.00000
     18       3.1980      2.00000
     19       3.2935      2.00000
     20       4.0945      2.00000
     21       4.3373      1.97828
     22       6.8644      0.00000
     23       7.4839      0.00000
     24       7.5557      0.00000
     25       7.5754      0.00000
     26       7.7376      0.00000
     27       8.3075      0.00000
     28       8.4093      0.00000
     29       8.7654      0.00000
     30       9.2680      0.00000
     31       9.7061      0.00000
     32       9.8141      0.00000

 k-point     3 :       0.3333    0.0000    0.0000
  band No.  band energies     occupation 
      1      -9.9109      2.00000
      2      -9.5506      2.00000
      3      -9.0572      2.00000
      4      -8.6087      2.00000
      5      -4.9233      2.00000
      6      -3.8955      2.00000
      7      -3.8511      2.00000
      8      -2.8672      2.00000
      9      -0.7387      2.00000
     10       1.1185      2.00000
     11       1.6151      2.00000
     12       2.0092      2.00000
     13       2.0244      2.00000
     14       2.3406      2.00000
     15       2.4753      2.00000
     16       2.9430      2.00000
     17       2.9574      2.00000
     18       3.6346      2.00000
     19       4.0228      2.00000
     20       4.5280      0.00193
     21       5.0203      0.00000
     22       5.5411      0.00000
     23       6.1247      0.00000
     24       6.3480      0.00000
     25       7.0982      0.00000
     26       7.2225      0.00000
     27       7.3489      0.00000
     28       7.7650      0.00000
     29       7.8175      0.00000
     30       8.3337      0.00000
     31       9.2331      0.00000
     32      10.2593      0.00000

 k-point     4 :       0.5000    0.0000    0.0000
  band No.  band energies     occupation 
      1      -9.3624      2.00000
      2      -9.3624      2.00000
      3      -9.0056      2.00000
      4      -9.0056      2.00000
      5      -4.8690      2.00000
      6      -4.8690      2.00000
      7      -3.7316      2.00000
      8      -3.7316      2.00000
      9       0.1912      2.00000
     10       0.1912      2.00000
     11       2.2723      2.00000
     12       2.2723      2.00000
     13       2.6233      2.00000
     14       2.6233      2.00000
     15       2.6918      2.00000
     16       2.6918      2.00000
     17       3.6568      2.00000
     18       3.6568      2.00000
     19       4.2070      2.00000
     20       4.2070      2.00000
     21       5.8156      0.00000
     22       5.8156      0.00000
     23       6.1391      0.00000
     24       6.1391      0.00000
     25       6.1922      0.00000
     26       6.1922      0.00000
     27       6.6696      0.00000
     28       6.6696      0.00000
     29       7.3059      0.00000
     30       7.3059      0.00000
     31      10.0389      0.00000
     32      10.0389      0.00000

 k-point     5 :       0.0000    0.1667    0.0000
  band No.  band energies     occupation 
      1     -10.2962      2.00000
      2      -9.9251      2.00000
      3      -8.9985      2.00000
      4      -8.4262      2.00000
      5      -3.8226      2.00000
      6      -3.3209      2.00000
      7      -1.9136      2.00000
      8      -1.8001      2.00000
      9      -1.2241      2.00000
     10       0.4140      2.00000
     11       0.6108      2.00000
     12       0.9450      2.00000
     13       1.0848      2.00000
     14       1.1302      2.00000
     15       2.1026      2.00000
     16       2.2314      2.00000
     17       2.6040      2.00000
     18       3.1560      2.00000
     19       3.5277      2.00000
     20       3.8564      2.00000
     21       4.6470      0.00000
     22       6.7846      0.00000
     23       7.3556      0.00000
     24       7.6194      0.00000
     25       7.7912      0.00000
     26       8.1348      0.00000
     27       8.3192      0.00000
     28       8.4574      0.00000
     29       8.6716      0.00000
     30       9.2639      0.00000
     31       9.5813      0.00000
     32       9.8835      0.00000

 k-point     6 :       0.1667    0.1667    0.0000
  band No.  band energies     occupation 
      1     -10.1401      2.00000
      2      -9.7775      2.00000
      3      -8.9437      2.00000
      4      -8.4209      2.00000
      5      -4.2021      2.00000
      6      -3.4493      2.00000
      7      -2.5293      2.00000
      8      -2.1045      2.00000
      9      -1.0893      2.00000
     10      -0.1890      2.00000
     11      -0.0012      2.00000
     12       1.0893      2.00000
     13       1.3742      2.00000
     14       2.0624      2.00000
     15       2.0690      2.00000
     16       2.2869      2.00000
     17       3.3420      2.00000
     18       3.4001      2.00000
     19       3.7709      2.00000
     20       3.9385      2.00000
     21       4.6354      0.00000
     22       6.0874      0.00000
     23       6.5133      0.00000
     24       6.6585      0.00000
     25       7.5903      0.00000
     26       8.1530      0.00000
     27       8.3640      0.00000
     28       8.4682      0.00000
     29       9.1415      0.00000
     30       9.2486      0.00000
     31       9.4312      0.00000
     32      10.0930      0.00000

 k-point     7 :      -0.1667    0.1667    0.0000
  band No.  band energies     occupation 
      1     -10.1401      2.00000
      2      -9.7775      2.00000
      3      -8.9437      2.00000
      4      -8.4209      2.00000
      5      -4.2021      2.00000
      6      -3.4493      2.00000
      7      -2.5293      2.00000
      8      -2.1045      2.00000
      9      -1.0893      2.00000
     10      -0.1890      2.00000
     11      -0.0012      2.00000
     12       1.0893      2.00000
     13       1.3742      2.00000
     14       2.0624      2.00000
     15       2.0690      2.00000
     16       2.2869      2.00000
     17       3.3420      2.00000
     18       3.4001      2.00000
     19       3.7709      2.00000
     20       3.9385      2.00000
     21       4.6354      0.00000
     22       6.0874      0.00000
     23       6.5133      0.00000
     24       6.6585      0.00000
     25       7.5903      0.00000
     26       8.1530      0.00000
     27       8.3640      0.00000
     28       8.4682      0.00000
     29       9.1415      0.00000
     30       9.2486      0.00000
     31       9.4312      0.00000
     32      10.0930      0.00000

 k-point     8 :       0.3333    0.1667    0.0000
  band No.  band energies     occupation 
      1      -9.7169      2.00000
      2      -9.3767      2.00000
      3      -8.9172      2.00000
      4      -8.5147      2.00000
      5      -4.7607      2.00000
      6      -3.7602      2.00000
      7      -3.7281      2.00000
      8      -2.8661      2.00000
      9      -0.5332      2.00000
     10      -0.1247      2.00000
     11       0.0755      2.00000
     12       1.1035      2.00000
     13       1.3445      2.00000
     14       1.7917      2.00000
     15       2.1291      2.00000
     16       2.9423      2.00000
     17       3.1062      2.00000
     18       3.4855      2.00000
     19       3.6269      2.00000
     20       3.8517      2.00000
     21       5.0440      0.00000
     22       5.9419      0.00000
     23       6.6866      0.00000
     24       6.8328      0.00000
     25       6.8577      0.00000
     26       7.3671      0.00000
     27       8.2972      0.00000
     28       9.0799      0.00000
     29       9.1070      0.00000
     30       9.2463      0.00000
     31       9.7701      0.00000
     32       9.9862      0.00000

 k-point     9 :      -0.3333    0.1667    0.0000
  band No.  band energies     occupation 
      1      -9.7169      2.00000
      2      -9.3767      2.00000
      3      -8.9172      2.00000
      4      -8.5147      2.00000
      5      -4.7607      2.00000
      6      -3.7602      2.00000
      7      -3.7281      2.00000
      8      -2.8661      2.00000
      9      -0.5332      2.00000
     10      -0.1247      2.00000
     11       0.0755      2.00000
     12       1.1035      2.00000
     13       1.3445      2.00000
     14       1.7917      2.00000
     15       2.1291      2.00000
     16       2.9423      2.00000
     17       3.1062      2.00000
     18       3.4855      2.00000
     19       3.6269      2.00000
     20       3.8517      2.00000
     21       5.0440      0.00000
     22       5.9419      0.00000
     23       6.6866      0.00000
     24       6.8328      0.00000
     25       6.8577      0.00000
     26       7.3671      0.00000
     27       8.2972      0.00000
     28       9.0799      0.00000
     29       9.1070      0.00000
     30       9.2463      0.00000
     31       9.7701      0.00000
     32       9.9862      0.00000

 k-point    10 :       0.5000    0.1667    0.0000
  band No.  band energies     occupation 
      1      -9.2012      2.00000
      2      -9.2012      2.00000
      3      -8.8715      2.00000
      4      -8.8715      2.00000
      5      -4.6568      2.00000
      6      -4.6568      2.00000
      7      -3.5725      2.00000
      8      -3.5725      2.00000
      9       0.1848      2.00000
     10       0.1848      2.00000
     11       0.6387      2.00000
     12       0.6387      2.00000
     13       1.1327      2.00000
     14       1.1327      2.00000
     15       2.4537      2.00000
     16       2.4537      2.00000
     17       3.1404      2.00000
     18       3.1404      2.00000
     19       3.6965      2.00000
     20       3.6965      2.00000
     21       5.4573      0.00000
     22       5.4573      0.00000
     23       6.9536      0.00000
     24       6.9536      0.00000
     25       7.7002      0.00000
     26       7.7002      0.00000
     27       8.3920      0.00000
     28       8.3920      0.00000
     29       8.9930      0.00000
     30       8.9930      0.00000
     31       9.7830      0.00000
     32       9.7830      0.00000

 k-point    11 :       0.0000    0.3333    0.0000
  band No.  band energies     occupation 
      1      -9.6873      2.00000
      2      -9.3825      2.00000
      3      -8.7003      2.00000
      4      -8.4020      2.00000
      5      -4.5868      2.00000
      6      -4.1259      2.00000
      7      -3.5225      2.00000
      8      -2.9314      2.00000
      9      -0.6077      2.00000
     10       0.8826      2.00000
     11       1.2779      2.00000
     12       1.3757      2.00000
     13       1.4178      2.00000
     14       1.5116      2.00000
     15       2.4109      2.00000
     16       2.4557      2.00000
     17       2.8917      2.00000
     18       3.1106      2.00000
     19       3.5007      2.00000
     20       3.9075      2.00000
     21       5.0272      0.00000
     22       5.0960      0.00000
     23       5.8854      0.00000
     24       6.2358      0.00000
     25       6.4167      0.00000
     26       6.6585      0.00000
     27       6.8782      0.00000
     28       7.6783      0.00000
     29       8.0115      0.00000
     30       8.0856      0.00000
     31       8.7127      0.00000
     32       9.6876      0.00000

 k-point    12 :       0.1667    0.3333    0.0000
  band No.  band energies     occupation 
      1      -9.5528      2.00000
      2      -9.2598      2.00000
      3      -8.6558      2.00000
      4      -8.3793      2.00000
      5      -4.5276      2.00000
      6      -3.9741      2.00000
      7      -3.4635      2.00000
      8      -3.0141      2.00000
      9      -0.4598      2.00000
     10      -0.4447      2.00000
     11      -0.1220      2.00000
     12       0.7613      2.00000
     13       1.3668      2.00000
     14       2.0031      2.00000
     15       2.0048      2.00000
     16       2.6122      2.00000
     17       2.6416      2.00000
     18       2.9371      2.00000
     19       3.2586      2.00000
     20       3.5726      2.00000
     21       4.9106      0.00000
     22       5.7168      0.00000
     23       6.2189      0.00000
     24       6.3636      0.00000
     25       6.5114      0.00000
     26       7.5364      0.00000
     27       8.1425      0.00000
     28       8.4529      0.00000
     29       8.6290      0.00000
     30       8.8923      0.00000
     31       9.3541      0.00000
     32      10.0262      0.00000

 k-point    13 :      -0.1667    0.3333    0.0000
  band No.  band energies     occupation 
      1      -9.5528      2.00000
      2      -9.2598      2.00000
      3      -8.6558      2.00000
      4      -8.3793      2.00000
      5      -4.5276      2.00000
      6      -3.9741      2.00000
      7      -3.4635      2.00000
      8      -3.0141      2.00000
      9      -0.4598      2.00000
     10      -0.4447      2.00000
     11      -0.1220      2.00000
     12       0.7613      2.00000
     13       1.3668      2.00000
     14       2.0031      2.00000
     15       2.0048      2.00000
     16       2.6122      2.00000
     17       2.6416      2.00000
     18       2.9371      2.00000
     19       3.2586      2.00000
     20       3.5726      2.00000
     21       4.9106      0.00000
     22       5.7168      0.00000
     23       6.2189      0.00000
     24       6.3636      0.00000
     25       6.5114      0.00000
     26       7.5364      0.00000
     27       8.1425      0.00000
     28       8.4529      0.00000
     29       8.6290      0.00000
     30       8.8923      0.00000
     31       9.3541      0.00000
     32      10.0263      0.00000

 k-point    14 :       0.3333    0.3333    0.0000
  band No.  band energies     occupation 
      1      -9.2016      2.00000
      2      -8.9420      2.00000
      3      -8.6237      2.00000
      4      -8.3912      2.00000
      5      -4.4014      2.00000
      6      -3.6211      2.00000
      7      -3.6095      2.00000
      8      -3.1860      2.00000
      9      -1.2680      2.00000
     10      -0.9410      2.00000
     11      -0.2453      2.00000
     12       0.0431      2.00000
     13       0.3031      2.00000
     14       0.9525      2.00000
     15       1.4967      2.00000
     16       1.6268      2.00000
     17       2.2739      2.00000
     18       2.4499      2.00000
     19       2.7349      2.00000
     20       3.2057      2.00000
     21       5.1101      0.00000
     22       7.1918      0.00000
     23       7.4358      0.00000
     24       7.7997      0.00000
     25       7.9331      0.00000
     26       8.5158      0.00000
     27       8.6067      0.00000
     28       9.2391      0.00000
     29       9.3612      0.00000
     30       9.8875      0.00000
     31      10.1908      0.00000
     32      10.3551      0.00000

 k-point    15 :      -0.3333    0.3333    0.0000
  band No.  band energies     occupation 
      1      -9.2016      2.00000
      2      -8.9420      2.00000
      3      -8.6237      2.00000
      4      -8.3912      2.00000
      5      -4.4014      2.00000
      6      -3.6211      2.00000
      7      -3.6095      2.00000
      8      -3.1860      2.00000
      9      -1.2680      2.00000
     10      -0.9410      2.00000
     11      -0.2453      2.00000
     12       0.0431      2.00000
     13       0.3031      2.00000
     14       0.9525      2.00000
     15       1.4967      2.00000
     16       1.6268      2.00000
     17       2.2739      2.00000
     18       2.4499      2.00000
     19       2.7349      2.00000
     20       3.2057      2.00000
     21       5.1101      0.00000
     22       7.1918      0.00000
     23       7.4358      0.00000
     24       7.7997      0.00000
     25       7.9331      0.00000
     26       8.5158      0.00000
     27       8.6067      0.00000
     28       9.2391      0.00000
     29       9.3612      0.00000
     30       9.8875      0.00000
     31      10.1908      0.00000
     32      10.3551      0.00000

 k-point    16 :       0.5000    0.3333    0.0000
  band No.  band energies     occupation 
      1      -8.8106      2.00000
      2      -8.8106      2.00000
      3      -8.5866      2.00000
      4      -8.5866      2.00000
      5      -4.1194      2.00000
      6      -4.1194      2.00000
      7      -3.3272      2.00000
      8      -3.3272      2.00000
      9      -1.0472      2.00000
     10      -1.0472      2.00000
     11      -0.6390      2.00000
     12      -0.6390      2.00000
     13       0.5055      2.00000
     14       0.5055      2.00000
     15       1.2756      2.00000
     16       1.2756      2.00000
     17       1.7393      2.00000
     18       1.7393      2.00000
     19       2.8864      2.00000
     20       2.8864      2.00000
     21       6.1131      0.00000
     22       6.1131      0.00000
     23       8.4484      0.00000
     24       8.4484      0.00000
     25       8.9797      0.00000
     26       8.9797      0.00000
     27       9.4413      0.00000
     28       9.4413      0.00000
     29       9.8160      0.00000
     30       9.8160      0.00000
     31      10.8984      0.00000
     32      10.8987      0.00000

 k-point    17 :       0.0000    0.5000    0.0000
  band No.  band energies     occupation 
      1      -8.8928      2.00000
      2      -8.8928      2.00000
      3      -8.7899      2.00000
      4      -8.7899      2.00000
      5      -4.6350      2.00000
      6      -4.6350      2.00000
      7      -3.9966      2.00000
      8      -3.9966      2.00000
      9       0.4413      2.00000
     10       0.4413      2.00000
     11       1.8269      2.00000
     12       1.8269      2.00000
     13       1.8932      2.00000
     14       1.8932      2.00000
     15       2.4556      2.00000
     16       2.4556      2.00000
     17       3.1445      2.00000
     18       3.1445      2.00000
     19       3.2844      2.00000
     20       3.2844      2.00000
     21       5.2577      0.00000
     22       5.2577      0.00000
     23       5.5201      0.00000
     24       5.5201      0.00000
     25       5.7597      0.00000
     26       5.7597      0.00000
     27       6.4002      0.00000
     28       6.4002      0.00000
     29       6.9349      0.00000
     30       6.9349      0.00000
     31       9.2867      0.00000
     32       9.2867      0.00000

 k-point    18 :       0.1667    0.5000    0.0000
  band No.  band energies     occupation 
      1      -8.8089      2.00000
      2      -8.8089      2.00000
      3      -8.7168      2.00000
      4      -8.7168      2.00000
      5      -4.4579      2.00000
      6      -4.4579      2.00000
      7      -3.8744      2.00000
      8      -3.8744      2.00000
      9       0.2077      2.00000
     10       0.2077      2.00000
     11       0.5182      2.00000
     12       0.5182      2.00000
     13       1.1663      2.00000
     14       1.1663      2.00000
     15       1.9644      2.00000
     16       1.9644      2.00000
     17       2.4854      2.00000
     18       2.4854      2.00000
     19       3.2942      2.00000
     20       3.2942      2.00000
     21       5.2406      0.00000
     22       5.2406      0.00000
     23       6.5299      0.00000
     24       6.5299      0.00000
     25       7.2373      0.00000
     26       7.2373      0.00000
     27       7.5082      0.00000
     28       7.5082      0.00000
     29       8.4879      0.00000
     30       8.4879      0.00000
     31       9.0015      0.00000
     32       9.0015      0.00000

 k-point    19 :       0.3333    0.5000    0.0000
  band No.  band energies     occupation 
      1      -8.6233      2.00000
      2      -8.6233      2.00000
      3      -8.5630      2.00000
      4      -8.5630      2.00000
      5      -4.0010      2.00000
      6      -4.0010      2.00000
      7      -3.6117      2.00000
      8      -3.6117      2.00000
      9      -0.9603      2.00000
     10      -0.9603      2.00000
     11      -0.4539      2.00000
     12      -0.4539      2.00000
     13       0.2757      2.00000
     14       0.2757      2.00000
     15       1.1088      2.00000
     16       1.1088      2.00000
     17       1.5945      2.00000
     18       1.5945      2.00000
     19       2.8341      2.00000
     20       2.8341      2.00000
     21       6.2812      0.00000
     22       6.2812      0.00000
     23       7.9792      0.00000
     24       7.9792      0.00000
     25       8.7859      0.00000
     26       8.7859      0.00000
     27       8.9910      0.00000
     28       8.9910      0.00000
     29       9.2896      0.00000
     30       9.2896      0.00000
     31      10.6352      0.00000
     32      10.6352      0.00000

 k-point    20 :       0.5000    0.5000    0.0000
  band No.  band energies     occupation 
      1      -8.5149      2.00000
      2      -8.5149      2.00000
      3      -8.4866      2.00000
      4      -8.4866      2.00000
      5      -3.6586      2.00000
      6      -3.6586      2.00000
      7      -3.4924      2.00000
      8      -3.4924      2.00000
      9      -1.4380      2.00000
     10      -1.4380      2.00000
     11      -0.9589      2.00000
     12      -0.9589      2.00000
     13      -0.1306      2.00000
     14      -0.1306      2.00000
     15       0.4205      2.00000
     16       0.4205      2.00000
     17       1.7751      2.00000
     18       1.7751      2.00000
[...]
     32       8.5339      0.00000

 k-point    32 :       0.1667    0.3333    0.5000
  band No.  band energies     occupation 
      1      -9.4315      2.00000
      2      -9.4315      2.00000
      3      -8.4903      2.00000
      4      -8.4903      2.00000
      5      -4.2988      2.00000
      6      -4.2988      2.00000
      7      -3.2409      2.00000
      8      -3.2409      2.00000
      9      -0.3391      2.00000
     10      -0.3391      2.00000
     11       0.5373      2.00000
     12       0.5373      2.00000
     13       1.1737      2.00000
     14       1.1737      2.00000
     15       2.3984      2.00000
     16       2.3984      2.00000
     17       2.6190      2.00000
     18       2.6190      2.00000
     19       3.4898      2.00000
     20       3.4898      2.00000
     21       5.8737      0.00000
     22       5.8737      0.00000
     23       6.3256      0.00000
     24       6.3256      0.00000
     25       7.1798      0.00000
     26       7.1798      0.00000
     27       7.7691      0.00000
     28       7.7691      0.00000
     29       8.3045      0.00000
     30       8.3045      0.00000
     31       9.7137      0.00000
     32       9.7137      0.00000

 k-point    33 :      -0.1667    0.3333    0.5000
  band No.  band energies     occupation 
      1      -9.4315      2.00000
      2      -9.4315      2.00000
      3      -8.4903      2.00000
      4      -8.4903      2.00000
      5      -4.2988      2.00000
      6      -4.2988      2.00000
      7      -3.2409      2.00000
      8      -3.2409      2.00000
      9      -0.3391      2.00000
     10      -0.3391      2.00000
     11       0.5373      2.00000
     12       0.5373      2.00000
     13       1.1737      2.00000
     14       1.1737      2.00000
     15       2.3984      2.00000
     16       2.3984      2.00000
     17       2.6190      2.00000
     18       2.6190      2.00000
     19       3.4898      2.00000
     20       3.4898      2.00000
     21       5.8737      0.00000
     22       5.8737      0.00000
     23       6.3256      0.00000
     24       6.3256      0.00000
     25       7.1798      0.00000
     26       7.1798      0.00000
     27       7.7691      0.00000
     28       7.7691      0.00000
     29       8.3045      0.00000
     30       8.3045      0.00000
     31       9.7137      0.00000
     32       9.7137      0.00000

 k-point    34 :       0.3333    0.3333    0.5000
  band No.  band energies     occupation 
      1      -9.0989      2.00000
      2      -9.0989      2.00000
      3      -8.4805      2.00000
      4      -8.4805      2.00000
      5      -4.1157      2.00000
      6      -4.1157      2.00000
      7      -3.3296      2.00000
      8      -3.3296      2.00000
      9      -1.0789      2.00000
     10      -1.0789      2.00000
     11      -0.0544      2.00000
     12      -0.0544      2.00000
     13       0.7179      2.00000
     14       0.7179      2.00000
     15       1.4386      2.00000
     16       1.4386      2.00000
     17       2.1841      2.00000
     18       2.1841      2.00000
     19       3.0117      2.00000
     20       3.0117      2.00000
     21       6.5747      0.00000
     22       6.5747      0.00000
     23       7.3402      0.00000
     24       7.3402      0.00000
     25       7.6102      0.00000
     26       7.6102      0.00000
     27       9.0726      0.00000
     28       9.0726      0.00000
     29       9.6966      0.00000
     30       9.6966      0.00000
     31      11.0283      0.00000
     32      11.0283      0.00000

 k-point    35 :      -0.3333    0.3333    0.5000
  band No.  band energies     occupation 
      1      -9.0989      2.00000
      2      -9.0989      2.00000
      3      -8.4805      2.00000
      4      -8.4805      2.00000
      5      -4.1157      2.00000
      6      -4.1157      2.00000
      7      -3.3296      2.00000
      8      -3.3296      2.00000
      9      -1.0789      2.00000
     10      -1.0789      2.00000
     11      -0.0544      2.00000
     12      -0.0544      2.00000
     13       0.7179      2.00000
     14       0.7179      2.00000
     15       1.4386      2.00000
     16       1.4386      2.00000
     17       2.1841      2.00000
     18       2.1841      2.00000
     19       3.0117      2.00000
     20       3.0117      2.00000
     21       6.5747      0.00000
     22       6.5747      0.00000
     23       7.3402      0.00000
     24       7.3402      0.00000
     25       7.6102      0.00000
     26       7.6102      0.00000
     27       9.0726      0.00000
     28       9.0726      0.00000
     29       9.6966      0.00000
     30       9.6966      0.00000
     31      11.0283      0.00000
     32      11.0283      0.00000

 k-point    36 :       0.5000    0.3333    0.5000
  band No.  band energies     occupation 
      1      -8.8064      2.00000
      2      -8.8064      2.00000
      3      -8.5919      2.00000
      4      -8.5919      2.00000
      5      -4.0659      2.00000
      6      -4.0659      2.00000
      7      -3.4065      2.00000
      8      -3.4065      2.00000
      9      -0.8590      2.00000
     10      -0.8590      2.00000
     11      -0.8588      2.00000
     12      -0.8588      2.00000
     13       0.7793      2.00000
     14       0.7793      2.00000
     15       0.9570      2.00000
     16       0.9570      2.00000
     17       2.1344      2.00000
     18       2.1344      2.00000
     19       2.5100      2.00000
     20       2.5100      2.00000
     21       6.5689      0.00000
     22       6.5689      0.00000
     23       7.4892      0.00000
     24       7.4892      0.00000
     25       9.1251      0.00000
     26       9.1251      0.00000
     27       9.3431      0.00000
     28       9.3431      0.00000
     29      10.6671      0.00000
     30      10.6671      0.00000
     31      10.8479      0.00000
     32      10.8479      0.00000

 k-point    37 :       0.0000    0.5000    0.5000
  band No.  band energies     occupation 
      1      -8.8429      2.00000
      2      -8.8429      2.00000
      3      -8.8429      2.00000
      4      -8.8429      2.00000
      5      -4.3410      2.00000
      6      -4.3410      2.00000
      7      -4.3410      2.00000
      8      -4.3410      2.00000
      9       1.2293      2.00000
     10       1.2293      2.00000
     11       1.2293      2.00000
     12       1.2293      2.00000
     13       2.0232      2.00000
     14       2.0232      2.00000
     15       2.0232      2.00000
     16       2.0232      2.00000
     17       3.0912      2.00000
     18       3.0912      2.00000
     19       3.0912      2.00000
     20       3.0912      2.00000
     21       5.6590      0.00000
     22       5.6590      0.00000
     23       5.6590      0.00000
     24       5.6590      0.00000
     25       6.0998      0.00000
     26       6.0998      0.00000
     27       6.0998      0.00000
     28       6.0998      0.00000
     29       7.8155      0.00000
     30       7.8155      0.00000
     31       7.8155      0.00000
     32       7.8155      0.00000

 k-point    38 :       0.1667    0.5000    0.5000
  band No.  band energies     occupation 
      1      -8.7641      2.00000
      2      -8.7641      2.00000
      3      -8.7641      2.00000
      4      -8.7641      2.00000
      5      -4.1877      2.00000
      6      -4.1877      2.00000
      7      -4.1877      2.00000
      8      -4.1877      2.00000
      9       0.4626      2.00000
     10       0.4626      2.00000
     11       0.4626      2.00000
     12       0.4626      2.00000
     13       1.5216      2.00000
     14       1.5216      2.00000
     15       1.5216      2.00000
     16       1.5216      2.00000
     17       2.6655      2.00000
     18       2.6655      2.00000
     19       2.6655      2.00000
     20       2.6655      2.00000
     21       6.2281      0.00000
     22       6.2281      0.00000
     23       6.2281      0.00000
     24       6.2281      0.00000
     25       7.4383      0.00000
     26       7.4383      0.00000
     27       7.4383      0.00000
     28       7.4383      0.00000
     29       8.3302      0.00000
     30       8.3302      0.00000
     31       8.3302      0.00000
     32       8.3302      0.00000

 k-point    39 :       0.3333    0.5000    0.5000
  band No.  band energies     occupation 
      1      -8.5936      2.00000
      2      -8.5936      2.00000
      3      -8.5936      2.00000
      4      -8.5936      2.00000
      5      -3.8180      2.00000
      6      -3.8180      2.00000
      7      -3.8180      2.00000
      8      -3.8180      2.00000
      9      -0.7012      2.00000
     10      -0.7012      2.00000
     11      -0.7012      2.00000
     12      -0.7012      2.00000
     13       0.5448      2.00000
     14       0.5448      2.00000
     15       0.5448      2.00000
     16       0.5448      2.00000
     17       2.3652      2.00000
     18       2.3652      2.00000
     19       2.3652      2.00000
     20       2.3652      2.00000
     21       6.8954      0.00000
     22       6.8954      0.00000
     23       6.8954      0.00000
     24       6.8954      0.00000
     25       8.7048      0.00000
     26       8.7048      0.00000
     27       8.7048      0.00000
     28       8.7048      0.00000
     29      10.4882      0.00000
     30      10.4882      0.00000
     31      10.4882      0.00000
     32      10.4882      0.00000

 k-point    40 :       0.5000    0.5000    0.5000
  band No.  band energies     occupation 
      1      -8.5008      2.00000
      2      -8.5008      2.00000
      3      -8.5008      2.00000
      4      -8.5008      2.00000
      5      -3.5852      2.00000
      6      -3.5852      2.00000
      7      -3.5852      2.00000
      8      -3.5852      2.00000
      9      -1.1125      2.00000
     10      -1.1125      2.00000
     11      -1.1125      2.00000
     12      -1.1125      2.00000
     13      -0.0948      2.00000
     14      -0.0948      2.00000
     15      -0.0948      2.00000
     16      -0.0948      2.00000
     17       2.4449      2.00000
     18       2.4449      2.00000
     19       2.4449      2.00000
     20       2.4449      2.00000
     21       6.6617      0.00000
     22       6.6617      0.00000
     23       6.6617      0.00000
     24       6.6617      0.00000
     25       9.8880      0.00000
     26       9.8880      0.00000
     27       9.8880      0.00000
     28       9.8880      0.00000
     29      11.0751      0.00000
     30      11.0751      0.00000
     31      11.0751      0.00000
     32      11.0751      0.00000


--------------------------------------------------------------------------------------------------------


 soft charge-density along one line, spin component            1
         0         1         2         3         4         5         6         7         8         9
 total charge-density along one line
 
 pseudopotential strength for first ion, spin component:            1
 14.231  17.746   0.000   0.042   0.036   0.000   0.075   0.064
 17.746  22.144   0.000   0.053   0.045   0.000   0.095   0.081
  0.000   0.000   3.179  -0.000  -0.000   5.408  -0.000  -0.000
  0.042   0.053  -0.000   3.177  -0.003  -0.000   5.404  -0.005
  0.036   0.045  -0.000  -0.003   3.178  -0.000  -0.005   5.405
  0.000   0.000   5.408  -0.000  -0.000   9.256  -0.000  -0.000
  0.075   0.095  -0.000   5.404  -0.005  -0.000   9.249  -0.008
  0.064   0.081  -0.000  -0.005   5.405  -0.000  -0.008   9.252
 -0.000  -0.000   0.006   0.000  -0.000   0.012   0.000  -0.000
 -0.000  -0.000   0.011   0.000   0.000   0.020   0.000   0.000
 -0.002  -0.002   0.000   0.010  -0.003   0.000   0.019  -0.007
 -0.006  -0.007   0.000   0.011   0.011   0.000   0.020   0.020
 -0.002  -0.002   0.000  -0.000   0.010   0.000  -0.000   0.019
 total augmentation occupancy for first ion, spin component:            1
  2.862  -0.810  -0.000   0.339   0.331  -0.000  -0.063  -0.067  -0.000  -0.000  -0.019  -0.002  -0.006
 -0.810   0.754   0.000  -0.440  -0.399   0.000   0.070   0.065   0.000   0.000   0.020   0.001   0.002
 -0.000   0.000   1.339   0.000   0.000  -0.238  -0.000  -0.000   0.133   0.035  -0.000   0.000   0.000
  0.339  -0.440   0.000   1.283   0.089  -0.000  -0.215  -0.007   0.000  -0.000   0.095  -0.003   0.003
  0.331  -0.399   0.000   0.089   1.342  -0.000  -0.007  -0.232  -0.000   0.000  -0.083   0.038   0.004
 -0.000   0.000  -0.238  -0.000  -0.000   0.048   0.000   0.000  -0.023  -0.006   0.000  -0.000  -0.000
 -0.063   0.070  -0.000  -0.215  -0.007   0.000   0.041   0.000  -0.000  -0.000  -0.017   0.000  -0.000
 -0.067   0.065  -0.000  -0.007  -0.232   0.000   0.000   0.045   0.000  -0.000   0.014  -0.007  -0.001
 -0.000   0.000   0.133   0.000  -0.000  -0.023  -0.000   0.000   0.041   0.004  -0.000   0.000  -0.000
 -0.000   0.000   0.035  -0.000   0.000  -0.006  -0.000  -0.000   0.004   0.012   0.000   0.000  -0.000
 -0.019   0.020  -0.000   0.095  -0.083   0.000  -0.017   0.014  -0.000   0.000   0.036  -0.006   0.001
 -0.002   0.001   0.000  -0.003   0.038  -0.000   0.000  -0.007   0.000   0.000  -0.006   0.012  -0.001
 -0.006   0.002   0.000   0.003   0.004  -0.000  -0.000  -0.001  -0.000  -0.000   0.001  -0.001   0.010


------------------------ aborting loop because EDIFF is reached ----------------------------------------


    CHARGE:  cpu time      0.0031: real time      0.0031
    FORLOC:  cpu time      0.0001: real time      0.0001
    FORNL :  cpu time      0.0189: real time      0.0189
    STRESS:  cpu time      0.2060: real time      0.2067
    FORCOR:  cpu time      0.0035: real time      0.0036
    FORHAR:  cpu time      0.0008: real time      0.0008
    MIXING:  cpu time      0.0004: real time      0.0004
    OFIELD:  cpu time      0.0000: real time      0.0000

  FORCE on cell =-STRESS in cart. coord.  units (eV):
  Direction    XX          YY          ZZ          XY          YZ          ZX
  --------------------------------------------------------------------------------------
  Alpha Z    97.71837    97.71837    97.71837
  Ewald    -480.46928  -462.23527  -544.41026     0.00000    -0.00000     0.00000
  Hartree    41.29064    51.70536    18.50662    -0.00000     0.00000    -0.00000
  E(xc)    -142.21779  -142.33206  -142.58541     0.00000    -0.00000    -0.00000
  Local    -140.52906  -166.92342   -60.95398     0.00000    -0.00000    -0.00000
  n-local   242.44689   242.98474   242.78980    -0.00000     0.00000     0.00000
  augment   -11.55879   -11.47339   -12.07931    -0.00000     0.00000     0.00000
  Kinetic   399.20736   398.36309   402.56325     0.00000    -0.00000    -0.00000
  Fock        0.00000     0.00000     0.00000     0.00000     0.00000     0.00000
  -------------------------------------------------------------------------------------
  Total       5.88834     7.80742     1.54908     0.00000    -0.00000    -0.00000
  in kB      54.40667    72.13846    14.31311     0.00002    -0.00001    -0.00000
  external pressure =       46.95 kB  Pullay stress =        0.00 kB


 VOLUME and BASIS-vectors are now :
 -----------------------------------------------------------------------------
  energy-cutoff  :      360.00
  volume of cell :      173.40
      direct lattice vectors                 reciprocal lattice vectors
     4.150000000  0.000000000  0.000000000     0.240963855  0.000000000  0.000000000
     0.000000000  3.750000000  0.000000000     0.000000000  0.266666667  0.000000000
     0.000000000  0.000000000 11.142221000     0.000000000  0.000000000  0.089748713

  length of vectors
     4.150000000  3.750000000 11.142221000     0.240963855  0.266666667  0.089748713


 FORCES acting on ions
    electron-ion (+dipol)            ewald-force                    non-local-force                 convergence-correction
 -----------------------------------------------------------------------------------------------
   0.120E+02 -.483E-06 0.248E+02   -.140E+02 -.118E-14 -.274E+02   0.199E+01 -.120E-06 0.260E+01   0.791E-04 0.580E-06 -.946E-03
   0.120E+02 0.670E-06 -.248E+02   -.140E+02 0.963E-15 0.274E+02   0.199E+01 -.477E-06 -.260E+01   0.805E-04 -.206E-06 0.948E-03
   -.120E+02 0.563E-06 -.248E+02   0.140E+02 0.234E-15 0.274E+02   -.199E+01 -.189E-06 -.260E+01   -.788E-04 -.489E-06 0.943E-03
   -.120E+02 0.547E-07 0.248E+02   0.140E+02 -.403E-14 -.274E+02   -.199E+01 0.156E-06 0.260E+01   -.811E-04 -.239E-06 -.947E-03
   -.112E+02 0.105E-05 -.248E+02   0.124E+02 -.275E-14 0.261E+02   -.113E+01 -.600E-06 -.130E+01   0.330E-06 0.296E-06 0.179E-02
   -.112E+02 0.448E-05 0.248E+02   0.124E+02 0.148E-14 -.261E+02   -.113E+01 -.215E-05 0.130E+01   0.371E-05 -.213E-05 -.179E-02
   0.112E+02 -.156E-05 0.248E+02   -.124E+02 0.633E-14 -.261E+02   0.113E+01 0.574E-06 0.130E+01   -.198E-05 0.670E-06 -.179E-02
   0.112E+02 -.386E-05 -.248E+02   -.124E+02 -.151E-14 0.261E+02   0.113E+01 0.166E-05 -.130E+01   -.284E-05 0.138E-05 0.179E-02
 -----------------------------------------------------------------------------------------------
   0.659E-06 0.914E-06 0.215E-05   -.711E-14 -.469E-15 -.320E-13   0.409E-06 -.115E-05 -.112E-06   -.119E-05 -.136E-06 -.192E-05
 
 
 POSITION                                       TOTAL-FORCE (eV/Angst)
 -----------------------------------------------------------------------------------
      0.41950      0.93750      1.36409        -0.043918      0.000000      0.005136
      2.49450      2.81250      4.20702        -0.043917      0.000000     -0.005136
      3.73050      2.81250      9.77813         0.043918     -0.000000     -0.005136
      1.65550      0.93750      6.93520         0.043917      0.000000      0.005137
      0.08369      0.93750      3.95671         0.052004      0.000001     -0.002001
      2.15869      2.81250      1.61440         0.052003      0.000000      0.002001
      4.06631      2.81250      7.18551        -0.052003     -0.000000      0.002001
      1.99131      0.93750      9.52782        -0.052004     -0.000001     -0.002001
 -----------------------------------------------------------------------------------
    total drift:                               -0.000000     -0.000000      0.000000


--------------------------------------------------------------------------------------------------------



  FREE ENERGIE OF THE ION-ELECTRON SYSTEM (eV)
  ---------------------------------------------------
  free  energy   TOTEN  =       -33.45703804 eV

  energy  without entropy=      -33.45692827  energy(sigma->0) =      -33.45698316
 


--------------------------------------------------------------------------------------------------------


    POTLOK:  cpu time      0.1136: real time      0.1144


--------------------------------------------------------------------------------------------------------


     LOOP+:  cpu time      4.8438: real time      4.8808
    4ORBIT:  cpu time      0.0000: real time      0.0000

 total amount of memory used by VASP MPI-rank0    37453. kBytes
=======================================================================

   base      :      30000. kBytes
   nonl-proj :       5812. kBytes
   fftplans  :        288. kBytes
   grid      :        416. kBytes
   one-center:         16. kBytes
   wavefun   :        921. kBytes
 
  
  
 General timing and accounting informations for this job:
 ========================================================
  
                  Total CPU time used (sec):        5.556
                            User time (sec):        5.331
                          System time (sec):        0.225
                         Elapsed time (sec):        7.126
  
                   Maximum memory used (kb):      188044.
                   Average memory used (kb):          N/A
  
                          Minor page faults:        20997
                          Major page faults:           31
                 Voluntary context switches:         2792
