 vasp.6.4.2 20Jul23 (build Oct 12 2023 10:31:02) complex                         
 executed on              LinuxNV date 2025.05.29  02:03:20
 running  128 mpi-ranks, with    1 threads/rank, on    2 nodes
 distrk:  each k-point on   64 cores,    2 groups
 distr:  one band on NCORE=   4 cores,   16 groups


--------------------------------------------------------------------------------------------------------


 INCAR:
   ENCUT = 360.000000
   SIGMA = 0.050000
   EDIFF = 1.00e-06
   ALGO = Normal
   GGA = PE
   PREC = Normal
   SYSTEM = ./
   ICHARG = 2
   ISMEAR = 0
   ISPIN = 1
   ISTART = 0
   ISYM = 0
   KPAR = 2
   LMAXMIX = 4
   NELM = 100
   NPAR = 16
   LASPH = .TRUE.
   LCHARG = .FALSE.
   LWAVE = .FALSE.

 POTCAR:    PAW_PBE Ge 05Jan2001                  
 POTCAR:    PAW_PBE Se 06Sep2000                  
 POTCAR:    PAW_PBE Ge 05Jan2001                  
   VRHFIN =Ge: s2p2                                                                                 
   LEXCH  = PE                                                                                      
   EATOM  =   104.9960 eV,    7.7170 Ry                                                             
                                                                                                    
   TITEL  = PAW_PBE Ge 05Jan2001                                                                    
   LULTRA =        F    use ultrasoft PP ?                                                          
   IUNSCR =        1    unscreen: 0-lin 1-nonlin 2-no                                               
   RPACOR =    2.170    partial core radius                                                         
   POMASS =   72.610; ZVAL   =    4.000    mass and valenz                                          
   RCORE  =    2.300    outmost cutoff radius                                                       
   RWIGS  =    2.300; RWIGS  =    1.217    wigner-seitz radius (au A)                               
   ENMAX  =  173.807; ENMIN  =  130.355 eV                                                          
   ICORE  =        3    local potential                                                             
   LCOR   =        T    correct aug charges                                                         
   LPAW   =        T    paw PP                                                                      
   EAUG   =  385.843                                                                                
   DEXC   =    0.000                                                                                
   RMAX   =    2.342    core radius for proj-oper                                                   
   RAUG   =    1.300    factor for augmentation sphere                                              
   RDEP   =    2.318    radius for radial grids                                                     
   RDEPT  =    2.103    core radius for aug-charge                                                  
                                                                                                    
   Atomic configuration                                                                             
   10 entries                                                                                       
     n  l   j            E        occ.                                                              
     1  0  0.50    -10959.8463   2.0000                                                             
     2  0  0.50     -1371.6056   2.0000                                                             
     2  1  1.50     -1198.4791   6.0000                                                             
     3  0  0.50      -168.4733   2.0000                                                             
     3  1  1.50      -115.6019   6.0000                                                             
     3  2  2.50       -29.3106  10.0000                                                             
     4  0  0.50       -11.7309   2.0000                                                             
     4  1  0.50        -3.8952   2.0000                                                             
     4  2  1.50        -4.0817   0.0000                                                             
     4  3  2.50        -4.0817   0.0000                                                             
   Description                                                                                      
     l       E           TYP  RCUT    TYP  RCUT                                                     
     0    -11.7309493     23  2.300                                                                 
     0     -7.4578696     23  2.300                                                                 
     1     -3.8952261     23  2.300                                                                 
     1      6.1178114     23  2.300                                                                 
     2     -4.0817478     23  2.300                                                                 
     3     -1.3605826      7  2.300                                                                 
  local pseudopotential read in
  partial core-charges read in
  partial kinetic energy density read in
  atomic valenz-charges read in
  non local Contribution for L=            0  read in
    real space projection operators read in
  non local Contribution for L=            0  read in
    real space projection operators read in
  non local Contribution for L=            1  read in
    real space projection operators read in
  non local Contribution for L=            1  read in
    real space projection operators read in
  non local Contribution for L=            2  read in
    real space projection operators read in
    PAW grid and wavefunctions read in
 
   number of l-projection  operators is LMAX  =            5
   number of lm-projection operators is LMMAX =           13
 
 POTCAR:    PAW_PBE Se 06Sep2000                  
   VRHFIN =Se: s2p4                                                                                 
   LEXCH  = PE                                                                                      
   EATOM  =   257.1286 eV,   18.8984 Ry                                                             
                                                                                                    
   TITEL  = PAW_PBE Se 06Sep2000                                                                    
   LULTRA =        F    use ultrasoft PP ?                                                          
   IUNSCR =        1    unscreen: 0-lin 1-nonlin 2-no                                               
   RPACOR =    1.900    partial core radius                                                         
   POMASS =   78.960; ZVAL   =    6.000    mass and valenz                                          
   RCORE  =    2.100    outmost cutoff radius                                                       
   RWIGS  =    2.200; RWIGS  =    1.164    wigner-seitz radius (au A)                               
   ENMAX  =  211.555; ENMIN  =  158.666 eV                                                          
   ICORE  =        3    local potential                                                             
   LCOR   =        T    correct aug charges                                                         
   LPAW   =        T    paw PP                                                                      
   EAUG   =  446.842                                                                                
   DEXC   =    0.000                                                                                
   RMAX   =    2.147    core radius for proj-oper                                                   
   RAUG   =    1.300    factor for augmentation sphere                                              
   RDEP   =    2.177    radius for radial grids                                                     
   RDEPT  =    1.928    core radius for aug-charge                                                  
                                                                                                    
   Atomic configuration                                                                             
   10 entries                                                                                       
     n  l   j            E        occ.                                                              
     1  0  0.50    -12503.4787   2.0000                                                             
     2  0  0.50     -1606.9547   2.0000                                                             
     2  1  1.50     -1413.3140   6.0000                                                             
     3  0  0.50      -213.4885   2.0000                                                             
     3  1  1.50      -152.9538   6.0000                                                             
     3  2  2.50       -53.1221  10.0000                                                             
     4  0  0.50       -17.2865   2.0000                                                             
     4  1  0.50        -6.5110   4.0000                                                             
     4  2  2.50        -6.8029   0.0000                                                             
     4  3  2.50        -6.8029   0.0000                                                             
   Description                                                                                      
     l       E           TYP  RCUT    TYP  RCUT                                                     
     0    -17.2865377     23  2.100                                                                 
     0    -15.3094411     23  2.100                                                                 
     1     -6.5110275     23  2.100                                                                 
     1     -0.0695192     23  2.100                                                                 
     2     -6.8029130     23  2.100                                                                 
     3     -1.3605826      7  2.100                                                                 
  local pseudopotential read in
  partial core-charges read in
  partial kinetic energy density read in
  atomic valenz-charges read in
  non local Contribution for L=            0  read in
    real space projection operators read in
  non local Contribution for L=            0  read in
    real space projection operators read in
  non local Contribution for L=            1  read in
    real space projection operators read in
  non local Contribution for L=            1  read in
    real space projection operators read in
  non local Contribution for L=            2  read in
    real space projection operators read in
    PAW grid and wavefunctions read in
 
   number of l-projection  operators is LMAX  =            5
   number of lm-projection operators is LMMAX =           13
 
  PAW_PBE Ge 05Jan2001                  :
 energy of atom  1       EATOM= -104.9960
 kinetic energy error for atom=    0.0005 (will be added to EATOM!!)
  PAW_PBE Se 06Sep2000                  :
 energy of atom  2       EATOM= -257.1286
 kinetic energy error for atom=    0.0030 (will be added to EATOM!!)
 
 
 POSCAR: Ge Se
  positions in cartesian coordinates
  No initial velocities read in
 exchange correlation table for  LEXCH =        8
   RHO(1)=    0.500       N(1)  =     2000
   RHO(2)=  100.500       N(2)  =     4000
 


--------------------------------------------------------------------------------------------------------


 ion  position               nearest neighbor table
   1  0.886  0.250  0.132-   5 2.55   6 2.72   6 2.72
   2  0.386  0.750  0.368-   6 2.55   5 2.72   5 2.72
   3  0.114  0.750  0.868-   7 2.55   8 2.72   8 2.72
   4  0.614  0.250  0.632-   8 2.55   7 2.72   7 2.72
   5  0.048  0.250  0.350-   1 2.55   2 2.72   2 2.72
   6  0.548  0.750  0.150-   2 2.55   1 2.72   1 2.72
   7  0.952  0.750  0.650-   3 2.55   4 2.72   4 2.72
   8  0.452  0.250  0.850-   4 2.55   3 2.72   3 2.72
 

IMPORTANT INFORMATION: All symmetrisations will be switched off!
NOSYMM: (Re-)initialisation of all symmetry stuff for point group C_1.


----------------------------------------------------------------------------------------

                                     Primitive cell                                     

  volume of cell :     232.6496

  direct lattice vectors                    reciprocal lattice vectors
     4.800000000  0.000000000  0.000000000     0.208333333  0.000000000  0.000000000
     0.000000000  4.350000000  0.000000000     0.000000000  0.229885057  0.000000000
     0.000000000  0.000000000 11.142221000     0.000000000  0.000000000  0.089748713

  length of vectors
     4.800000000  4.350000000 11.142221000     0.208333333  0.229885057  0.089748713

  position of ions in fractional coordinates (direct lattice)
     0.885616582  0.250000000  0.131810286
     0.385616582  0.750000000  0.368189714
     0.114383418  0.750000000  0.868189714
     0.614383418  0.250000000  0.631810286
     0.047538791  0.250000000  0.349771841
     0.547538791  0.750000000  0.150228159
     0.952461209  0.750000000  0.650228159
     0.452461209  0.250000000  0.849771841

  ion indices of the primitive-cell ions
   primitive index   ion index
                 1           1
                 2           2
                 3           3
                 4           4
                 5           5
                 6           6
                 7           7
                 8           8

----------------------------------------------------------------------------------------

 
 
 KPOINTS: KPOINTS created by Atomic Simulation Env

Automatic generation of k-mesh.
 Grid dimensions read from file:
 generate k-points for:    6    6    2

 Generating k-lattice:

  Cartesian coordinates                     Fractional coordinates (reciprocal lattice)
     0.034722222  0.000000000  0.000000000     0.166666667  0.000000000  0.000000000
     0.000000000  0.038314176  0.000000000     0.000000000  0.166666667  0.000000000
     0.000000000  0.000000000  0.044874357     0.000000000  0.000000000  0.500000000

  Length of vectors
     0.034722222  0.038314176  0.044874357

  Shift w.r.t. Gamma in fractional coordinates (k-lattice)
     0.000000000  0.000000000  0.000000000

 
 Subroutine IBZKPT returns following result:
 ===========================================
 
 Found     40 irreducible k-points:
 
 Following reciprocal coordinates:
            Coordinates               Weight
  0.000000  0.000000  0.000000      1.000000
  0.166667  0.000000  0.000000      2.000000
  0.333333  0.000000  0.000000      2.000000
  0.500000  0.000000  0.000000      1.000000
  0.000000  0.166667  0.000000      2.000000
  0.166667  0.166667  0.000000      2.000000
 -0.166667  0.166667  0.000000      2.000000
  0.333333  0.166667  0.000000      2.000000
 -0.333333  0.166667  0.000000      2.000000
  0.500000  0.166667  0.000000      2.000000
  0.000000  0.333333  0.000000      2.000000
  0.166667  0.333333  0.000000      2.000000
 -0.166667  0.333333  0.000000      2.000000
  0.333333  0.333333  0.000000      2.000000
 -0.333333  0.333333  0.000000      2.000000
  0.500000  0.333333  0.000000      2.000000
  0.000000  0.500000  0.000000      1.000000
  0.166667  0.500000  0.000000      2.000000
  0.333333  0.500000  0.000000      2.000000
  0.500000  0.500000  0.000000      1.000000
  0.000000  0.000000  0.500000      1.000000
  0.166667  0.000000  0.500000      2.000000
  0.333333  0.000000  0.500000      2.000000
  0.500000  0.000000  0.500000      1.000000
  0.000000  0.166667  0.500000      2.000000
  0.166667  0.166667  0.500000      2.000000
 -0.166667  0.166667  0.500000      2.000000
  0.333333  0.166667  0.500000      2.000000
 -0.333333  0.166667  0.500000      2.000000
  0.500000  0.166667  0.500000      2.000000
  0.000000  0.333333  0.500000      2.000000
  0.166667  0.333333  0.500000      2.000000
 -0.166667  0.333333  0.500000      2.000000
  0.333333  0.333333  0.500000      2.000000
 -0.333333  0.333333  0.500000      2.000000
  0.500000  0.333333  0.500000      2.000000
  0.000000  0.500000  0.500000      1.000000
  0.166667  0.500000  0.500000      2.000000
  0.333333  0.500000  0.500000      2.000000
  0.500000  0.500000  0.500000      1.000000
 
 Following cartesian coordinates:
            Coordinates               Weight
  0.000000  0.000000  0.000000      1.000000
  0.034722  0.000000  0.000000      2.000000
  0.069444  0.000000  0.000000      2.000000
  0.104167  0.000000  0.000000      1.000000
  0.000000  0.038314  0.000000      2.000000
  0.034722  0.038314  0.000000      2.000000
 -0.034722  0.038314  0.000000      2.000000
  0.069444  0.038314  0.000000      2.000000
 -0.069444  0.038314  0.000000      2.000000
  0.104167  0.038314  0.000000      2.000000
  0.000000  0.076628  0.000000      2.000000
  0.034722  0.076628  0.000000      2.000000
 -0.034722  0.076628  0.000000      2.000000
  0.069444  0.076628  0.000000      2.000000
 -0.069444  0.076628  0.000000      2.000000
  0.104167  0.076628  0.000000      2.000000
  0.000000  0.114943  0.000000      1.000000
  0.034722  0.114943  0.000000      2.000000
  0.069444  0.114943  0.000000      2.000000
  0.104167  0.114943  0.000000      1.000000
  0.000000  0.000000  0.044874      1.000000
  0.034722  0.000000  0.044874      2.000000
  0.069444  0.000000  0.044874      2.000000
  0.104167  0.000000  0.044874      1.000000
  0.000000  0.038314  0.044874      2.000000
  0.034722  0.038314  0.044874      2.000000
 -0.034722  0.038314  0.044874      2.000000
  0.069444  0.038314  0.044874      2.000000
 -0.069444  0.038314  0.044874      2.000000
  0.104167  0.038314  0.044874      2.000000
  0.000000  0.076628  0.044874      2.000000
  0.034722  0.076628  0.044874      2.000000
 -0.034722  0.076628  0.044874      2.000000
  0.069444  0.076628  0.044874      2.000000
 -0.069444  0.076628  0.044874      2.000000
  0.104167  0.076628  0.044874      2.000000
  0.000000  0.114943  0.044874      1.000000
  0.034722  0.114943  0.044874      2.000000
  0.069444  0.114943  0.044874      2.000000
  0.104167  0.114943  0.044874      1.000000
 


--------------------------------------------------------------------------------------------------------




 Dimension of arrays:
   k-points           NKPTS =     40   k-points in BZ     NKDIM =     40   number of bands    NBANDS=     32
   number of dos      NEDOS =    301   number of ions     NIONS =      8
   non local maximal  LDIM  =      5   non local SUM 2l+1 LMDIM =     13
   total plane-waves  NPLWV =  25920
   max r-space proj   IRMAX =      1   max aug-charges    IRDMAX=   6254
   dimension x,y,z NGX =    24 NGY =   20 NGZ =   54
   dimension x,y,z NGXF=    48 NGYF=   40 NGZF=  108
   support grid    NGXF=    48 NGYF=   40 NGZF=  108
   ions per type =               4   4
   NGX,Y,Z   is equivalent  to a cutoff of   8.31,  7.64,  8.06 a.u.
   NGXF,Y,Z  is equivalent  to a cutoff of  16.62, 15.29, 16.11 a.u.

 SYSTEM =  ./                                      
 POSCAR =  Ge Se                                   

 Startparameter for this run:
   NWRITE =      2    write-flag & timer
   PREC   = normal    normal or accurate (medium, high low for compatibility)
   ISTART =      0    job   : 0-new  1-cont  2-samecut
   ICHARG =      2    charge: 1-file 2-atom 10-const
   ISPIN  =      1    spin polarized calculation?
   LNONCOLLINEAR =      F non collinear calculations
   LSORBIT =      F    spin-orbit coupling
   INIWAV =      1    electr: 0-lowe 1-rand  2-diag
   LASPH  =      T    aspherical Exc in radial PAW
 Electronic Relaxation 1
   ENCUT  =  360.0 eV  26.46 Ry    5.14 a.u.   7.43  6.73 17.24*2*pi/ulx,y,z
   ENINI  =  360.0     initial cutoff
   ENAUG  =  446.8 eV  augmentation charge cutoff
   NELM   =    100;   NELMIN=  2; NELMDL= -5     # of ELM steps 
   EDIFF  = 0.1E-05   stopping-criterion for ELM
   LREAL  =      F    real-space projection
   NLSPLINE    = F    spline interpolate recip. space projectors
   LCOMPAT=      F    compatible to vasp.4.4
   GGA_COMPAT  = T    GGA compatible to vasp.4.4-vasp.4.6
   LMAXPAW     = -100 max onsite density
   LMAXMIX     =    4 max onsite mixed and CHGCAR
   VOSKOWN=      0    Vosko Wilk Nusair interpolation
   ROPT   =    0.00000   0.00000
 Ionic relaxation
   EDIFFG = 0.1E-04   stopping-criterion for IOM
   NSW    =      0    number of steps for IOM
   NBLOCK =      1;   KBLOCK =      1    inner block; outer block 
   IBRION =     -1    ionic relax: 0-MD 1-quasi-New 2-CG
   NFREE  =      0    steps in history (QN), initial steepest desc. (CG)
   ISIF   =      2    stress and relaxation
   IWAVPR =     10    prediction:  0-non 1-charg 2-wave 3-comb
   ISYM   =      0    0-nonsym 1-usesym 2-fastsym
   LCORR  =      T    Harris-Foulkes like correction to forces

   POTIM  = 0.5000    time-step for ionic-motion
   TEIN   =    0.0    initial temperature
   TEBEG  =    0.0;   TEEND  =   0.0 temperature during run
   SMASS  =  -3.00    Nose mass-parameter (am)
   estimated Nose-frequenzy (Omega)   =  0.10E-29 period in steps = 0.13E+47 mass=  -0.527E-27a.u.
   SCALEE = 1.0000    scale energy and forces
   NPACO  =    256;   APACO  = 10.0  distance and # of slots for P.C.
   PSTRESS=    0.0 pullay stress

  Mass of Ions in am
   POMASS =  72.61 78.96
  Ionic Valenz
   ZVAL   =   4.00  6.00
  Atomic Wigner-Seitz radii
   RWIGS  =  -1.00 -1.00
  virtual crystal weights 
   VCA    =   1.00  1.00
   NELECT =      40.0000    total number of electrons
   NUPDOWN=      -1.0000    fix difference up-down

 DOS related values:
   EMIN   =  10.00;   EMAX   =-10.00  energy-range for DOS
   EFERMI =   0.00;   METHOD = LEGACY      
   ISMEAR =     0;   SIGMA  =   0.05  broadening in eV -4-tet -1-fermi 0-gaus

 Electronic relaxation 2 (details)
   IALGO  =     38    algorithm
   LDIAG  =      T    sub-space diagonalisation (order eigenvalues)
   LSUBROT=      F    optimize rotation matrix (better conditioning)
   TURBO    =      0    0=normal 1=particle mesh
   IRESTART =      0    0=no restart 2=restart with 2 vectors
   NREBOOT  =      0    no. of reboots
   NMIN     =      0    reboot dimension
   EREF     =   0.00    reference energy to select bands
   IMIX   =      4    mixing-type and parameters
     AMIX     =   0.40;   BMIX     =  1.00
     AMIX_MAG =   1.60;   BMIX_MAG =  1.00
     AMIN     =   0.10
     WC   =   100.;   INIMIX=   1;  MIXPRE=   1;  MAXMIX= -45

 Intra band minimization:
   WEIMIN = 0.0000     energy-eigenvalue tresh-hold
   EBREAK =  0.78E-08  absolut break condition
   DEPER  =   0.30     relativ break condition  

   TIME   =   0.40     timestep for ELM

  volume/ion in A,a.u.               =      29.08       196.25
  Fermi-wavevector in a.u.,A,eV,Ry     =   0.910320  1.720255 11.274909  0.828682
  Thomas-Fermi vector in A             =   2.034468
 
 Write flags
   LWAVE        =      F    write WAVECAR
   LDOWNSAMPLE  =      F    k-point downsampling of WAVECAR
   LCHARG       =      F    write CHGCAR
   LVTOT        =      F    write LOCPOT, total local potential
   LVHAR        =      F    write LOCPOT, Hartree potential only
   LELF         =      F    write electronic localiz. function (ELF)
   LORBIT       =      0    0 simple, 1 ext, 2 COOP (PROOUT), +10 PAW based schemes


 Dipole corrections
   LMONO  =      F    monopole corrections only (constant potential shift)
   LDIPOL =      F    correct potential (dipole corrections)
   IDIPOL =      0    1-x, 2-y, 3-z, 4-all directions 
   EPSILON=  1.0000000 bulk dielectric constant

 Exchange correlation treatment:
   GGA     =    PE    GGA type
   LEXCH   =     8    internal setting for exchange type
   LIBXC   =     F    Libxc                    
   VOSKOWN =     0    Vosko Wilk Nusair interpolation
   LHFCALC =     F    Hartree Fock is set to
   LHFONE  =     F    Hartree Fock one center treatment
   AEXX    =    0.0000 exact exchange contribution

 Linear response parameters
   LEPSILON=     F    determine dielectric tensor
   LRPA    =     F    only Hartree local field effects (RPA)
   LNABLA  =     F    use nabla operator in PAW spheres
   LVEL    =     F    velocity operator in full k-point grid
   CSHIFT  =0.1000    complex shift for real part using Kramers Kronig
   OMEGAMAX=  -1.0    maximum frequency
   DEG_THRESHOLD= 0.2000000E-02 threshold for treating states as degnerate
   RTIME   =   -0.100 relaxation time in fs
  (WPLASMAI=    0.000 imaginary part of plasma frequency in eV, 0.658/RTIME)
   DFIELD  = 0.0000000 0.0000000 0.0000000 field for delta impulse in time
 
  Optional k-point grid parameters
   LKPOINTS_OPT  =     F    use optional k-point grid
   KPOINTS_OPT_MODE=     1    mode for optional k-point grid
 
 Orbital magnetization related:
   ORBITALMAG=     F  switch on orbital magnetization
   LCHIMAG   =     F  perturbation theory with respect to B field
   DQ        =  0.001000  dq finite difference perturbation B field
   LLRAUG    =     F  two centre corrections for induced B field
   LBONE     =     F  B-component reconstruction in AE one-centre
   LVGVCALC  =     T  calculate vGv susceptibility
   LVGVAPPL  =     F  apply vGv susceptibility instead of pGv for G=0

 Random number generation:
   RANDOM_GENERATOR = DEFAULT
   PCG_SEED         = not used


--------------------------------------------------------------------------------------------------------


 Static calculation
 charge density and potential will be updated during run
 non-spin polarized calculation
 Variant of blocked Davidson
 Davidson routine will perform the subspace rotation
 perform sub-space diagonalisation
    after iterative eigenvector-optimisation
 modified Broyden-mixing scheme, WC =      100.0
 initial mixing is a Kerker type mixing with AMIX =  0.4000 and BMIX =      1.0000
 Hartree-type preconditioning will be used
 using additional bands            12
 reciprocal scheme for non local part
 use partial core corrections
 calculate Harris-corrections to forces 
   (improved forces if not selfconsistent)
 use gradient corrections 
 use of overlap-Matrix (Vanderbilt PP)
 Gauss-broadening in eV      SIGMA  =   0.05


--------------------------------------------------------------------------------------------------------


  energy-cutoff  :      360.00
  volume of cell :      232.65
      direct lattice vectors                 reciprocal lattice vectors
     4.800000000  0.000000000  0.000000000     0.208333333  0.000000000  0.000000000
     0.000000000  4.350000000  0.000000000     0.000000000  0.229885057  0.000000000
     0.000000000  0.000000000 11.142221000     0.000000000  0.000000000  0.089748713

  length of vectors
     4.800000000  4.350000000 11.142221000     0.208333333  0.229885057  0.089748713


 
 k-points in units of 2pi/SCALE and weight: KPOINTS created by Atomic Simulation Env
   0.00000000  0.00000000  0.00000000       0.014
   0.03472222  0.00000000  0.00000000       0.028
   0.06944444  0.00000000  0.00000000       0.028
   0.10416667  0.00000000  0.00000000       0.014
   0.00000000  0.03831418  0.00000000       0.028
   0.03472222  0.03831418  0.00000000       0.028
  -0.03472222  0.03831418  0.00000000       0.028
   0.06944444  0.03831418  0.00000000       0.028
  -0.06944444  0.03831418  0.00000000       0.028
   0.10416667  0.03831418  0.00000000       0.028
   0.00000000  0.07662835  0.00000000       0.028
   0.03472222  0.07662835  0.00000000       0.028
  -0.03472222  0.07662835  0.00000000       0.028
   0.06944444  0.07662835  0.00000000       0.028
  -0.06944444  0.07662835  0.00000000       0.028
   0.10416667  0.07662835  0.00000000       0.028
   0.00000000  0.11494253  0.00000000       0.014
   0.03472222  0.11494253  0.00000000       0.028
   0.06944444  0.11494253  0.00000000       0.028
   0.10416667  0.11494253  0.00000000       0.014
   0.00000000  0.00000000  0.04487436       0.014
   0.03472222  0.00000000  0.04487436       0.028
   0.06944444  0.00000000  0.04487436       0.028
   0.10416667  0.00000000  0.04487436       0.014
   0.00000000  0.03831418  0.04487436       0.028
   0.03472222  0.03831418  0.04487436       0.028
  -0.03472222  0.03831418  0.04487436       0.028
   0.06944444  0.03831418  0.04487436       0.028
  -0.06944444  0.03831418  0.04487436       0.028
   0.10416667  0.03831418  0.04487436       0.028
   0.00000000  0.07662835  0.04487436       0.028
   0.03472222  0.07662835  0.04487436       0.028
  -0.03472222  0.07662835  0.04487436       0.028
   0.06944444  0.07662835  0.04487436       0.028
  -0.06944444  0.07662835  0.04487436       0.028
   0.10416667  0.07662835  0.04487436       0.028
   0.00000000  0.11494253  0.04487436       0.014
   0.03472222  0.11494253  0.04487436       0.028
   0.06944444  0.11494253  0.04487436       0.028
   0.10416667  0.11494253  0.04487436       0.014
 
 k-points in reciprocal lattice and weights: KPOINTS created by Atomic Simulation Env
   0.00000000  0.00000000  0.00000000       0.014
   0.16666667  0.00000000  0.00000000       0.028
   0.33333333  0.00000000  0.00000000       0.028
   0.50000000  0.00000000  0.00000000       0.014
   0.00000000  0.16666667  0.00000000       0.028
   0.16666667  0.16666667  0.00000000       0.028
  -0.16666667  0.16666667  0.00000000       0.028
   0.33333333  0.16666667  0.00000000       0.028
  -0.33333333  0.16666667  0.00000000       0.028
   0.50000000  0.16666667  0.00000000       0.028
   0.00000000  0.33333333  0.00000000       0.028
   0.16666667  0.33333333  0.00000000       0.028
  -0.16666667  0.33333333  0.00000000       0.028
   0.33333333  0.33333333  0.00000000       0.028
  -0.33333333  0.33333333  0.00000000       0.028
   0.50000000  0.33333333  0.00000000       0.028
   0.00000000  0.50000000  0.00000000       0.014
   0.16666667  0.50000000  0.00000000       0.028
   0.33333333  0.50000000  0.00000000       0.028
   0.50000000  0.50000000  0.00000000       0.014
   0.00000000  0.00000000  0.50000000       0.014
   0.16666667  0.00000000  0.50000000       0.028
   0.33333333  0.00000000  0.50000000       0.028
   0.50000000  0.00000000  0.50000000       0.014
   0.00000000  0.16666667  0.50000000       0.028
   0.16666667  0.16666667  0.50000000       0.028
  -0.16666667  0.16666667  0.50000000       0.028
   0.33333333  0.16666667  0.50000000       0.028
  -0.33333333  0.16666667  0.50000000       0.028
   0.50000000  0.16666667  0.50000000       0.028
   0.00000000  0.33333333  0.50000000       0.028
   0.16666667  0.33333333  0.50000000       0.028
  -0.16666667  0.33333333  0.50000000       0.028
   0.33333333  0.33333333  0.50000000       0.028
  -0.33333333  0.33333333  0.50000000       0.028
   0.50000000  0.33333333  0.50000000       0.028
   0.00000000  0.50000000  0.50000000       0.014
   0.16666667  0.50000000  0.50000000       0.028
   0.33333333  0.50000000  0.50000000       0.028
   0.50000000  0.50000000  0.50000000       0.014
 
 position of ions in fractional coordinates (direct lattice) 
   0.88561658  0.25000000  0.13181029
   0.38561658  0.75000000  0.36818971
   0.11438342  0.75000000  0.86818971
   0.61438342  0.25000000  0.63181029
   0.04753879  0.25000000  0.34977184
   0.54753879  0.75000000  0.15022816
   0.95246121  0.75000000  0.65022816
   0.45246121  0.25000000  0.84977184
 
 position of ions in cartesian coordinates  (Angst):
   4.25095959  1.08750000  1.46865934
   1.85095959  3.26250000  4.10245116
   0.54904041  3.26250000  9.67356166
   2.94904041  1.08750000  7.03976984
   0.22818620  1.08750000  3.89723516
   2.62818620  3.26250000  1.67387534
   4.57181380  3.26250000  7.24498584
   2.17181380  1.08750000  9.46834566
 


--------------------------------------------------------------------------------------------------------


 k-point   1 :   0.0000 0.0000 0.0000  plane waves:    3597
 k-point   2 :   0.1667 0.0000 0.0000  plane waves:    3615
 k-point   3 :   0.3333 0.0000 0.0000  plane waves:    3599
 k-point   4 :   0.5000 0.0000 0.0000  plane waves:    3618
 k-point   5 :   0.0000 0.1667 0.0000  plane waves:    3611
 k-point   6 :   0.1667 0.1667 0.0000  plane waves:    3609
 k-point   7 :  -0.1667 0.1667 0.0000  plane waves:    3609
 k-point   8 :   0.3333 0.1667 0.0000  plane waves:    3613
 k-point   9 :  -0.3333 0.1667 0.0000  plane waves:    3613
 k-point  10 :   0.5000 0.1667 0.0000  plane waves:    3608
 k-point  11 :   0.0000 0.3333 0.0000  plane waves:    3632
 k-point  12 :   0.1667 0.3333 0.0000  plane waves:    3619
 k-point  13 :  -0.1667 0.3333 0.0000  plane waves:    3619
 k-point  14 :   0.3333 0.3333 0.0000  plane waves:    3600
 k-point  15 :  -0.3333 0.3333 0.0000  plane waves:    3600
 k-point  16 :   0.5000 0.3333 0.0000  plane waves:    3580
 k-point  17 :   0.0000 0.5000 0.0000  plane waves:    3622
 k-point  18 :   0.1667 0.5000 0.0000  plane waves:    3626
 k-point  19 :   0.3333 0.5000 0.0000  plane waves:    3598
 k-point  20 :   0.5000 0.5000 0.0000  plane waves:    3588
 k-point  21 :   0.0000 0.0000 0.5000  plane waves:    3618
 k-point  22 :   0.1667 0.0000 0.5000  plane waves:    3622
 k-point  23 :   0.3333 0.0000 0.5000  plane waves:    3620
 k-point  24 :   0.5000 0.0000 0.5000  plane waves:    3580
 k-point  25 :   0.0000 0.1667 0.5000  plane waves:    3620
 k-point  26 :   0.1667 0.1667 0.5000  plane waves:    3596
 k-point  27 :  -0.1667 0.1667 0.5000  plane waves:    3596
 k-point  28 :   0.3333 0.1667 0.5000  plane waves:    3616
 k-point  29 :  -0.3333 0.1667 0.5000  plane waves:    3616
 k-point  30 :   0.5000 0.1667 0.5000  plane waves:    3612
 k-point  31 :   0.0000 0.3333 0.5000  plane waves:    3608
 k-point  32 :   0.1667 0.3333 0.5000  plane waves:    3610
 k-point  33 :  -0.1667 0.3333 0.5000  plane waves:    3610
 k-point  34 :   0.3333 0.3333 0.5000  plane waves:    3602
 k-point  35 :  -0.3333 0.3333 0.5000  plane waves:    3602
 k-point  36 :   0.5000 0.3333 0.5000  plane waves:    3604
 k-point  37 :   0.0000 0.5000 0.5000  plane waves:    3632
 k-point  38 :   0.1667 0.5000 0.5000  plane waves:    3640
 k-point  39 :   0.3333 0.5000 0.5000  plane waves:    3596
 k-point  40 :   0.5000 0.5000 0.5000  plane waves:    3584

 maximum and minimum number of plane-waves per node :       923      884

 maximum number of plane-waves:      3640
 maximum index in each direction: 
   IXMAX=    7   IYMAX=    6   IZMAX=   17
   IXMIN=   -7   IYMIN=   -7   IZMIN=  -17


 parallel 3D FFT for wavefunctions:
    minimum data exchange during FFTs selected (reduces bandwidth)
 parallel 3D FFT for charge:
    minimum data exchange during FFTs selected (reduces bandwidth)


 total amount of memory used by VASP MPI-rank0    39792. kBytes
=======================================================================

   base      :      30000. kBytes
   nonl-proj :       7704. kBytes
   fftplans  :        358. kBytes
   grid      :        506. kBytes
   one-center:         16. kBytes
   wavefun   :       1208. kBytes
 
     INWAV:  cpu time      0.0000: real time      0.0001
 Broyden mixing: mesh for mixing (old mesh)
   NGX = 15   NGY = 13   NGZ = 35
  (NGX  = 48   NGY  = 40   NGZ  =108)
  gives a total of   6825 points

 initial charge density was supplied:
 charge density of overlapping atoms calculated
 number of electron      40.0000000 magnetization 
 keeping initial charge density in first step


--------------------------------------------------------------------------------------------------------


 Maximum index for augmentation-charges           313 (set IRDMAX)


--------------------------------------------------------------------------------------------------------


 First call to EWALD:  gamma=   0.288
 Maximum number of real-space cells 3x 4x 2
 Maximum number of reciprocal cells 2x 2x 5

    FEWALD:  cpu time      0.0017: real time      0.0017


--------------------------------------- Ionic step        1  -------------------------------------------




--------------------------------------- Iteration      1(   1)  ---------------------------------------


    POTLOK:  cpu time      0.0085: real time      0.0088
    SETDIJ:  cpu time      0.1352: real time      0.1357
     EDDAV:  cpu time      0.2658: real time      0.2688
       DOS:  cpu time      0.0014: real time      0.0015
    --------------------------------------------
      LOOP:  cpu time      0.4109: real time      0.4148

 eigenvalue-minimisations  :  2560
 total energy-change (2. order) : 0.1348922E+03  (-0.1247960E+04)
 number of electron      40.0000000 magnetization 
 augmentation part       40.0000000 magnetization 

 Free energy of the ion-electron system (eV)
  ---------------------------------------------------
  alpha Z        PSCENC =        72.83247983
  Ewald energy   TEWEN  =     -1314.95572094
  -Hartree energ DENC   =      -168.04715426
  -exchange      EXHF   =         0.00000000
  -V(xc)+E(xc)   XCENC  =       -35.37113611
  PAW double counting   =      1193.78262552    -1080.73714043
  entropy T*S    EENTRO =        -0.00570106
  eigenvalues    EBANDS =        18.90938477
  atomic energy  EATOM  =      1448.48460880
  Solvation  Ediel_sol  =         0.00000000
  ---------------------------------------------------
  free energy    TOTEN  =       134.89224610 eV

  energy without entropy =      134.89794716  energy(sigma->0) =      134.89509663


--------------------------------------------------------------------------------------------------------




--------------------------------------- Iteration      1(   2)  ---------------------------------------


     EDDAV:  cpu time      0.3471: real time      0.3503
       DOS:  cpu time      0.0006: real time      0.0006
    --------------------------------------------
      LOOP:  cpu time      0.3476: real time      0.3509

 eigenvalue-minimisations  :  3728
 total energy-change (2. order) :-0.1586771E+03  (-0.1538830E+03)
 number of electron      40.0000000 magnetization 
 augmentation part       40.0000000 magnetization 

 Free energy of the ion-electron system (eV)
  ---------------------------------------------------
  alpha Z        PSCENC =        72.83247983
  Ewald energy   TEWEN  =     -1314.95572094
  -Hartree energ DENC   =      -168.04715426
  -exchange      EXHF   =         0.00000000
  -V(xc)+E(xc)   XCENC  =       -35.37113611
  PAW double counting   =      1193.78262552    -1080.73714043
  entropy T*S    EENTRO =        -0.00000000
  eigenvalues    EBANDS =      -139.77337529
  atomic energy  EATOM  =      1448.48460880
  Solvation  Ediel_sol  =         0.00000000
  ---------------------------------------------------
  free energy    TOTEN  =       -23.78481290 eV

  energy without entropy =      -23.78481290  energy(sigma->0) =      -23.78481290


--------------------------------------------------------------------------------------------------------




--------------------------------------- Iteration      1(   3)  ---------------------------------------


     EDDAV:  cpu time      0.3109: real time      0.3142
       DOS:  cpu time      0.0006: real time      0.0006
    --------------------------------------------
      LOOP:  cpu time      0.3114: real time      0.3148

 eigenvalue-minimisations  :  3152
 total energy-change (2. order) :-0.9934976E+01  (-0.9910402E+01)
 number of electron      40.0000000 magnetization 
 augmentation part       40.0000000 magnetization 

 Free energy of the ion-electron system (eV)
  ---------------------------------------------------
  alpha Z        PSCENC =        72.83247983
  Ewald energy   TEWEN  =     -1314.95572094
  -Hartree energ DENC   =      -168.04715426
  -exchange      EXHF   =         0.00000000
  -V(xc)+E(xc)   XCENC  =       -35.37113611
  PAW double counting   =      1193.78262552    -1080.73714043
  entropy T*S    EENTRO =        -0.00000000
  eigenvalues    EBANDS =      -149.70835145
  atomic energy  EATOM  =      1448.48460880
  Solvation  Ediel_sol  =         0.00000000
  ---------------------------------------------------
  free energy    TOTEN  =       -33.71978906 eV

  energy without entropy =      -33.71978906  energy(sigma->0) =      -33.71978906


--------------------------------------------------------------------------------------------------------




--------------------------------------- Iteration      1(   4)  ---------------------------------------


     EDDAV:  cpu time      0.3010: real time      0.3045
       DOS:  cpu time      0.0008: real time      0.0008
    --------------------------------------------
      LOOP:  cpu time      0.3019: real time      0.3053

 eigenvalue-minimisations  :  3072
 total energy-change (2. order) :-0.7953952E-01  (-0.7953292E-01)
 number of electron      40.0000000 magnetization 
 augmentation part       40.0000000 magnetization 

 Free energy of the ion-electron system (eV)
  ---------------------------------------------------
  alpha Z        PSCENC =        72.83247983
  Ewald energy   TEWEN  =     -1314.95572094
  -Hartree energ DENC   =      -168.04715426
  -exchange      EXHF   =         0.00000000
  -V(xc)+E(xc)   XCENC  =       -35.37113611
  PAW double counting   =      1193.78262552    -1080.73714043
  entropy T*S    EENTRO =        -0.00000000
  eigenvalues    EBANDS =      -149.78789097
  atomic energy  EATOM  =      1448.48460880
  Solvation  Ediel_sol  =         0.00000000
  ---------------------------------------------------
  free energy    TOTEN  =       -33.79932857 eV

  energy without entropy =      -33.79932857  energy(sigma->0) =      -33.79932857


--------------------------------------------------------------------------------------------------------




--------------------------------------- Iteration      1(   5)  ---------------------------------------


     EDDAV:  cpu time      0.3090: real time      0.3126
       DOS:  cpu time      0.0006: real time      0.0006
    CHARGE:  cpu time      0.0052: real time      0.0052
    MIXING:  cpu time      0.0007: real time      0.0007
    --------------------------------------------
      LOOP:  cpu time      0.3154: real time      0.3190

 eigenvalue-minimisations  :  3136
 total energy-change (2. order) :-0.5454077E-03  (-0.5454059E-03)
 number of electron      40.0000008 magnetization 
 augmentation part       -7.4212256 magnetization 

 Broyden mixing:
  rms(total) = 0.60366E+00    rms(broyden)= 0.60364E+00
  rms(prec ) = 0.73799E+00
  weight for this iteration     100.00

 Free energy of the ion-electron system (eV)
  ---------------------------------------------------
  alpha Z        PSCENC =        72.83247983
  Ewald energy   TEWEN  =     -1314.95572094
  -Hartree energ DENC   =      -168.04715426
  -exchange      EXHF   =         0.00000000
  -V(xc)+E(xc)   XCENC  =       -35.37113611
  PAW double counting   =      1193.78262552    -1080.73714043
  entropy T*S    EENTRO =        -0.00000000
  eigenvalues    EBANDS =      -149.78843637
  atomic energy  EATOM  =      1448.48460880
  Solvation  Ediel_sol  =         0.00000000
  ---------------------------------------------------
  free energy    TOTEN  =       -33.79987398 eV

  energy without entropy =      -33.79987398  energy(sigma->0) =      -33.79987398


--------------------------------------------------------------------------------------------------------




--------------------------------------- Iteration      1(   6)  ---------------------------------------


    POTLOK:  cpu time      0.0055: real time      0.0057
    SETDIJ:  cpu time      0.1375: real time      0.1381
     EDDAV:  cpu time      0.3156: real time      0.3187
       DOS:  cpu time      0.0006: real time      0.0006
    CHARGE:  cpu time      0.0051: real time      0.0051
    MIXING:  cpu time      0.0006: real time      0.0005
    --------------------------------------------
      LOOP:  cpu time      0.4649: real time      0.4688

 eigenvalue-minimisations  :  2896
 total energy-change (2. order) : 0.6380049E+00  (-0.1489312E+00)
 number of electron      40.0000007 magnetization 
 augmentation part       -7.3394997 magnetization 

 Broyden mixing:
  rms(total) = 0.36969E+00    rms(broyden)= 0.36969E+00
  rms(prec ) = 0.39670E+00
  weight for this iteration     100.00

 eigenvalues of (default mixing * dielectric matrix)
  average eigenvalue GAMMA=   1.7699
  1.7699

 Free energy of the ion-electron system (eV)
  ---------------------------------------------------
  alpha Z        PSCENC =        72.83247983
  Ewald energy   TEWEN  =     -1314.95572094
  -Hartree energ DENC   =      -175.96687738
  -exchange      EXHF   =         0.00000000
  -V(xc)+E(xc)   XCENC  =       -34.67045224
  PAW double counting   =      1416.36807031    -1303.60106032
  entropy T*S    EENTRO =        -0.00000000
  eigenvalues    EBANDS =      -141.65291710
  atomic energy  EATOM  =      1448.48460880
  Solvation  Ediel_sol  =         0.00000000
  ---------------------------------------------------
  free energy    TOTEN  =       -33.16186905 eV

  energy without entropy =      -33.16186905  energy(sigma->0) =      -33.16186905


--------------------------------------------------------------------------------------------------------




--------------------------------------- Iteration      1(   7)  ---------------------------------------


    POTLOK:  cpu time      0.0055: real time      0.0057
    SETDIJ:  cpu time      0.1370: real time      0.1383
     EDDAV:  cpu time      0.2818: real time      0.2846
       DOS:  cpu time      0.0006: real time      0.0006
    CHARGE:  cpu time      0.0050: real time      0.0051
    MIXING:  cpu time      0.0005: real time      0.0005
    --------------------------------------------
      LOOP:  cpu time      0.4305: real time      0.4348

 eigenvalue-minimisations  :  2832
 total energy-change (2. order) : 0.7098139E-02  (-0.2859829E-01)
 number of electron      40.0000007 magnetization 
 augmentation part       -7.3349270 magnetization 

 Broyden mixing:
  rms(total) = 0.16807E+00    rms(broyden)= 0.16807E+00
  rms(prec ) = 0.17998E+00
  weight for this iteration     100.00

 eigenvalues of (default mixing * dielectric matrix)
  average eigenvalue GAMMA=   1.7647
  1.1501  2.3794

 Free energy of the ion-electron system (eV)
  ---------------------------------------------------
  alpha Z        PSCENC =        72.83247983
  Ewald energy   TEWEN  =     -1314.95572094
  -Hartree energ DENC   =      -178.04673832
  -exchange      EXHF   =         0.00000000
  -V(xc)+E(xc)   XCENC  =       -34.30557804
  PAW double counting   =      1630.53883669    -1517.89362495
  entropy T*S    EENTRO =        -0.00000000
  eigenvalues    EBANDS =      -139.80903396
  atomic energy  EATOM  =      1448.48460880
  Solvation  Ediel_sol  =         0.00000000
  ---------------------------------------------------
  free energy    TOTEN  =       -33.15477091 eV

  energy without entropy =      -33.15477091  energy(sigma->0) =      -33.15477091


--------------------------------------------------------------------------------------------------------




--------------------------------------- Iteration      1(   8)  ---------------------------------------


    POTLOK:  cpu time      0.0053: real time      0.0055
    SETDIJ:  cpu time      0.1377: real time      0.1384
     EDDAV:  cpu time      0.2993: real time      0.3022
       DOS:  cpu time      0.0006: real time      0.0006
    CHARGE:  cpu time      0.0049: real time      0.0050
    MIXING:  cpu time      0.0005: real time      0.0005
    --------------------------------------------
      LOOP:  cpu time      0.4484: real time      0.4522

 eigenvalue-minimisations  :  2976
 total energy-change (2. order) :-0.1516040E-03  (-0.2959495E-02)
 number of electron      40.0000007 magnetization 
 augmentation part       -7.3469596 magnetization 

 Broyden mixing:
  rms(total) = 0.18563E-01    rms(broyden)= 0.18563E-01
  rms(prec ) = 0.26121E-01
  weight for this iteration     100.00

 eigenvalues of (default mixing * dielectric matrix)
  average eigenvalue GAMMA=   1.5823
  2.4144  1.1662  1.1662

 Free energy of the ion-electron system (eV)
  ---------------------------------------------------
  alpha Z        PSCENC =        72.83247983
  Ewald energy   TEWEN  =     -1314.95572094
  -Hartree energ DENC   =      -178.49957575
  -exchange      EXHF   =         0.00000000
  -V(xc)+E(xc)   XCENC  =       -34.09685064
  PAW double counting   =      1795.30567475    -1682.71331956
  entropy T*S    EENTRO =        -0.00000000
  eigenvalues    EBANDS =      -139.51221900
  atomic energy  EATOM  =      1448.48460880
  Solvation  Ediel_sol  =         0.00000000
  ---------------------------------------------------
  free energy    TOTEN  =       -33.15492252 eV

  energy without entropy =      -33.15492252  energy(sigma->0) =      -33.15492252


--------------------------------------------------------------------------------------------------------




--------------------------------------- Iteration      1(   9)  ---------------------------------------


    POTLOK:  cpu time      0.0053: real time      0.0055
    SETDIJ:  cpu time      0.1375: real time      0.1382
     EDDAV:  cpu time      0.3057: real time      0.3089
       DOS:  cpu time      0.0005: real time      0.0005
    CHARGE:  cpu time      0.0046: real time      0.0047
    MIXING:  cpu time      0.0005: real time      0.0005
    --------------------------------------------
      LOOP:  cpu time      0.4542: real time      0.4582

 eigenvalue-minimisations  :  3152
 total energy-change (2. order) : 0.1788429E-03  (-0.5920815E-03)
 number of electron      40.0000007 magnetization 
 augmentation part       -7.3428733 magnetization 

 Broyden mixing:
  rms(total) = 0.79636E-02    rms(broyden)= 0.79635E-02
  rms(prec ) = 0.96553E-02
  weight for this iteration     100.00

 eigenvalues of (default mixing * dielectric matrix)
  average eigenvalue GAMMA=   1.7228
  2.3329  2.3329  1.1126  1.1126

 Free energy of the ion-electron system (eV)
  ---------------------------------------------------
  alpha Z        PSCENC =        72.83247983
  Ewald energy   TEWEN  =     -1314.95572094
  -Hartree energ DENC   =      -179.03449972
  -exchange      EXHF   =         0.00000000
  -V(xc)+E(xc)   XCENC  =       -34.05442577
  PAW double counting   =      1801.85918829    -1689.27424860
  entropy T*S    EENTRO =        -0.00000000
  eigenvalues    EBANDS =      -139.01212555
  atomic energy  EATOM  =      1448.48460880
  Solvation  Ediel_sol  =         0.00000000
  ---------------------------------------------------
  free energy    TOTEN  =       -33.15474367 eV

  energy without entropy =      -33.15474367  energy(sigma->0) =      -33.15474367


--------------------------------------------------------------------------------------------------------




--------------------------------------- Iteration      1(  10)  ---------------------------------------


    POTLOK:  cpu time      0.0038: real time      0.0041
    SETDIJ:  cpu time      0.1385: real time      0.1388
     EDDAV:  cpu time      0.1864: real time      0.1877
       DOS:  cpu time      0.0003: real time      0.0003
    CHARGE:  cpu time      0.0040: real time      0.0040
    MIXING:  cpu time      0.0003: real time      0.0003
    --------------------------------------------
      LOOP:  cpu time      0.3333: real time      0.3353

 eigenvalue-minimisations  :  2816
 total energy-change (2. order) :-0.2581445E-03  (-0.7105272E-04)
 number of electron      40.0000007 magnetization 
 augmentation part       -7.3424348 magnetization 

 Broyden mixing:
  rms(total) = 0.27302E-02    rms(broyden)= 0.27302E-02
  rms(prec ) = 0.33233E-02
  weight for this iteration     100.00

 eigenvalues of (default mixing * dielectric matrix)
  average eigenvalue GAMMA=   1.7098
  2.7480  2.5997  1.1298  1.1298  0.9417

 Free energy of the ion-electron system (eV)
  ---------------------------------------------------
  alpha Z        PSCENC =        72.83247983
  Ewald energy   TEWEN  =     -1314.95572094
  -Hartree energ DENC   =      -179.14257522
  -exchange      EXHF   =         0.00000000
  -V(xc)+E(xc)   XCENC  =       -34.04442742
  PAW double counting   =      1797.14058679    -1684.55164571
  entropy T*S    EENTRO =        -0.00000000
  eigenvalues    EBANDS =      -138.91830794
  atomic energy  EATOM  =      1448.48460880
  Solvation  Ediel_sol  =         0.00000000
  ---------------------------------------------------
  free energy    TOTEN  =       -33.15500182 eV

  energy without entropy =      -33.15500182  energy(sigma->0) =      -33.15500182


--------------------------------------------------------------------------------------------------------




--------------------------------------- Iteration      1(  11)  ---------------------------------------


    POTLOK:  cpu time      0.0035: real time      0.0037
    SETDIJ:  cpu time      0.1203: real time      0.1206
     EDDAV:  cpu time      0.2012: real time      0.2022
       DOS:  cpu time      0.0004: real time      0.0004
    CHARGE:  cpu time      0.0039: real time      0.0040
    MIXING:  cpu time      0.0003: real time      0.0003
    --------------------------------------------
      LOOP:  cpu time      0.3297: real time      0.3311

 eigenvalue-minimisations  :  3072
 total energy-change (2. order) :-0.4027849E-04  (-0.5948052E-05)
 number of electron      40.0000007 magnetization 
 augmentation part       -7.3427264 magnetization 

 Broyden mixing:
  rms(total) = 0.15554E-02    rms(broyden)= 0.15554E-02
  rms(prec ) = 0.18871E-02
  weight for this iteration     100.00

 eigenvalues of (default mixing * dielectric matrix)
  average eigenvalue GAMMA=   1.7320
  2.7034  2.7034  1.7207  1.0900  1.0900  1.0841

 Free energy of the ion-electron system (eV)
  ---------------------------------------------------
  alpha Z        PSCENC =        72.83247983
  Ewald energy   TEWEN  =     -1314.95572094
  -Hartree energ DENC   =      -179.16968582
  -exchange      EXHF   =         0.00000000
  -V(xc)+E(xc)   XCENC  =       -34.03958198
  PAW double counting   =      1796.91012565    -1684.32045045
  entropy T*S    EENTRO =        -0.00000000
  eigenvalues    EBANDS =      -138.89681717
  atomic energy  EATOM  =      1448.48460880
  Solvation  Ediel_sol  =         0.00000000
  ---------------------------------------------------
  free energy    TOTEN  =       -33.15504210 eV

  energy without entropy =      -33.15504210  energy(sigma->0) =      -33.15504210


--------------------------------------------------------------------------------------------------------




--------------------------------------- Iteration      1(  12)  ---------------------------------------


    POTLOK:  cpu time      0.0035: real time      0.0037
    SETDIJ:  cpu time      0.1084: real time      0.1089
     EDDAV:  cpu time      0.1864: real time      0.1872
       DOS:  cpu time      0.0004: real time      0.0004
    CHARGE:  cpu time      0.0037: real time      0.0037
    MIXING:  cpu time      0.0003: real time      0.0003
    --------------------------------------------
      LOOP:  cpu time      0.3027: real time      0.3042

 eigenvalue-minimisations  :  2944
 total energy-change (2. order) :-0.1925114E-05  (-0.1607481E-05)
 number of electron      40.0000007 magnetization 
 augmentation part       -7.3427216 magnetization 

 Broyden mixing:
  rms(total) = 0.33185E-03    rms(broyden)= 0.33185E-03
  rms(prec ) = 0.37126E-03
  weight for this iteration     100.00

 eigenvalues of (default mixing * dielectric matrix)
  average eigenvalue GAMMA=   1.6592
  2.9300  2.3929  1.9339  0.9921  1.1881  1.0888  1.0888

 Free energy of the ion-electron system (eV)
  ---------------------------------------------------
  alpha Z        PSCENC =        72.83247983
  Ewald energy   TEWEN  =     -1314.95572094
  -Hartree energ DENC   =      -179.18805406
  -exchange      EXHF   =         0.00000000
  -V(xc)+E(xc)   XCENC  =       -34.03718346
  PAW double counting   =      1796.28562688    -1683.69562569
  entropy T*S    EENTRO =        -0.00000000
  eigenvalues    EBANDS =      -138.88117538
  atomic energy  EATOM  =      1448.48460880
  Solvation  Ediel_sol  =         0.00000000
  ---------------------------------------------------
  free energy    TOTEN  =       -33.15504402 eV

  energy without entropy =      -33.15504402  energy(sigma->0) =      -33.15504402


--------------------------------------------------------------------------------------------------------




--------------------------------------- Iteration      1(  13)  ---------------------------------------


    POTLOK:  cpu time      0.0033: real time      0.0034
    SETDIJ:  cpu time      0.1107: real time      0.1110
     EDDAV:  cpu time      0.1812: real time      0.1821
       DOS:  cpu time      0.0003: real time      0.0003
    --------------------------------------------
      LOOP:  cpu time      0.2955: real time      0.2968

 eigenvalue-minimisations  :  2352
 total energy-change (2. order) :-0.9093509E-06  (-0.1850037E-06)
 number of electron      40.0000007 magnetization 
 augmentation part       -7.3427216 magnetization 

 Free energy of the ion-electron system (eV)
  ---------------------------------------------------
  alpha Z        PSCENC =        72.83247983
  Ewald energy   TEWEN  =     -1314.95572094
  -Hartree energ DENC   =      -179.19086767
  -exchange      EXHF   =         0.00000000
  -V(xc)+E(xc)   XCENC  =       -34.03668786
  PAW double counting   =      1796.59835455    -1684.00841680
  entropy T*S    EENTRO =        -0.00000000
  eigenvalues    EBANDS =      -138.87879484
  atomic energy  EATOM  =      1448.48460880
  Solvation  Ediel_sol  =         0.00000000
  ---------------------------------------------------
  free energy    TOTEN  =       -33.15504493 eV

  energy without entropy =      -33.15504493  energy(sigma->0) =      -33.15504493


--------------------------------------------------------------------------------------------------------




 average (electrostatic) potential at core
  the test charge radii are     1.1631  1.0808
  (the norm of the test charge is              1.0000)
       1 -35.0061       2 -35.0061       3 -35.0061       4 -35.0061       5 -56.1809
       6 -56.1809       7 -56.1809       8 -56.1809
 
 
 
 E-fermi :   1.7592     XC(G=0):  -8.4626     alpha+bet : -7.2558

 Fermi energy:         1.7591674192

 k-point     1 :       0.0000    0.0000    0.0000
  band No.  band energies     occupation 
      1     -11.6197      2.00000
      2     -11.4145      2.00000
      3     -10.4964      2.00000
      4     -10.2435      2.00000
      5      -6.1684      2.00000
      6      -5.7290      2.00000
      7      -4.1496      2.00000
      8      -3.9966      2.00000
      9      -2.3563      2.00000
     10      -1.5248      2.00000
     11      -1.2206      2.00000
     12      -1.1218      2.00000
     13      -0.9927      2.00000
     14      -0.5980      2.00000
     15      -0.2257      2.00000
     16       0.2324      2.00000
     17       0.8402      2.00000
     18       1.2527      2.00000
     19       1.3547      2.00000
     20       1.4770      2.00000
     21       3.2535      0.00000
     22       3.3882      0.00000
     23       3.7058      0.00000
     24       3.8798      0.00000
     25       4.0245      0.00000
     26       4.5038      0.00000
     27       4.9940      0.00000
     28       4.9940      0.00000
     29       6.1567      0.00000
     30       6.2780      0.00000
     31       6.9306      0.00000
     32       7.2696      0.00000

 k-point     2 :       0.1667    0.0000    0.0000
  band No.  band energies     occupation 
      1     -11.5356      2.00000
      2     -11.3372      2.00000
      3     -10.5469      2.00000
      4     -10.3184      2.00000
      5      -6.2074      2.00000
      6      -5.6707      2.00000
      7      -4.5290      2.00000
      8      -4.2038      2.00000
      9      -2.1722      2.00000
     10      -1.4091      2.00000
     11      -1.1184      2.00000
     12      -0.8906      2.00000
     13      -0.7729      2.00000
     14      -0.4375      2.00000
     15      -0.2364      2.00000
     16       0.1547      2.00000
     17       0.8901      2.00000
     18       0.9036      2.00000
     19       1.2889      2.00000
     20       1.5100      2.00000
     21       3.0095      0.00000
     22       3.2828      0.00000
     23       3.6451      0.00000
     24       3.7460      0.00000
     25       4.0460      0.00000
     26       4.2616      0.00000
     27       4.8368      0.00000
     28       5.3373      0.00000
     29       5.6643      0.00000
     30       6.3696      0.00000
     31       6.5075      0.00000
     32       6.9859      0.00000

 k-point     3 :       0.3333    0.0000    0.0000
  band No.  band energies     occupation 
      1     -11.3046      2.00000
      2     -11.1239      2.00000
      3     -10.7143      2.00000
      4     -10.5319      2.00000
      5      -6.1582      2.00000
      6      -5.4979      2.00000
      7      -5.2328      2.00000
      8      -4.6803      2.00000
      9      -1.7059      2.00000
     10      -1.0879      2.00000
     11      -0.8408      2.00000
     12      -0.6790      2.00000
     13      -0.3398      2.00000
     14      -0.1198      2.00000
     15      -0.1012      2.00000
     16      -0.0961      2.00000
     17       0.3784      2.00000
     18       0.8546      2.00000
     19       1.0449      2.00000
     20       1.3620      2.00000
     21       2.5063      0.00000
     22       3.0971      0.00000
     23       3.2450      0.00000
     24       3.9793      0.00000
     25       3.9875      0.00000
     26       4.1182      0.00000
     27       4.6987      0.00000
     28       4.7866      0.00000
     29       5.6746      0.00000
     30       5.7770      0.00000
     31       6.1343      0.00000
     32       7.0616      0.00000

 k-point     4 :       0.5000    0.0000    0.0000
  band No.  band energies     occupation 
      1     -10.9947      2.00000
      2     -10.9947      2.00000
      3     -10.8291      2.00000
      4     -10.8291      2.00000
      5      -5.8338      2.00000
      6      -5.8338      2.00000
      7      -5.1619      2.00000
      8      -5.1619      2.00000
      9      -1.0738      2.00000
     10      -1.0738      2.00000
     11      -0.6586      2.00000
     12      -0.6586      2.00000
     13      -0.4727      2.00000
     14      -0.4727      2.00000
     15       0.2644      2.00000
     16       0.2644      2.00000
     17       0.5191      2.00000
     18       0.5191      2.00000
     19       0.8938      2.00000
     20       0.8938      2.00000
     21       2.6375      0.00000
     22       2.6375      0.00000
     23       3.5338      0.00000
     24       3.5338      0.00000
     25       4.1390      0.00000
     26       4.1390      0.00000
     27       4.8557      0.00000
     28       4.8557      0.00000
     29       4.9806      0.00000
     30       4.9806      0.00000
     31       6.8945      0.00000
     32       6.8945      0.00000

 k-point     5 :       0.0000    0.1667    0.0000
  band No.  band energies     occupation 
      1     -11.4939      2.00000
      2     -11.3011      2.00000
      3     -10.4672      2.00000
      4     -10.2573      2.00000
      5      -6.2760      2.00000
      6      -5.8665      2.00000
      7      -4.4894      2.00000
      8      -4.4504      2.00000
      9      -2.2092      2.00000
     10      -1.5775      2.00000
     11      -1.3342      2.00000
     12      -1.0167      2.00000
     13      -0.8079      2.00000
     14      -0.4921      2.00000
     15      -0.0242      2.00000
     16      -0.0037      2.00000
     17       0.8531      2.00000
     18       1.1883      2.00000
     19       1.2704      2.00000
     20       1.4323      2.00000
     21       3.6035      0.00000
     22       3.7293      0.00000
     23       3.8780      0.00000
     24       4.0159      0.00000
     25       4.2086      0.00000
     26       4.3309      0.00000
     27       4.4890      0.00000
     28       5.0730      0.00000
     29       5.4705      0.00000
     30       6.1936      0.00000
     31       6.3885      0.00000
     32       7.1120      0.00000

 k-point     6 :       0.1667    0.1667    0.0000
  band No.  band energies     occupation 
      1     -11.4151      2.00000
      2     -11.2293      2.00000
      3     -10.5127      2.00000
      4     -10.3204      2.00000
      5      -6.2760      2.00000
      6      -5.7876      2.00000
      7      -4.7420      2.00000
      8      -4.5805      2.00000
      9      -2.0630      2.00000
     10      -1.8132      2.00000
     11      -1.4941      2.00000
     12      -0.9506      2.00000
     13      -0.3528      2.00000
     14      -0.2682      2.00000
     15      -0.1742      2.00000
     16      -0.0718      2.00000
     17       0.8610      2.00000
     18       0.9239      2.00000
     19       1.2219      2.00000
     20       1.4007      2.00000
     21       3.4700      0.00000
     22       3.5053      0.00000
     23       3.8013      0.00000
     24       3.8290      0.00000
     25       4.2855      0.00000
     26       4.3072      0.00000
     27       4.8621      0.00000
     28       5.2094      0.00000
     29       5.5850      0.00000
     30       6.1505      0.00000
     31       6.1766      0.00000
     32       6.9448      0.00000

 k-point     7 :      -0.1667    0.1667    0.0000
  band No.  band energies     occupation 
      1     -11.4151      2.00000
      2     -11.2293      2.00000
      3     -10.5127      2.00000
      4     -10.3204      2.00000
      5      -6.2760      2.00000
      6      -5.7876      2.00000
      7      -4.7420      2.00000
      8      -4.5805      2.00000
      9      -2.0630      2.00000
     10      -1.8132      2.00000
     11      -1.4941      2.00000
     12      -0.9506      2.00000
     13      -0.3528      2.00000
     14      -0.2682      2.00000
     15      -0.1742      2.00000
     16      -0.0718      2.00000
     17       0.8610      2.00000
     18       0.9239      2.00000
     19       1.2219      2.00000
     20       1.4007      2.00000
     21       3.4700      0.00000
     22       3.5053      0.00000
     23       3.8013      0.00000
     24       3.8290      0.00000
     25       4.2855      0.00000
     26       4.3072      0.00000
     27       4.8621      0.00000
     28       5.2094      0.00000
     29       5.5850      0.00000
     30       6.1505      0.00000
     31       6.1766      0.00000
     32       6.9448      0.00000

 k-point     8 :       0.3333    0.1667    0.0000
  band No.  band energies     occupation 
      1     -11.2001      2.00000
      2     -11.0329      2.00000
      3     -10.6628      2.00000
      4     -10.5036      2.00000
      5      -6.1730      2.00000
      6      -5.5825      2.00000
      7      -5.3067      2.00000
      8      -4.8935      2.00000
      9      -1.8943      2.00000
     10      -1.6693      2.00000
     11      -1.5034      2.00000
     12      -1.0896      2.00000
     13      -0.7163      2.00000
     14      -0.2664      2.00000
     15       0.0076      2.00000
     16       0.2909      2.00000
     17       0.7651      2.00000
     18       0.8024      2.00000
     19       1.0708      2.00000
     20       1.3460      2.00000
     21       3.0840      0.00000
     22       3.4229      0.00000
     23       3.4691      0.00000
     24       3.5666      0.00000
     25       4.4288      0.00000
     26       4.7633      0.00000
     27       4.9108      0.00000
     28       5.3397      0.00000
     29       5.7744      0.00000
     30       6.0031      0.00000
     31       6.0820      0.00000
     32       6.8310      0.00000

 k-point     9 :      -0.3333    0.1667    0.0000
  band No.  band energies     occupation 
      1     -11.2001      2.00000
      2     -11.0329      2.00000
      3     -10.6628      2.00000
      4     -10.5036      2.00000
      5      -6.1730      2.00000
      6      -5.5825      2.00000
      7      -5.3067      2.00000
      8      -4.8935      2.00000
      9      -1.8943      2.00000
     10      -1.6693      2.00000
     11      -1.5034      2.00000
     12      -1.0896      2.00000
     13      -0.7163      2.00000
     14      -0.2664      2.00000
     15       0.0076      2.00000
     16       0.2909      2.00000
     17       0.7651      2.00000
     18       0.8024      2.00000
     19       1.0708      2.00000
     20       1.3460      2.00000
     21       3.0840      0.00000
     22       3.4229      0.00000
     23       3.4691      0.00000
     24       3.5666      0.00000
     25       4.4288      0.00000
     26       4.7633      0.00000
     27       4.9108      0.00000
     28       5.3397      0.00000
     29       5.7744      0.00000
     30       6.0031      0.00000
     31       6.0820      0.00000
     32       6.8310      0.00000

 k-point    10 :       0.5000    0.1667    0.0000
  band No.  band energies     occupation 
      1     -10.9157      2.00000
      2     -10.9157      2.00000
      3     -10.7660      2.00000
      4     -10.7660      2.00000
      5      -5.8442      2.00000
      6      -5.8442      2.00000
      7      -5.2689      2.00000
      8      -5.2689      2.00000
      9      -1.6432      2.00000
     10      -1.6432      2.00000
     11      -1.1938      2.00000
     12      -1.1938      2.00000
     13      -0.9199      2.00000
     14      -0.9199      2.00000
     15       0.3019      2.00000
     16       0.3019      2.00000
     17       0.8444      2.00000
     18       0.8444      2.00000
     19       1.1964      2.00000
     20       1.1964      2.00000
     21       3.0435      0.00000
     22       3.0435      0.00000
     23       3.4143      0.00000
     24       3.4143      0.00000
     25       4.8846      0.00000
     26       4.8846      0.00000
     27       5.1407      0.00000
     28       5.1407      0.00000
     29       5.5744      0.00000
     30       5.5744      0.00000
     31       6.6431      0.00000
     32       6.6431      0.00000

 k-point    11 :       0.0000    0.3333    0.0000
  band No.  band energies     occupation 
      1     -11.1522      2.00000
      2     -11.0028      2.00000
      3     -10.4678      2.00000
      4     -10.3805      2.00000
      5      -6.4090      2.00000
      6      -6.0253      2.00000
      7      -5.4300      2.00000
      8      -5.1513      2.00000
      9      -1.8159      2.00000
     10      -1.4785      2.00000
     11      -1.2598      2.00000
     12      -0.8068      2.00000
     13      -0.3652      2.00000
     14      -0.3498      2.00000
     15      -0.1430      2.00000
     16       0.2403      2.00000
     17       0.6256      2.00000
     18       0.8356      2.00000
     19       0.9679      2.00000
     20       1.0286      2.00000
     21       3.0664      0.00000
     22       3.5107      0.00000
     23       3.8205      0.00000
     24       4.2160      0.00000
     25       4.3212      0.00000
     26       4.4577      0.00000
     27       4.6162      0.00000
     28       5.0318      0.00000
     29       5.5346      0.00000
     30       5.8137      0.00000
     31       6.1196      0.00000
     32       6.7197      0.00000

 k-point    12 :       0.1667    0.3333    0.0000
  band No.  band energies     occupation 
      1     -11.0914      2.00000
      2     -10.9501      2.00000
      3     -10.4918      2.00000
      4     -10.4061      2.00000
      5      -6.3522      2.00000
      6      -5.9573      2.00000
      7      -5.4416      2.00000
      8      -5.2482      2.00000
      9      -1.8948      2.00000
     10      -1.7464      2.00000
     11      -1.5748      2.00000
     12      -1.0057      2.00000
     13      -0.4852      2.00000
     14      -0.2738      2.00000
     15      -0.1895      2.00000
     16       0.0048      2.00000
     17       0.4059      2.00000
     18       0.8826      2.00000
     19       1.0385      2.00000
     20       1.1029      2.00000
     21       3.1409      0.00000
     22       3.6268      0.00000
     23       3.8642      0.00000
     24       4.2549      0.00000
     25       4.7641      0.00000
     26       4.8120      0.00000
     27       4.9929      0.00000
     28       5.4862      0.00000
     29       5.6430      0.00000
     30       5.9919      0.00000
     31       6.3106      0.00000
     32       6.5519      0.00000

 k-point    13 :      -0.1667    0.3333    0.0000
  band No.  band energies     occupation 
      1     -11.0914      2.00000
      2     -10.9501      2.00000
      3     -10.4918      2.00000
      4     -10.4061      2.00000
      5      -6.3522      2.00000
      6      -5.9573      2.00000
      7      -5.4416      2.00000
      8      -5.2482      2.00000
      9      -1.8948      2.00000
     10      -1.7464      2.00000
     11      -1.5748      2.00000
     12      -1.0057      2.00000
     13      -0.4852      2.00000
     14      -0.2738      2.00000
     15      -0.1895      2.00000
     16       0.0048      2.00000
     17       0.4059      2.00000
     18       0.8826      2.00000
     19       1.0385      2.00000
     20       1.1029      2.00000
     21       3.1409      0.00000
     22       3.6268      0.00000
     23       3.8642      0.00000
     24       4.2549      0.00000
     25       4.7641      0.00000
     26       4.8120      0.00000
     27       4.9929      0.00000
     28       5.4862      0.00000
     29       5.6430      0.00000
     30       5.9919      0.00000
     31       6.3106      0.00000
     32       6.5519      0.00000

 k-point    14 :       0.3333    0.3333    0.0000
  band No.  band energies     occupation 
      1     -10.9314      2.00000
      2     -10.8116      2.00000
      3     -10.5764      2.00000
      4     -10.4919      2.00000
      5      -6.1812      2.00000
      6      -5.7838      2.00000
      7      -5.5803      2.00000
      8      -5.4331      2.00000
      9      -2.2769      2.00000
     10      -1.8168      2.00000
     11      -1.7346      2.00000
     12      -1.4598      2.00000
     13      -0.9825      2.00000
     14      -0.6069      2.00000
     15      -0.5741      2.00000
     16       0.0144      2.00000
     17       0.2195      2.00000
     18       0.8540      2.00000
     19       1.1342      2.00000
     20       1.1515      2.00000
     21       3.1281      0.00000
     22       4.1341      0.00000
     23       4.4597      0.00000
     24       5.0970      0.00000
     25       5.1530      0.00000
     26       5.2412      0.00000
     27       5.3831      0.00000
     28       5.7839      0.00000
     29       5.9746      0.00000
     30       6.2732      0.00000
     31       6.4334      0.00000
     32       6.7904      0.00000

 k-point    15 :      -0.3333    0.3333    0.0000
  band No.  band energies     occupation 
      1     -10.9314      2.00000
      2     -10.8116      2.00000
      3     -10.5764      2.00000
      4     -10.4919      2.00000
      5      -6.1812      2.00000
      6      -5.7838      2.00000
      7      -5.5803      2.00000
      8      -5.4331      2.00000
      9      -2.2769      2.00000
     10      -1.8168      2.00000
     11      -1.7346      2.00000
     12      -1.4598      2.00000
     13      -0.9825      2.00000
     14      -0.6069      2.00000
     15      -0.5741      2.00000
     16       0.0144      2.00000
     17       0.2195      2.00000
     18       0.8540      2.00000
     19       1.1342      2.00000
     20       1.1515      2.00000
     21       3.1281      0.00000
     22       4.1341      0.00000
     23       4.4597      0.00000
     24       5.0970      0.00000
     25       5.1530      0.00000
     26       5.2412      0.00000
     27       5.3831      0.00000
     28       5.7839      0.00000
     29       5.9746      0.00000
     30       6.2732      0.00000
     31       6.4334      0.00000
     32       6.7904      0.00000

 k-point    16 :       0.5000    0.3333    0.0000
  band No.  band energies     occupation 
      1     -10.7346      2.00000
      2     -10.7346      2.00000
      3     -10.6391      2.00000
      4     -10.6391      2.00000
      5      -5.9018      2.00000
      6      -5.9018      2.00000
      7      -5.5852      2.00000
      8      -5.5852      2.00000
      9      -2.2043      2.00000
     10      -2.2043      2.00000
     11      -1.6204      2.00000
     12      -1.6204      2.00000
     13      -1.1137      2.00000
     14      -1.1137      2.00000
     15      -0.3059      2.00000
     16      -0.3059      2.00000
     17       0.4314      2.00000
     18       0.4314      2.00000
     19       1.1607      2.00000
     20       1.1607      2.00000
     21       3.8850      0.00000
     22       3.8850      0.00000
     23       4.8394      0.00000
     24       4.8394      0.00000
     25       5.4475      0.00000
     26       5.4475      0.00000
     27       5.9997      0.00000
     28       5.9997      0.00000
     29       6.2077      0.00000
     30       6.2077      0.00000
     31       6.6493      0.00000
     32       6.6493      0.00000

 k-point    17 :       0.0000    0.5000    0.0000
  band No.  band energies     occupation 
      1     -10.7148      2.00000
      2     -10.7148      2.00000
      3     -10.6587      2.00000
      4     -10.6587      2.00000
      5      -6.1679      2.00000
      6      -6.1679      2.00000
      7      -5.7943      2.00000
      8      -5.7943      2.00000
      9      -1.4245      2.00000
     10      -1.4245      2.00000
     11      -0.9018      2.00000
     12      -0.9018      2.00000
     13      -0.2733      2.00000
     14      -0.2733      2.00000
     15       0.1299      2.00000
     16       0.1299      2.00000
     17       0.5048      2.00000
     18       0.5048      2.00000
     19       0.7404      2.00000
     20       0.7404      2.00000
     21       3.0766      0.00000
     22       3.0766      0.00000
     23       3.8427      0.00000
     24       3.8427      0.00000
     25       4.4275      0.00000
     26       4.4275      0.00000
     27       4.6374      0.00000
     28       4.6374      0.00000
     29       5.8314      0.00000
     30       5.8314      0.00000
     31       6.1209      0.00000
     32       6.1209      0.00000

 k-point    18 :       0.1667    0.5000    0.0000
  band No.  band energies     occupation 
      1     -10.6907      2.00000
      2     -10.6907      2.00000
      3     -10.6418      2.00000
      4     -10.6418      2.00000
      5      -6.1131      2.00000
      6      -6.1131      2.00000
      7      -5.7953      2.00000
      8      -5.7953      2.00000
      9      -1.6067      2.00000
     10      -1.6067      2.00000
     11      -1.1506      2.00000
     12      -1.1506      2.00000
     13      -0.7030      2.00000
     14      -0.7030      2.00000
     15      -0.2453      2.00000
     16      -0.2453      2.00000
     17       0.6056      2.00000
     18       0.6056      2.00000
     19       1.0700      2.00000
     20       1.0700      2.00000
     21       3.0804      0.00000
     22       3.0804      0.00000
     23       4.1833      0.00000
     24       4.1833      0.00000
     25       4.9959      0.00000
     26       4.9959      0.00000
     27       5.3271      0.00000
     28       5.3271      0.00000
     29       5.9519      0.00000
     30       5.9519      0.00000
     31       6.0492      0.00000
     32       6.0492      0.00000

[...]
     32       6.1492      0.00000

 k-point    32 :       0.1667    0.3333    0.5000
  band No.  band energies     occupation 
      1     -11.0276      2.00000
      2     -11.0276      2.00000
      3     -10.4421      2.00000
      4     -10.4421      2.00000
      5      -6.1700      2.00000
      6      -6.1700      2.00000
      7      -5.3440      2.00000
      8      -5.3440      2.00000
      9      -1.7989      2.00000
     10      -1.7989      2.00000
     11      -1.2147      2.00000
     12      -1.2147      2.00000
     13      -0.4708      2.00000
     14      -0.4708      2.00000
     15      -0.0544      2.00000
     16      -0.0544      2.00000
     17       0.4534      2.00000
     18       0.4534      2.00000
     19       1.1301      2.00000
     20       1.1301      2.00000
     21       3.6437      0.00000
     22       3.6437      0.00000
     23       4.1437      0.00000
     24       4.1437      0.00000
     25       4.4954      0.00000
     26       4.4954      0.00000
     27       5.3656      0.00000
     28       5.3656      0.00000
     29       5.8938      0.00000
     30       5.8938      0.00000
     31       6.1762      0.00000
     32       6.1762      0.00000

 k-point    33 :      -0.1667    0.3333    0.5000
  band No.  band energies     occupation 
      1     -11.0276      2.00000
      2     -11.0276      2.00000
      3     -10.4421      2.00000
      4     -10.4421      2.00000
      5      -6.1700      2.00000
      6      -6.1700      2.00000
      7      -5.3440      2.00000
      8      -5.3440      2.00000
      9      -1.7989      2.00000
     10      -1.7989      2.00000
     11      -1.2147      2.00000
     12      -1.2147      2.00000
     13      -0.4708      2.00000
     14      -0.4708      2.00000
     15      -0.0544      2.00000
     16      -0.0544      2.00000
     17       0.4534      2.00000
     18       0.4534      2.00000
     19       1.1301      2.00000
     20       1.1301      2.00000
     21       3.6437      0.00000
     22       3.6437      0.00000
     23       4.1437      0.00000
     24       4.1437      0.00000
     25       4.4954      0.00000
     26       4.4954      0.00000
     27       5.3656      0.00000
     28       5.3656      0.00000
     29       5.8938      0.00000
     30       5.8938      0.00000
     31       6.1762      0.00000
     32       6.1762      0.00000

 k-point    34 :       0.3333    0.3333    0.5000
  band No.  band energies     occupation 
      1     -10.8793      2.00000
      2     -10.8793      2.00000
      3     -10.5265      2.00000
      4     -10.5265      2.00000
      5      -6.0112      2.00000
      6      -6.0112      2.00000
      7      -5.4858      2.00000
      8      -5.4858      2.00000
      9      -2.0853      2.00000
     10      -2.0853      2.00000
     11      -1.4347      2.00000
     12      -1.4347      2.00000
     13      -0.9798      2.00000
     14      -0.9798      2.00000
     15      -0.3637      2.00000
     16      -0.3637      2.00000
     17       0.6208      2.00000
     18       0.6208      2.00000
     19       1.1765      2.00000
     20       1.1765      2.00000
     21       3.9499      0.00000
     22       3.9499      0.00000
     23       4.6377      0.00000
     24       4.6377      0.00000
     25       4.9523      0.00000
     26       4.9523      0.00000
     27       5.4922      0.00000
     28       5.4922      0.00000
     29       5.9763      0.00000
     30       5.9763      0.00000
     31       6.6493      0.00000
     32       6.6493      0.00000

 k-point    35 :      -0.3333    0.3333    0.5000
  band No.  band energies     occupation 
      1     -10.8793      2.00000
      2     -10.8793      2.00000
      3     -10.5265      2.00000
      4     -10.5265      2.00000
      5      -6.0112      2.00000
      6      -6.0112      2.00000
      7      -5.4858      2.00000
      8      -5.4858      2.00000
      9      -2.0853      2.00000
     10      -2.0853      2.00000
     11      -1.4347      2.00000
     12      -1.4347      2.00000
     13      -0.9798      2.00000
     14      -0.9798      2.00000
     15      -0.3637      2.00000
     16      -0.3637      2.00000
     17       0.6208      2.00000
     18       0.6208      2.00000
     19       1.1765      2.00000
     20       1.1765      2.00000
     21       3.9499      0.00000
     22       3.9499      0.00000
     23       4.6377      0.00000
     24       4.6377      0.00000
     25       4.9523      0.00000
     26       4.9523      0.00000
     27       5.4922      0.00000
     28       5.4922      0.00000
     29       5.9763      0.00000
     30       5.9763      0.00000
     31       6.6493      0.00000
     32       6.6493      0.00000

 k-point    36 :       0.5000    0.3333    0.5000
  band No.  band energies     occupation 
      1     -10.7321      2.00000
      2     -10.7321      2.00000
      3     -10.6418      2.00000
      4     -10.6418      2.00000
      5      -5.8737      2.00000
      6      -5.8737      2.00000
      7      -5.6191      2.00000
      8      -5.6191      2.00000
      9      -1.9560      2.00000
     10      -1.9560      2.00000
     11      -1.9309      2.00000
     12      -1.9309      2.00000
     13      -0.8211      2.00000
     14      -0.8211      2.00000
     15      -0.7507      2.00000
     16      -0.7507      2.00000
     17       0.8340      2.00000
     18       0.8340      2.00000
     19       1.0035      2.00000
     20       1.0035      2.00000
     21       4.4404      0.00000
     22       4.4404      0.00000
     23       4.5810      0.00000
     24       4.5810      0.00000
     25       5.2136      0.00000
     26       5.2136      0.00000
     27       5.2860      0.00000
     28       5.2860      0.00000
     29       6.4145      0.00000
     30       6.4145      0.00000
     31       6.6377      0.00000
     32       6.6377      0.00000

 k-point    37 :       0.0000    0.5000    0.5000
  band No.  band energies     occupation 
      1     -10.6872      2.00000
      2     -10.6872      2.00000
      3     -10.6872      2.00000
      4     -10.6872      2.00000
      5      -5.9905      2.00000
      6      -5.9905      2.00000
      7      -5.9905      2.00000
      8      -5.9905      2.00000
      9      -1.1158      2.00000
     10      -1.1158      2.00000
     11      -1.1158      2.00000
     12      -1.1158      2.00000
     13      -0.0717      2.00000
     14      -0.0717      2.00000
     15      -0.0717      2.00000
     16      -0.0717      2.00000
     17       0.5020      2.00000
     18       0.5020      2.00000
     19       0.5020      2.00000
     20       0.5020      2.00000
     21       3.6158      0.00000
     22       3.6158      0.00000
     23       3.6158      0.00000
     24       3.6158      0.00000
     25       4.5172      0.00000
     26       4.5172      0.00000
     27       4.5172      0.00000
     28       4.5172      0.00000
     29       5.8870      0.00000
     30       5.8870      0.00000
     31       5.8870      0.00000
     32       5.8870      0.00000

 k-point    38 :       0.1667    0.5000    0.5000
  band No.  band energies     occupation 
      1     -10.6666      2.00000
      2     -10.6666      2.00000
      3     -10.6666      2.00000
      4     -10.6666      2.00000
      5      -5.9610      2.00000
      6      -5.9610      2.00000
      7      -5.9610      2.00000
      8      -5.9610      2.00000
      9      -1.3742      2.00000
     10      -1.3742      2.00000
     11      -1.3742      2.00000
     12      -1.3742      2.00000
     13      -0.4496      2.00000
     14      -0.4496      2.00000
     15      -0.4496      2.00000
     16      -0.4496      2.00000
     17       0.7236      2.00000
     18       0.7236      2.00000
     19       0.7236      2.00000
     20       0.7236      2.00000
     21       3.8252      0.00000
     22       3.8252      0.00000
     23       3.8252      0.00000
     24       3.8252      0.00000
     25       5.0968      0.00000
     26       5.0968      0.00000
     27       5.0968      0.00000
     28       5.0968      0.00000
     29       5.8706      0.00000
     30       5.8706      0.00000
     31       5.8706      0.00000
     32       5.8706      0.00000

 k-point    39 :       0.3333    0.5000    0.5000
  band No.  band energies     occupation 
      1     -10.6243      2.00000
      2     -10.6243      2.00000
      3     -10.6243      2.00000
      4     -10.6243      2.00000
      5      -5.9030      2.00000
      6      -5.9030      2.00000
      7      -5.9030      2.00000
      8      -5.9030      2.00000
      9      -1.7195      2.00000
     10      -1.7195      2.00000
     11      -1.7195      2.00000
     12      -1.7195      2.00000
     13      -1.0370      2.00000
     14      -1.0370      2.00000
     15      -1.0370      2.00000
     16      -1.0370      2.00000
     17       0.8936      2.00000
     18       0.8936      2.00000
     19       0.8936      2.00000
     20       0.8936      2.00000
     21       4.4656      0.00000
     22       4.4656      0.00000
     23       4.4656      0.00000
     24       4.4656      0.00000
     25       5.3759      0.00000
     26       5.3759      0.00000
     27       5.3759      0.00000
     28       5.3759      0.00000
     29       6.6427      0.00000
     30       6.6427      0.00000
     31       6.6427      0.00000
     32       6.6427      0.00000

 k-point    40 :       0.5000    0.5000    0.5000
  band No.  band energies     occupation 
      1     -10.6026      2.00000
      2     -10.6026      2.00000
      3     -10.6026      2.00000
      4     -10.6026      2.00000
      5      -5.8747      2.00000
      6      -5.8747      2.00000
      7      -5.8747      2.00000
      8      -5.8747      2.00000
      9      -1.7999      2.00000
     10      -1.7999      2.00000
     11      -1.7999      2.00000
     12      -1.7999      2.00000
     13      -1.3557      2.00000
     14      -1.3557      2.00000
     15      -1.3557      2.00000
     16      -1.3557      2.00000
     17       0.9586      2.00000
     18       0.9586      2.00000
     19       0.9586      2.00000
     20       0.9586      2.00000
     21       4.5895      0.00000
     22       4.5895      0.00000
     23       4.5895      0.00000
     24       4.5895      0.00000
     25       5.6633      0.00000
     26       5.6633      0.00000
     27       5.6633      0.00000
     28       5.6633      0.00000
     29       7.1999      0.00000
     30       7.1999      0.00000
     31       7.1999      0.00000
     32       7.1999      0.00000


--------------------------------------------------------------------------------------------------------


 soft charge-density along one line, spin component            1
         0         1         2         3         4         5         6         7         8         9
 total charge-density along one line
 
 pseudopotential strength for first ion, spin component:            1
 14.959  18.677   0.000   0.052  -0.032   0.000   0.094  -0.058
 18.677  23.334   0.000   0.066  -0.041   0.000   0.119  -0.073
  0.000   0.000   3.297  -0.000   0.000   5.618  -0.000   0.000
  0.052   0.066  -0.000   3.291   0.001  -0.000   5.607   0.001
 -0.032  -0.041   0.000   0.001   3.298   0.000   0.001   5.620
  0.000   0.000   5.618  -0.000   0.000   9.632  -0.000   0.000
  0.094   0.119  -0.000   5.607   0.001  -0.000   9.615   0.002
 -0.058  -0.073   0.000   0.001   5.620   0.000   0.002   9.636
  0.000   0.000  -0.004  -0.000   0.000  -0.007  -0.000   0.000
 -0.000  -0.000   0.013   0.000  -0.000   0.024   0.000  -0.000
 -0.009  -0.010  -0.000   0.014   0.002  -0.000   0.025   0.004
  0.001   0.002  -0.000  -0.011   0.013  -0.000  -0.019   0.024
  0.002   0.002  -0.000  -0.000  -0.010  -0.000  -0.000  -0.018
 total augmentation occupancy for first ion, spin component:            1
  2.483  -0.525  -0.000   0.417  -0.180   0.000  -0.072   0.019   0.000   0.000   0.013   0.026  -0.014
 -0.525   0.551   0.000  -0.544   0.288  -0.000   0.081  -0.038  -0.000   0.000  -0.011  -0.023   0.016
 -0.000   0.000   1.067  -0.000   0.000  -0.172   0.000  -0.000  -0.109   0.036  -0.000   0.000  -0.000
  0.417  -0.544  -0.000   1.344   0.054   0.000  -0.203  -0.022   0.000  -0.000   0.112   0.052   0.004
 -0.180   0.288   0.000   0.054   0.968  -0.000  -0.023  -0.143  -0.000   0.000   0.085   0.050   0.025
  0.000  -0.000  -0.172   0.000  -0.000   0.031  -0.000   0.000   0.018  -0.006   0.000   0.000  -0.000
 -0.072   0.081   0.000  -0.203  -0.023  -0.000   0.036   0.006  -0.000   0.000  -0.019  -0.008  -0.001
  0.019  -0.038  -0.000  -0.022  -0.143   0.000   0.006   0.024  -0.000  -0.000  -0.014  -0.008  -0.003
  0.000  -0.000  -0.109   0.000  -0.000   0.018  -0.000  -0.000   0.019  -0.001   0.000   0.000  -0.000
  0.000   0.000   0.036  -0.000   0.000  -0.006   0.000  -0.000  -0.001   0.008  -0.000  -0.000  -0.000
  0.013  -0.011  -0.000   0.112   0.085   0.000  -0.019  -0.014   0.000  -0.000   0.025   0.008   0.004
  0.026  -0.023   0.000   0.052   0.050   0.000  -0.008  -0.008   0.000  -0.000   0.008   0.012   0.003
 -0.014   0.016  -0.000   0.004   0.025  -0.000  -0.001  -0.003  -0.000  -0.000   0.004   0.003   0.007


------------------------ aborting loop because EDIFF is reached ----------------------------------------


    CHARGE:  cpu time      0.0041: real time      0.0041
    FORLOC:  cpu time      0.0002: real time      0.0002
    FORNL :  cpu time      0.0217: real time      0.0218
    STRESS:  cpu time      0.2173: real time      0.2182
    FORCOR:  cpu time      0.0033: real time      0.0033
    FORHAR:  cpu time      0.0009: real time      0.0009
    MIXING:  cpu time      0.0005: real time      0.0005
    OFIELD:  cpu time      0.0000: real time      0.0000

  FORCE on cell =-STRESS in cart. coord.  units (eV):
  Direction    XX          YY          ZZ          XY          YZ          ZX
  --------------------------------------------------------------------------------------
  Alpha Z    72.83248    72.83248    72.83248
  Ewald    -478.05326  -383.38359  -453.52059    -0.00000     0.00000     0.00000
  Hartree    51.98160    86.59214    40.62011    -0.00000    -0.00000    -0.00000
  E(xc)    -139.47424  -139.02285  -139.96117     0.00000    -0.00000    -0.00000
  Local    -128.45596  -249.86812  -145.08747     0.00000    -0.00000    -0.00000
  n-local   235.44444   236.16299   241.41845     0.00000     0.00000     0.00000
  augment   -11.92046   -11.24262   -12.37856     0.00000     0.00000     0.00000
  Kinetic   394.14040   379.04553   395.03920     0.00000    -0.00000    -0.00000
  Fock        0.00000     0.00000     0.00000     0.00000     0.00000     0.00000
  -------------------------------------------------------------------------------------
  Total      -3.50500    -8.88403    -1.03755     0.00000    -0.00000    -0.00000
  in kB     -24.13769   -61.18126    -7.14524     0.00001    -0.00000    -0.00000
  external pressure =      -30.82 kB  Pullay stress =        0.00 kB


 VOLUME and BASIS-vectors are now :
 -----------------------------------------------------------------------------
  energy-cutoff  :      360.00
  volume of cell :      232.65
      direct lattice vectors                 reciprocal lattice vectors
     4.800000000  0.000000000  0.000000000     0.208333333  0.000000000  0.000000000
     0.000000000  4.350000000  0.000000000     0.000000000  0.229885057  0.000000000
     0.000000000  0.000000000 11.142221000     0.000000000  0.000000000  0.089748713

  length of vectors
     4.800000000  4.350000000 11.142221000     0.208333333  0.229885057  0.089748713


 FORCES acting on ions
    electron-ion (+dipol)            ewald-force                    non-local-force                 convergence-correction
 -----------------------------------------------------------------------------------------------
   -.107E+02 0.457E-06 0.297E+02   0.132E+02 -.298E-14 -.330E+02   -.252E+01 -.222E-06 0.336E+01   0.140E-03 -.151E-06 -.230E-03
   -.107E+02 0.711E-06 -.297E+02   0.132E+02 0.151E-14 0.330E+02   -.252E+01 -.360E-06 -.336E+01   0.140E-03 -.273E-06 0.230E-03
   0.107E+02 -.620E-06 -.297E+02   -.132E+02 0.135E-14 0.330E+02   0.252E+01 0.300E-06 -.336E+01   -.140E-03 0.233E-06 0.230E-03
   0.107E+02 -.491E-06 0.297E+02   -.132E+02 -.326E-14 -.330E+02   0.252E+01 0.245E-06 0.336E+01   -.140E-03 0.167E-06 -.230E-03
   0.943E+01 0.104E-06 -.301E+02   -.108E+02 -.638E-14 0.321E+02   0.143E+01 0.135E-06 -.202E+01   -.578E-04 0.488E-07 0.457E-03
   0.943E+01 0.269E-06 0.301E+02   -.108E+02 0.730E-14 -.321E+02   0.143E+01 0.561E-07 0.202E+01   -.578E-04 -.595E-07 -.457E-03
   -.943E+01 -.412E-06 0.301E+02   0.108E+02 0.726E-14 -.321E+02   -.143E+01 0.265E-07 0.202E+01   0.577E-04 0.130E-06 -.457E-03
   -.943E+01 0.209E-06 -.301E+02   0.108E+02 -.503E-14 0.321E+02   -.143E+01 -.326E-06 -.202E+01   0.578E-04 -.176E-06 0.457E-03
 -----------------------------------------------------------------------------------------------
   0.325E-06 0.227E-06 -.586E-06   0.355E-14 -.230E-15 0.711E-14   -.124E-06 -.144E-06 0.271E-06   -.164E-06 -.812E-07 0.271E-06
 
 
 POSITION                                       TOTAL-FORCE (eV/Angst)
 -----------------------------------------------------------------------------------
      4.25096      1.08750      1.46866        -0.043344      0.000000      0.031437
      1.85096      3.26250      4.10245        -0.043344      0.000000     -0.031436
      0.54904      3.26250      9.67356         0.043344     -0.000000     -0.031437
      2.94904      1.08750      7.03977         0.043344     -0.000000      0.031436
      0.22819      1.08750      3.89724         0.023958      0.000000     -0.018697
      2.62819      3.26250      1.67388         0.023958      0.000000      0.018697
      4.57181      3.26250      7.24499        -0.023958     -0.000000      0.018697
      2.17181      1.08750      9.46835        -0.023958     -0.000000     -0.018697
 -----------------------------------------------------------------------------------
    total drift:                                0.000000      0.000000     -0.000000


--------------------------------------------------------------------------------------------------------



  FREE ENERGIE OF THE ION-ELECTRON SYSTEM (eV)
  ---------------------------------------------------
  free  energy   TOTEN  =       -33.15504493 eV

  energy  without entropy=      -33.15504493  energy(sigma->0) =      -33.15504493
 


--------------------------------------------------------------------------------------------------------


    POTLOK:  cpu time      0.1126: real time      0.1131


--------------------------------------------------------------------------------------------------------


     LOOP+:  cpu time      5.2177: real time      5.2604
    4ORBIT:  cpu time      0.0000: real time      0.0000

 total amount of memory used by VASP MPI-rank0    39792. kBytes
=======================================================================

   base      :      30000. kBytes
   nonl-proj :       7704. kBytes
   fftplans  :        358. kBytes
   grid      :        506. kBytes
   one-center:         16. kBytes
   wavefun   :       1208. kBytes
 
  
  
 General timing and accounting informations for this job:
 ========================================================
  
                  Total CPU time used (sec):        6.099
                            User time (sec):        5.785
                          System time (sec):        0.313
                         Elapsed time (sec):        7.678
  
                   Maximum memory used (kb):      192224.
                   Average memory used (kb):          N/A
  
                          Minor page faults:        24624
                          Major page faults:           40
                 Voluntary context switches:         5821
